INSANE! Membrane UpperLeaflet>loPI:POPI:DPPI:PYPI:ERGO=20.0:5.0:3.0:2.0:10.0 LowerLeaflet>PSPI:POPI:POPS:YOPS:POPE:YOPE:POPC:YOPC:ERGO=6.0:14.0:21.0:9.0:9.0:21.0:12.0:48.0:60.0
48947
    1loPI    C1    1   3.111  15.275   9.517 -0.0147  0.0416  0.0371
    1loPI    C2    2   2.754  15.097   9.552 -0.0889  0.1285 -0.2520
    1loPI    C3    3   3.083  14.912   9.683 -0.1973 -0.1063 -0.3062
    1loPI   PO4    4   3.070  15.470   9.213  0.0426 -0.2332 -0.1916
    1loPI   GL1    5   2.926  15.337   8.717  0.0922  0.0649  0.0233
    1loPI   GL2    6   2.906  15.751   8.794  0.1866  0.0217 -0.1310
    1loPI   C1A    7   2.988  15.160   8.240 -0.1699  0.0488  0.4017
    1loPI   C2A    8   2.888  15.244   7.775 -0.0563  0.2973  0.1519
    1loPI   C3A    9   2.783  15.448   7.366 -0.0030 -0.0362  0.1011
    1loPI   C4A   10   2.966  15.802   7.177 -0.2823 -0.2587 -0.1451
    1loPI   C5A   11   3.286  15.960   7.159 -0.0813 -0.0096 -0.2183
    1loPI   C6A   12   3.762  15.944   7.187 -0.3232 -0.0339 -0.0115
    1loPI   C1B   13   2.823  15.701   8.391  0.1548  0.4201 -0.1333
    1loPI   C2B   14   2.781  15.711   7.898  0.1776 -0.1109 -0.2917
    1loPI   C3B   15   2.567  15.892   7.508 -0.0472 -0.0115  0.1798
    1loPI   C4B   16   2.557  16.081   7.121 -0.3046  0.0783  0.1868
    2loPI    C1   17  15.291  11.822  10.903  0.0737 -0.0360  0.1917
    2loPI    C2   18  15.653  11.709  10.775  0.0431  0.2011 -0.1145
    2loPI    C3   19  15.618  12.004  11.044  0.0756  0.2102 -0.1201
    2loPI   PO4   20  15.128  11.921  10.659 -0.2301 -0.1346  0.1195
    2loPI   GL1   21  15.283  11.761  10.139  0.1268 -0.2276 -0.0734
    2loPI   GL2   22  15.124  12.051  10.126 -0.2281 -0.1874  0.1852
    2loPI   C1A   23  15.087  11.444   9.930 -0.1244 -0.2100 -0.0029
    2loPI   C2A   24  15.163  11.313   9.576 -0.1179  0.0706 -0.0451
    2loPI   C3A   25  15.262  11.093   9.195 -0.1276  0.1593 -0.5438
    2loPI   C4A   26  15.280  10.883   8.829  0.1105 -0.1401 -0.1103
    2loPI   C5A   27  15.292  10.816   8.345  0.2166  0.5225 -0.4015
    2loPI   C6A   28  15.253  10.647   7.946 -0.1522  0.4230  0.0960
    2loPI   C1B   29  15.006  12.148   9.770 -0.0654  0.0680  0.1882
    2loPI   C2B   30  15.020  12.357   9.278  0.0232  0.3378  0.3104
    2loPI   C3B   31  14.936  12.437   8.881  0.0072 -0.1686  0.0350
    2loPI   C4B   32  15.059  12.437   8.515  0.5175  0.2147  0.1707
    3loPI    C1   33   4.929   6.999  10.536 -0.1547 -0.2688 -0.0459
    3loPI    C2   34   4.676   6.848  10.807  0.0226 -0.2415  0.1372
    3loPI    C3   35   4.945   7.124  10.916  0.1832 -0.3267 -0.0372
    3loPI   PO4   36   5.038   6.741  10.478  0.0060 -0.0803  0.2381
    3loPI   GL1   37   5.043   6.481  10.076 -0.1105 -0.2691  0.0434
    3loPI   GL2   38   4.973   6.816   9.971  0.4067 -0.1038 -0.0072
    3loPI   C1A   39   5.236   6.430   9.662  0.0384  0.4766  0.0379
    3loPI   C2A   40   5.275   6.409   9.231  0.0319  0.0362  0.2137
    3loPI   C3A   41   5.305   6.497   8.916  0.2615  0.2426  0.0183
    3loPI   C4A   42   5.491   6.319   8.558  0.3976 -0.2347  0.2725
    3loPI   C5A   43   5.300   6.048   8.252 -0.0456  0.0982 -0.2457
    3loPI   C6A   44   5.146   5.754   8.052  0.0188 -0.1058  0.0418
    3loPI   C1B   45   5.061   6.887   9.543 -0.1894 -0.2992 -0.0255
    3loPI   C2B   46   5.172   6.952   9.128 -0.1147  0.2366  0.0491
    3loPI   C3B   47   5.219   6.945   8.724 -0.0451 -0.0983 -0.3032
    3loPI   C4B   48   5.409   6.879   8.353  0.0316  0.2778  0.0228
    4loPI    C1   49  12.128   3.993  10.602 -0.0723 -0.1025 -0.0910
    4loPI    C2   50  12.400   3.701  10.631  0.0917  0.0347 -0.2202
    4loPI    C3   51  12.247   3.865  10.962  0.1219 -0.0834 -0.1470
    4loPI   PO4   52  12.260   4.161  10.528 -0.0973  0.0046  0.1179
    4loPI   GL1   53  12.405   4.291  10.123  0.0517 -0.0000  0.0571
    4loPI   GL2   54  12.499   4.657  10.067  0.0732 -0.1501  0.0898
    4loPI   C1A   55  12.521   4.202   9.804 -0.0578  0.0351  0.3049
    4loPI   C2A   56  12.530   4.233   9.480  0.0772 -0.1100  0.3705
    4loPI   C3A   57  12.567   4.285   9.050 -0.2489 -0.0832 -0.0893
    4loPI   C4A   58  12.304   4.440   8.603 -0.2038 -0.0516  0.2173
    4loPI   C5A   59  11.890   4.587   8.364 -0.3942 -0.5383  0.0897
    4loPI   C6A   60  12.040   5.008   8.221  0.1468  0.1021  0.1640
    4loPI   C1B   61  12.558   4.710   9.637 -0.0218 -0.1580  0.1857
    4loPI   C2B   62  12.401   4.800   9.232  0.0353  0.1293  0.0112
    4loPI   C3B   63  12.278   4.891   8.813  0.2267  0.1718 -0.1904
    4loPI   C4B   64  12.294   5.275   8.625  0.3613 -0.1312 -0.2799
    5loPI    C1   65   1.187   2.513   9.854  0.1378 -0.0058 -0.2903
    5loPI    C2   66   1.555   2.575   9.712  0.2172 -0.2678 -0.2048
    5loPI    C3   67   1.501   2.503  10.101  0.0379  0.0999 -0.1576
    5loPI   PO4   68   1.041   2.552   9.643  0.1213  0.1849 -0.6017
    5loPI   GL1   69   1.141   2.658   9.337  0.1103 -0.5508  0.0642
    5loPI   GL2   70   1.392   2.642   9.266 -0.0503  0.0660  0.0896
    5loPI   C1A   71   0.901   2.700   9.016 -0.0970  0.1346 -0.0935
    5loPI   C2A   72   0.665   2.633   8.679  0.0209  0.1212  0.0809
    5loPI   C3A   73   0.487   2.560   8.299 -0.0763  0.0592  0.0409
    5loPI   C4A   74   0.268   2.424   7.962  0.0847 -0.2538 -0.1429
    5loPI   C5A   75   0.282   2.155   7.586  0.1751  0.0505  0.2502
    5loPI   C6A   76   0.748   2.287   7.289  0.3534  0.1328 -0.0332
    5loPI   C1B   77   1.300   2.349   9.003  0.0312 -0.0898  0.2649
    5loPI   C2B   78   1.201   2.444   8.619 -0.0138  0.1576  0.5117
    5loPI   C3B   79   1.040   2.461   8.263 -0.2075 -0.1542 -0.2292
    5loPI   C4B   80   0.750   2.269   7.894 -0.2641 -0.0466  0.1231
    6loPI    C1   81   0.956  14.390   9.926 -0.4134 -0.2924  0.2314
    6loPI    C2   82   1.330  14.389  10.068 -0.2229  0.0084 -0.2425
    6loPI    C3   83   1.053  14.151  10.231  0.0341  0.1732  0.4700
    6loPI   PO4   84   1.061  14.431   9.641  0.0897  0.2251 -0.2015
    6loPI   GL1   85   0.929  14.633   9.368  0.1350  0.0889 -0.1080
    6loPI   GL2   86   1.214  14.750   9.238  0.2473  0.0633 -0.2714
    6loPI   C1A   87   0.675  14.568   8.982  0.2688 -0.4103 -0.1289
    6loPI   C2A   88   0.407  14.608   8.628  0.0957 -0.0726 -0.1215
    6loPI   C3A   89   0.178  14.442   8.257 -0.0823 -0.2683 -0.1417
    6loPI   C4A   90   0.215  14.199   8.002  0.3167  0.1033  0.0340
    6loPI   C5A   91   0.586  14.278   7.792  0.1023  0.5913  0.0092
    6loPI   C6A   92   0.879  14.367   7.546 -0.1046 -0.2186 -0.0742
    6loPI   C1B   93   1.130  14.842   8.927 -0.1245  0.0360  0.2271
    6loPI   C2B   94   1.017  14.812   8.465 -0.1141 -0.0819 -0.1063
    6loPI   C3B   95   1.140  14.559   8.042 -0.0169 -0.2476 -0.1096
    6loPI   C4B   96   1.127  14.202   7.962 -0.1551  0.0787 -0.1402
    7loPI    C1   97   0.173   6.415  10.646 -0.0858 -0.0931  0.1849
    7loPI    C2   98   0.330   6.060  10.744 -0.0415 -0.1166  0.0311
    7loPI    C3   99   0.468   6.394  10.915 -0.0536 -0.1690  0.1441
    7loPI   PO4  100   0.230   6.476  10.391 -0.0495  0.2210 -0.0455
    7loPI   GL1  101   0.472   6.751  10.091  0.3254  0.0515  0.2314
    7loPI   GL2  102   0.514   6.440   9.973  0.2058  0.2275 -0.0271
    7loPI   C1A  103   0.523   6.925   9.716  0.0028 -0.0431  0.0722
    7loPI   C2A  104   0.408   6.821   9.256 -0.2248 -0.1394  0.4439
    7loPI   C3A  105   0.280   6.926   8.889 -0.1233  0.0452 -0.2024
    7loPI   C4A  106   0.245   7.122   8.460  0.1641  0.0175  0.2473
    7loPI   C5A  107   0.005   6.939   8.120  0.1002  0.0882  0.1929
    7loPI   C6A  108   0.185   6.929   7.684  0.2057  0.0088 -0.0370
    7loPI   C1B  109   0.419   6.458   9.576 -0.2336 -0.0080  0.0872
    7loPI   C2B  110   0.354   6.324   9.126  0.1286  0.0768 -0.1524
    7loPI   C3B  111   0.239   6.255   8.718  0.1577  0.1939 -0.0652
    7loPI   C4B  112   0.342   6.555   8.374 -0.1191 -0.1733 -0.0340
    8loPI    C1  113   6.338   9.723  10.473  0.1383  0.0008  0.0607
    8loPI    C2  114   6.585   9.853  10.186  0.0226 -0.2326 -0.1480
    8loPI    C3  115   6.624   9.989  10.560  0.0934  0.1724 -0.2976
    8loPI   PO4  116   6.121   9.705  10.342  0.3698 -0.1940  0.1219
    8loPI   GL1  117   5.904   9.796  10.074  0.1500 -0.1388  0.0432
    8loPI   GL2  118   5.600   9.700   9.962  0.1538  0.0962  0.0878
    8loPI   C1A  119   6.298   9.829   9.771  0.2629  0.0111 -0.1374
    8loPI   C2A  120   6.262  10.000   9.346  0.2715 -0.2554  0.3006
    8loPI   C3A  121   6.513   9.959   9.031  0.3038 -0.2973 -0.0513
    8loPI   C4A  122   6.632   9.620   8.804  0.2301  0.3620 -0.0554
    8loPI   C5A  123   6.800   9.548   8.395  0.0893  0.2445 -0.0698
    8loPI   C6A  124   6.960   9.206   8.233  0.0598  0.3479  0.1642
    8loPI   C1B  125   5.815   9.827   9.511 -0.1991  0.2204  0.0644
    8loPI   C2B  126   5.908   9.816   8.988 -0.2125 -0.1449 -0.0451
    8loPI   C3B  127   5.852   9.702   8.512 -0.1131  0.6448 -0.0973
    8loPI   C4B  128   5.857   9.772   8.100  0.0627  0.0184  0.3042
    9loPI    C1  129  18.108  14.922   9.668  0.0643  0.1123  0.1513
    9loPI    C2  130  18.440  14.806   9.477  0.0284  0.0530  0.1244
    9loPI    C3  131  18.427  14.802   9.877 -0.0560 -0.2741  0.1211
    9loPI   PO4  132  17.963  14.845   9.562 -0.0095 -0.1141  0.0350
    9loPI   GL1  133  17.869  15.243   9.346 -0.2994  0.0329 -0.0881
    9loPI   GL2  134  18.238  15.152   9.210 -0.3074  0.2898 -0.4381
    9loPI   C1A  135  17.971  15.576   8.888 -0.1888 -0.1092 -0.0839
    9loPI   C2A  136  18.159  15.638   8.508  0.1034  0.2586  0.0107
    9loPI   C3A  137  18.140  15.661   8.179 -0.0898 -0.2510 -0.0053
    9loPI   C4A  138  18.162  15.765   7.749 -0.1304  0.0688  0.0538
    9loPI   C5A  139  18.170  15.867   7.346  0.0340 -0.5144 -0.1284
    9loPI   C6A  140  18.001  16.040   6.914 -0.1346  0.0457  0.0990
    9loPI   C1B  141  18.449  15.227   8.737  0.0030  0.2384  0.0030
    9loPI   C2B  142  18.589  14.911   8.383 -0.0422 -0.1620  0.1622
    9loPI   C3B  143  18.612  14.851   8.000 -0.0416 -0.0567  0.2689
    9loPI   C4B  144  18.725  15.092   7.659  0.0721 -0.2185 -0.1451
   10loPI    C1  145   4.860  15.439   9.575 -0.0328  0.0872 -0.0725
   10loPI    C2  146   4.978  15.600   9.922  0.0100  0.0554 -0.0723
   10loPI    C3  147   4.594  15.621   9.812  0.0067  0.1153 -0.0496
   10loPI   PO4  148   5.051  15.512   9.458  0.1484 -0.3694  0.0708
   10loPI   GL1  149   5.121  15.475   8.973  0.0141 -0.1807  0.2458
   10loPI   GL2  150   5.293  15.759   8.872 -0.3263 -0.1721  0.2754
   10loPI   C1A  151   5.074  15.135   8.769  0.4127 -0.2999  0.0828
   10loPI   C2A  152   5.054  14.810   8.532  0.2681 -0.0989 -0.0357
   10loPI   C3A  153   4.924  14.668   8.116  0.0927 -0.0319 -0.1715
   10loPI   C4A  154   4.952  14.436   7.811  0.0133  0.0954  0.1043
   10loPI   C5A  155   5.097  14.121   7.670  0.2609 -0.1125 -0.1245
   10loPI   C6A  156   5.160  13.587   7.545 -0.3439  0.1501  0.3560
   10loPI   C1B  157   5.349  15.795   8.507 -0.1120  0.0273 -0.1842
   10loPI   C2B  158   5.402  15.770   8.063  0.0517 -0.1002  0.1142
   10loPI   C3B  159   5.395  15.928   7.620  0.3693 -0.0176  0.0693
   10loPI   C4B  160   5.527  15.828   7.164 -0.1572  0.0611  0.3738
   11loPI    C1  161   2.744   0.543   9.947 -0.2402 -0.0361 -0.0636
   11loPI    C2  162   2.411   0.320   9.947 -0.1769 -0.1398  0.3938
   11loPI    C3  163   2.503   0.543  10.266  0.1786 -0.0880  0.2600
   11loPI   PO4  164   2.677   0.614   9.609  0.1256  0.1005  0.0490
   11loPI   GL1  165   2.603   0.425   9.180  0.0702  0.0426  0.1295
   11loPI   GL2  166   2.742   0.747   8.978  0.2015 -0.1001 -0.1115
   11loPI   C1A  167   2.623   0.339   8.720  0.1232  0.2826  0.0890
   11loPI   C2A  168   2.708   0.436   8.240 -0.0804  0.0437  0.1289
   11loPI   C3A  169   2.619   0.262   7.923 -0.2112  0.0642 -0.0229
   11loPI   C4A  170   2.764   0.419   7.582 -0.0184  0.0116 -0.1492
   11loPI   C5A  171   2.847   0.295   7.218  0.1480  0.0542 -0.0703
   11loPI   C6A  172   2.959   0.076   6.807  0.1084  0.1178  0.0238
   11loPI   C1B  173   2.723   0.891   8.555  0.0137 -0.2349 -0.0399
   11loPI   C2B  174   2.926   0.855   8.137 -0.2840  0.1296  0.3636
   11loPI   C3B  175   2.815   0.954   7.713  0.0453  0.0733  0.0129
   11loPI   C4B  176   2.656   1.278   7.453 -0.1639  0.0424  0.2341
   12loPI    C1  177  14.742   4.196  10.683  0.1451 -0.0579  0.1056
   12loPI    C2  178  14.955   3.946  10.912  0.0208 -0.2627  0.0001
   12loPI    C3  179  14.574   3.861  10.824 -0.0965  0.0828  0.1579
   12loPI   PO4  180  14.881   4.230  10.504  0.0001  0.2349 -0.0334
   12loPI   GL1  181  14.999   4.253  10.151 -0.1181  0.2046 -0.0794
   12loPI   GL2  182  15.173   3.935  10.096  0.0972  0.1602  0.4967
   12loPI   C1A  183  14.969   4.355   9.702  0.1083 -0.2241 -0.1977
   12loPI   C2A  184  15.079   4.465   9.258  0.0821  0.2169 -0.1043
   12loPI   C3A  185  15.059   4.503   8.767  0.0537  0.0659  0.0261
   12loPI   C4A  186  14.931   4.230   8.466 -0.1105 -0.0633 -0.2407
   12loPI   C5A  187  14.898   3.832   8.387 -0.3616 -0.1257  0.0530
   12loPI   C6A  188  14.734   3.710   8.019  0.0177 -0.2183  0.1049
   12loPI   C1B  189  15.216   3.933   9.545  0.1830 -0.0076  0.1101
   12loPI   C2B  190  15.043   4.000   9.091  0.4508  0.0071 -0.1017
   12loPI   C3B  191  15.271   3.985   8.780 -0.0148  0.1175  0.0157
   12loPI   C4B  192  15.481   3.872   8.408 -0.0342  0.2583 -0.1610
   13loPI    C1  193   5.179  11.639  10.246  0.3336  0.0810 -0.1322
   13loPI    C2  194   5.287  11.628  10.631 -0.0882 -0.3278 -0.0170
   13loPI    C3  195   5.073  11.936  10.492  0.3699 -0.0006 -0.0171
   13loPI   PO4  196   5.410  11.474  10.133  0.0697  0.1877 -0.1898
   13loPI   GL1  197   5.400  11.387   9.662 -0.0201  0.3421  0.0283
   13loPI   GL2  198   5.182  11.122   9.575 -0.1405  0.2926 -0.0863
   13loPI   C1A  199   5.604  11.331   9.381 -0.2437 -0.0933 -0.0621
   13loPI   C2A  200   5.456  11.298   9.048 -0.0916 -0.0094  0.0604
   13loPI   C3A  201   5.498  11.302   8.629 -0.2636 -0.0687 -0.2162
   13loPI   C4A  202   5.599  11.507   8.159  0.2936  0.4798 -0.1674
   13loPI   C5A  203   5.415  11.573   7.711  0.1325  0.0804  0.0577
   13loPI   C6A  204   5.450  11.873   7.277  0.2225 -0.0215  0.3039
   13loPI   C1B  205   4.945  11.164   9.193 -0.3285 -0.1932  0.0205
   13loPI   C2B  206   4.895  11.211   8.751 -0.2061  0.2564  0.1129
   13loPI   C3B  207   4.913  11.226   8.384 -0.0705 -0.0953 -0.0769
   13loPI   C4B  208   5.214  11.138   8.094 -0.1314  0.0721  0.1594
   14loPI    C1  209   6.989  15.354  10.060  0.0061 -0.3248 -0.0061
   14loPI    C2  210   7.032  15.243  10.442  0.0633 -0.1437  0.0411
   14loPI    C3  211   6.717  15.463  10.332  0.0197 -0.2392 -0.0268
   14loPI   PO4  212   7.179  15.155   9.910 -0.1901  0.1267 -0.0946
   14loPI   GL1  213   7.063  15.063   9.530 -0.2441  0.2121  0.0321
   14loPI   GL2  214   7.402  15.066   9.480 -0.1751 -0.0617 -0.2031
   14loPI   C1A  215   6.977  14.808   9.172 -0.5155  0.2470 -0.1758
   14loPI   C2A  216   6.962  14.782   8.726 -0.0481  0.1651 -0.1682
   14loPI   C3A  217   6.975  14.775   8.397  0.0862 -0.1603  0.3205
   14loPI   C4A  218   6.735  14.583   8.137 -0.1439  0.1260  0.0461
   14loPI   C5A  219   6.596  14.590   7.772 -0.0089 -0.1125 -0.2120
   14loPI   C6A  220   6.734  14.537   7.330  0.1576 -0.2663  0.2694
   14loPI   C1B  221   7.407  14.992   9.102 -0.0491 -0.2983 -0.2209
   14loPI   C2B  222   7.441  14.979   8.719 -0.1826 -0.1043 -0.0531
   14loPI   C3B  223   7.427  15.044   8.340  0.6456  0.1140 -0.1237
   14loPI   C4B  224   7.346  15.050   7.946  0.1794 -0.0448 -0.1667
   15loPI    C1  225   6.048   4.570  10.896 -0.1634  0.2116 -0.1178
   15loPI    C2  226   5.738   4.333  10.986  0.1113 -0.0858  0.0671
   15loPI    C3  227   5.909   4.556  11.271  0.3353 -0.2483  0.0624
   15loPI   PO4  228   6.002   4.711  10.635  0.0141  0.1120  0.0542
   15loPI   GL1  229   6.147   4.774  10.277  0.4070 -0.2044  0.0389
   15loPI   GL2  230   6.511   4.850  10.309 -0.4757 -0.1176 -0.0186
   15loPI   C1A  231   6.241   4.696   9.844  0.0937  0.0748 -0.2343
   15loPI   C2A  232   6.313   4.659   9.335  0.0253 -0.0243  0.0332
   15loPI   C3A  233   6.401   4.678   8.915 -0.0614 -0.1243 -0.1730
   15loPI   C4A  234   6.436   4.569   8.512  0.0594 -0.0695 -0.2114
   15loPI   C5A  235   6.650   4.216   8.364 -0.1472 -0.0156  0.2118
   15loPI   C6A  236   6.614   3.741   8.397  0.0380 -0.4111 -0.1445
   15loPI   C1B  237   6.785   4.737   9.984 -0.1969 -0.0880  0.0218
   15loPI   C2B  238   6.869   4.672   9.579 -0.2512  0.2771  0.0123
   15loPI   C3B  239   6.839   4.569   9.123 -0.3023 -0.1623  0.2716
   15loPI   C4B  240   6.903   4.519   8.678  0.0074  0.0687 -0.2921
   16loPI    C1  241  11.736   5.780  11.021 -0.0794  0.0913 -0.0482
   16loPI    C2  242  12.057   5.738  11.256 -0.0222  0.0227 -0.1377
   16loPI    C3  243  11.723   5.905  11.401  0.1089  0.2501 -0.0922
   16loPI   PO4  244  11.793   5.857  10.784 -0.3163 -0.3939 -0.0148
   16loPI   GL1  245  11.632   6.153  10.401 -0.2445  0.2249 -0.0543
   16loPI   GL2  246  11.875   5.896  10.227  0.2691 -0.3694 -0.3950
   16loPI   C1A  247  11.455   6.162   9.960 -0.2582 -0.0799  0.1189
   16loPI   C2A  248  11.530   6.127   9.596 -0.0761 -0.2393  0.1596
   16loPI   C3A  249  11.620   5.992   9.225 -0.0762 -0.0547  0.3066
   16loPI   C4A  250  11.579   5.928   8.763  0.1458  0.0029  0.4512
   16loPI   C5A  251  11.517   6.112   8.431 -0.3161  0.2414  0.1359
   16loPI   C6A  252  11.694   6.412   8.199 -0.1233 -0.1934  0.0226
   16loPI   C1B  253  12.020   6.069   9.875 -0.2974 -0.0371  0.3885
   16loPI   C2B  254  12.100   6.068   9.391  0.0307  0.1250  0.0543
   16loPI   C3B  255  12.064   6.083   9.050  0.1001 -0.2141 -0.0804
   16loPI   C4B  256  12.053   5.876   8.743  0.0289 -0.0041 -0.1491
   17loPI    C1  257  15.920   8.537  10.786 -0.0324 -0.0318 -0.0835
   17loPI    C2  258  15.896   8.905  10.942 -0.1783  0.0260 -0.2379
   17loPI    C3  259  15.694   8.603  11.109 -0.0156  0.0034 -0.0789
   17loPI   PO4  260  15.803   8.544  10.416  0.1128  0.2992  0.2614
   17loPI   GL1  261  15.357   8.593  10.270 -0.0918 -0.0047  0.0969
   17loPI   GL2  262  15.516   8.869  10.230  0.1926 -0.2288  0.1629
   17loPI   C1A  263  15.121   8.522  10.004 -0.1101 -0.0533  0.0772
   17loPI   C2A  264  15.241   8.367   9.667 -0.0258  0.1909 -0.2008
   17loPI   C3A  265  15.329   8.343   9.267 -0.0989 -0.1689  0.1197
   17loPI   C4A  266  15.271   8.587   8.924 -0.1317  0.0555  0.1667
   17loPI   C5A  267  15.203   8.723   8.494 -0.2114  0.1811 -0.1646
   17loPI   C6A  268  14.953   8.719   8.150  0.1660 -0.0582  0.2459
   17loPI   C1B  269  15.258   8.980   9.927  0.0563  0.0491 -0.4784
   17loPI   C2B  270  14.944   8.802   9.631 -0.2269  0.2529  0.1410
   17loPI   C3B  271  14.865   8.636   9.260 -0.1762  0.0626  0.0551
   17loPI   C4B  272  14.715   8.678   8.856  0.0193 -0.0650  0.2673
   18loPI    C1  273   1.743  10.394  10.601 -0.2387  0.0950  0.0915
   18loPI    C2  274   2.089  10.586  10.664 -0.2704  0.0854  0.3037
   18loPI    C3  275   1.843  10.512  10.970 -0.4087 -0.0083  0.1716
   18loPI   PO4  276   1.700  10.618  10.316  0.3105  0.0900  0.0886
   18loPI   GL1  277   1.989  10.612  10.035 -0.0405 -0.1739  0.0601
   18loPI   GL2  278   1.731  10.477   9.799  0.1953 -0.4516  0.0208
   18loPI   C1A  279   2.216  10.469   9.722 -0.0515 -0.1934  0.0325
   18loPI   C2A  280   2.452  10.457   9.366  0.2010  0.1138  0.1480
   18loPI   C3A  281   2.436  10.253   8.948 -0.1782  0.2257  0.0880
   18loPI   C4A  282   2.386  10.211   8.633 -0.3020 -0.0732 -0.0587
   18loPI   C5A  283   2.422  10.371   8.371 -0.1437 -0.0535 -0.0839
   18loPI   C6A  284   2.388  10.764   8.275  0.2685 -0.2908 -0.2007
   18loPI   C1B  285   1.694  10.513   9.371 -0.1194 -0.1456 -0.2788
   18loPI   C2B  286   1.579  10.522   8.932 -0.0127  0.2356 -0.1101
   18loPI   C3B  287   1.517  10.468   8.465  0.2327  0.1108  0.1369
   18loPI   C4B  288   1.639  10.569   7.988 -0.0147  0.1042 -0.2412
   19loPI    C1  289  18.164  12.369  10.248 -0.0278 -0.2066 -0.0805
   19loPI    C2  290  18.524  12.278  10.397  0.0144  0.1193  0.0245
   19loPI    C3  291  18.221  12.362  10.644 -0.1552 -0.2186 -0.0617
   19loPI   PO4  292  18.097  12.213  10.070  0.2003 -0.0781  0.2520
   19loPI   GL1  293  18.092  11.945   9.682 -0.0535 -0.0258 -0.1718
   19loPI   GL2  294  17.858  11.682   9.641  0.0285 -0.1605 -0.1790
   19loPI   C1A  295  17.985  11.997   9.234 -0.0302 -0.0108 -0.2182
   19loPI   C2A  296  17.981  11.985   8.919  0.2325 -0.1406 -0.1496
   19loPI   C3A  297  17.956  11.723   8.601  0.2872 -0.2160  0.0060
   19loPI   C4A  298  18.194  11.467   8.324 -0.0306  0.1043 -0.2106
   19loPI   C5A  299  18.258  11.074   8.257  0.0429 -0.1845  0.1858
   19loPI   C6A  300  18.597  10.898   8.485  0.0528 -0.0427  0.0832
   19loPI   C1B  301  17.919  11.480   9.268  0.0919 -0.2230 -0.1144
   19loPI   C2B  302  17.776  11.319   8.845  0.1113 -0.1503 -0.1736
   19loPI   C3B  303  17.852  11.167   8.544  0.0189  0.2357 -0.2621
   19loPI   C4B  304  17.799  11.197   8.175 -0.2950 -0.0901  0.0509
   20loPI    C1  305   5.190  17.548   9.831 -0.0000  0.1612  0.1652
   20loPI    C2  306   4.882  17.315   9.937  0.0794  0.1313  0.3332
   20loPI    C3  307   5.175  17.391  10.199  0.1761  0.2234  0.1997
   20loPI   PO4  308   5.065  17.628   9.580 -0.2689  0.1025 -0.2202
   20loPI   GL1  309   5.232  17.622   9.158 -0.2982  0.2306 -0.4196
   20loPI   GL2  310   5.148  17.314   9.165 -0.1148  0.2452  0.3088
   20loPI   C1A  311   5.147  17.544   8.732  0.0454 -0.2080 -0.1468
   20loPI   C2A  312   5.076  17.456   8.235  0.2065  0.0615 -0.3723
   20loPI   C3A  313   5.058  17.533   7.760 -0.0121  0.0409  0.0577
   20loPI   C4A  314   5.503  17.709   7.513 -0.0899 -0.2885  0.2244
   20loPI   C5A  315   6.016  17.708   7.685 -0.0929 -0.3747  0.1837
   20loPI   C6A  316   6.345  17.368   7.515 -0.2698 -0.2895 -0.0329
   20loPI   C1B  317   5.264  17.030   8.829 -0.0816  0.0634 -0.0331
   20loPI   C2B  318   5.010  17.003   8.371  0.1910 -0.4278 -0.0450
   20loPI   C3B  319   5.010  17.080   7.948  0.2234 -0.0291 -0.0112
   20loPI   C4B  320   5.372  17.163   7.608 -0.2168  0.1958  0.3917
   21loPI    C1  321   5.370   0.995  10.039  0.0189  0.1364 -0.0825
   21loPI    C2  322   5.185   1.213  10.318 -0.1635 -0.0336 -0.0688
   21loPI    C3  323   5.167   0.814  10.331  0.0047 -0.0467 -0.2041
   21loPI   PO4  324   5.293   1.039   9.853 -0.1806 -0.4306 -0.0367
   21loPI   GL1  325   5.088   0.897   9.464 -0.1514  0.1345 -0.2255
   21loPI   GL2  326   5.152   1.320   9.462 -0.0777  0.0147  0.1627
   21loPI   C1A  327   5.105   0.929   9.080  0.0737 -0.1236 -0.2851
   21loPI   C2A  328   5.127   0.941   8.577 -0.3989  0.2699 -0.3046
   21loPI   C3A  329   5.265   1.102   8.188  0.1387 -0.2362 -0.2647
   21loPI   C4A  330   5.223   1.156   7.787 -0.2762  0.1667 -0.2463
   21loPI   C5A  331   5.154   1.423   7.441 -0.1047 -0.2718  0.0717
   21loPI   C6A  332   5.269   1.565   6.973 -0.0304 -0.2962 -0.0893
   21loPI   C1B  333   5.496   1.204   9.221 -0.1537  0.0342 -0.3623
   21loPI   C2B  334   5.353   1.323   8.845  0.1361  0.1980  0.1079
   21loPI   C3B  335   5.542   1.522   8.488  0.0342 -0.0109 -0.5532
   21loPI   C4B  336   5.517   1.513   8.107 -0.2239 -0.2156 -0.2005
   22loPI    C1  337   9.934  14.928  10.418  0.5119 -0.0775  0.1792
   22loPI    C2  338   9.902  14.845  10.028  0.0360 -0.0493  0.2061
   22loPI    C3  339   9.874  14.551  10.299  0.0384 -0.0251  0.2326
   22loPI   PO4  340   9.775  15.197  10.426  0.2369 -0.0763 -0.3119
   22loPI   GL1  341   9.771  15.386  10.065 -0.3548  0.1529 -0.2931
   22loPI   GL2  342   9.527  15.403   9.859 -0.1567 -0.2423  0.0480
   22loPI   C1A  343  10.026  15.258   9.613  0.0746  0.1114 -0.0121
   22loPI   C2A  344  10.009  15.333   9.176 -0.0039 -0.1080 -0.3911
   22loPI   C3A  345   9.966  15.468   8.784 -0.0296 -0.0893 -0.0658
   22loPI   C4A  346   9.990  15.290   8.375  0.3485 -0.0269 -0.0040
   22loPI   C5A  347  10.243  15.318   8.042 -0.1401  0.1132 -0.4337
   22loPI   C6A  348  10.612  15.526   7.992 -0.1021 -0.2787  0.0150
   22loPI   C1B  349   9.390  15.376   9.458 -0.2183  0.4812 -0.1969
   22loPI   C2B  350   9.510  15.132   9.141 -0.1448 -0.1603  0.1330
   22loPI   C3B  351   9.801  14.992   8.778  0.2353  0.0750  0.0873
   22loPI   C4B  352   9.784  14.856   8.216  0.1981 -0.1873 -0.0547
   23loPI    C1  353   9.525  17.081  10.653 -0.0863 -0.1864  0.0639
   23loPI    C2  354   9.193  17.299  10.608 -0.1002 -0.1875  0.1587
   23loPI    C3  355   9.323  17.204  10.975  0.1435  0.0253  0.1303
   23loPI   PO4  356   9.584  16.923  10.401 -0.0901 -0.1513  0.3323
   23loPI   GL1  357   9.547  16.867   9.933  0.0280 -0.0208 -0.2263
   23loPI   GL2  358   9.582  17.186   9.827 -0.1363  0.1661  0.0491
   23loPI   C1A  359   9.473  16.865   9.475 -0.3220 -0.2168 -0.1071
   23loPI   C2A  360   9.593  16.992   8.969 -0.3913 -0.0880  0.1745
   23loPI   C3A  361   9.652  16.899   8.547 -0.0736 -0.2950 -0.3358
   23loPI   C4A  362   9.974  16.888   8.311  0.3913 -0.2933  0.0909
   23loPI   C5A  363  10.126  17.051   8.087 -0.0464  0.1276  0.2848
   23loPI   C6A  364  10.075  17.397   7.928  0.0986  0.1800  0.1590
   23loPI   C1B  365   9.824  17.230   9.351 -0.0809  0.1289  0.1532
   23loPI   C2B  366  10.065  17.307   9.010 -0.0141  0.1193 -0.1004
   23loPI   C3B  367  10.022  17.383   8.639 -0.0256 -0.0761 -0.1943
   23loPI   C4B  368   9.809  17.450   8.352 -0.1234  0.2360 -0.1380
   24loPI    C1  369   4.330  16.018   9.587 -0.0054  0.0967  0.0930
   24loPI    C2  370   3.985  15.830   9.660 -0.0463  0.1802  0.1144
   24loPI    C3  371   4.231  15.921   9.962  0.0624 -0.0085  0.0844
   24loPI   PO4  372   4.282  16.144   9.337  0.0967 -0.2069 -0.5044
   24loPI   GL1  373   4.178  16.188   8.931  0.2016  0.2595  0.2013
   24loPI   GL2  374   4.020  16.332   8.787  0.2674  0.3617 -0.3810
   24loPI   C1A  375   4.172  15.895   8.535  0.0855  0.1421  0.0018
   24loPI   C2A  376   4.167  15.511   8.212 -0.3005  0.2032  0.0699
   24loPI   C3A  377   4.343  15.303   7.818 -0.3055 -0.1730 -0.0229
   24loPI   C4A  378   4.404  14.876   7.704  0.1660 -0.3210  0.0298
   24loPI   C5A  379   4.195  14.556   7.585  0.0271 -0.1317 -0.0305
   24loPI   C6A  380   4.199  14.287   7.240 -0.0234  0.0996 -0.0536
   24loPI   C1B  381   3.885  16.418   8.362 -0.0636 -0.1155 -0.0416
   24loPI   C2B  382   3.794  16.424   8.008 -0.0521  0.1551 -0.1626
   24loPI   C3B  383   3.541  16.190   7.778 -0.3886  0.0277 -0.3017
   24loPI   C4B  384   3.400  16.416   7.468  0.1086  0.1163  0.0916
   25loPI    C1  385  16.738   8.285  10.821 -0.0529 -0.1795 -0.3021
   25loPI    C2  386  16.684   7.898  10.907 -0.0234 -0.1164  0.0110
   25loPI    C3  387  16.618   8.177  11.187 -0.0125  0.1039 -0.2026
   25loPI   PO4  388  16.688   8.319  10.541 -0.0012 -0.1825 -0.1690
   25loPI   GL1  389  16.493   8.304  10.187  0.0693 -0.0979  0.2329
   25loPI   GL2  390  16.160   8.285  10.159  0.0298 -0.0006  0.1508
   25loPI   C1A  391  16.554   8.294   9.747  0.1738 -0.0653  0.1677
   25loPI   C2A  392  16.341   8.273   9.433 -0.1505 -0.0385  0.4647
   25loPI   C3A  393  16.235   8.400   9.069 -0.3688  0.1233 -0.0822
   25loPI   C4A  394  16.182   8.538   8.681  0.2139 -0.2408 -0.3384
   25loPI   C5A  395  15.889   8.546   8.494  0.3804  0.0257  0.0244
   25loPI   C6A  396  15.607   8.681   8.182  0.1625 -0.1932  0.1843
   25loPI   C1B  397  15.946   8.359   9.781 -0.1137  0.0783 -0.0632
   25loPI   C2B  398  15.805   8.411   9.395 -0.2054 -0.0263  0.0136
   25loPI   C3B  399  15.716   8.297   8.995 -0.0416  0.0308  0.0771
   25loPI   C4B  400  15.421   8.174   8.596 -0.1054 -0.2674  0.0715
   26loPI    C1  401   2.924  16.620   9.289 -0.1287 -0.1541 -0.2395
   26loPI    C2  402   3.290  16.493   9.389 -0.0597  0.2170  0.0014
   26loPI    C3  403   2.971  16.363   9.592 -0.0930 -0.2729 -0.3447
   26loPI   PO4  404   2.839  16.579   9.082 -0.1836  0.1947 -0.2648
   26loPI   GL1  405   2.761  16.973   8.735 -0.0340 -0.2690 -0.2269
   26loPI   GL2  406   2.561  17.193   8.749 -0.2465 -0.1683  0.4621
   26loPI   C1A  407   2.966  16.627   8.423  0.0748  0.0171 -0.1480
   26loPI   C2A  408   3.338  16.492   8.271 -0.0163 -0.2459  0.1423
   26loPI   C3A  409   3.170  16.516   7.959 -0.1285 -0.0725  0.1840
   26loPI   C4A  410   2.889  16.712   7.896 -0.0534  0.2383  0.2354
   26loPI   C5A  411   2.711  16.934   7.670  0.0029  0.0545 -0.2616
   26loPI   C6A  412   2.345  16.964   7.452  0.1324  0.1221 -0.0316
   26loPI   C1B  413   2.290  17.213   8.487  0.1144 -0.1589  0.0582
   26loPI   C2B  414   2.114  16.964   8.090  0.0818  0.2243  0.2363
   26loPI   C3B  415   2.119  16.713   7.830  0.2582 -0.2189 -0.2385
   26loPI   C4B  416   1.897  16.806   7.445 -0.0606 -0.1074 -0.1088
   27loPI    C1  417   7.213   5.013  10.850 -0.0124  0.1857  0.1094
   27loPI    C2  418   6.845   4.949  10.706  0.1157 -0.2003 -0.0600
   27loPI    C3  419   6.974   4.744  11.024  0.1768 -0.0490  0.0136
   27loPI   PO4  420   7.346   5.252  10.679 -0.0878 -0.1786 -0.0385
   27loPI   GL1  421   7.409   5.334  10.333 -0.1340 -0.1064  0.1817
   27loPI   GL2  422   7.679   5.181  10.094 -0.0816 -0.1190 -0.0816
   27loPI   C1A  423   7.551   5.682  10.083 -0.1838 -0.0061  0.0866
   27loPI   C2A  424   7.521   5.630   9.648 -0.0428 -0.1219  0.0871
   27loPI   C3A  425   7.550   5.615   9.242  0.1215  0.0816 -0.1457
   27loPI   C4A  426   7.447   5.514   8.880  0.3313  0.0506 -0.0974
   27loPI   C5A  427   7.613   5.558   8.486  0.1153 -0.3299 -0.3325
   27loPI   C6A  428   7.837   5.451   8.106 -0.0428  0.0067 -0.0846
   27loPI   C1B  429   7.693   5.206   9.598 -0.0353  0.0207  0.1940
   27loPI   C2B  430   7.690   5.054   9.249  0.0533 -0.1042 -0.1147
   27loPI   C3B  431   7.708   5.088   8.761 -0.1359  0.1799 -0.0504
   27loPI   C4B  432   7.852   5.001   8.349 -0.1308 -0.0837 -0.2222
   28loPI    C1  433   1.563   8.523  10.954  0.0113  0.1107 -0.0391
   28loPI    C2  434   1.273   8.344  11.164 -0.0169 -0.0861 -0.2422
   28loPI    C3  435   1.436   8.683  11.298 -0.1701 -0.1045 -0.0030
   28loPI   PO4  436   1.349   8.378  10.602 -0.2282 -0.1048  0.0725
   28loPI   GL1  437   1.515   8.185  10.184 -0.0206 -0.2779  0.5839
   28loPI   GL2  438   1.809   8.443  10.166  0.0609  0.0801 -0.0359
   28loPI   C1A  439   1.258   8.422   9.873 -0.3132  0.0629 -0.2194
   28loPI   C2A  440   1.204   8.479   9.449 -0.0143  0.2222  0.2781
   28loPI   C3A  441   1.422   8.578   9.052  0.0360  0.3254  0.3609
   28loPI   C4A  442   1.534   8.617   8.665 -0.3814  0.4729 -0.1228
   28loPI   C5A  443   1.281   8.581   8.273 -0.1992 -0.1272  0.0909
   28loPI   C6A  444   1.006   8.665   8.045 -0.2469  0.0537  0.0945
   28loPI   C1B  445   1.771   8.371   9.731  0.2518 -0.0355 -0.1589
   28loPI   C2B  446   1.776   8.430   9.298  0.5920  0.0243 -0.2179
   28loPI   C3B  447   1.794   8.244   8.889  0.1369  0.1120  0.1095
   28loPI   C4B  448   1.965   8.333   8.414 -0.2463  0.1366  0.2204
   29loPI    C1  449   6.421  14.578  10.290  0.0801 -0.3528  0.2657
   29loPI    C2  450   6.391  14.239  10.499 -0.2742 -0.2956  0.3140
   29loPI    C3  451   6.184  14.562  10.612 -0.1766 -0.1529  0.0912
   29loPI   PO4  452   6.471  14.466  10.051  0.2259  0.1286 -0.0161
   29loPI   GL1  453   6.359  14.227   9.643  0.0248  0.2153  0.1632
   29loPI   GL2  454   6.038  14.408   9.586 -0.1500  0.1299  0.1956
   29loPI   C1A  455   6.396  14.053   9.271  0.1890 -0.1127 -0.2167
   29loPI   C2A  456   6.467  13.979   8.761  0.0229  0.1804  0.2798
   29loPI   C3A  457   6.283  14.100   8.387  0.1456 -0.2202  0.1301
   29loPI   C4A  458   6.561  14.128   8.061 -0.0509  0.3806 -0.3056
   29loPI   C5A  459   6.545  14.044   7.714 -0.0159  0.1320  0.1260
   29loPI   C6A  460   6.792  13.981   7.386  0.0927 -0.0880  0.0054
   29loPI   C1B  461   5.937  14.391   9.224 -0.0651 -0.1994 -0.0725
   29loPI   C2B  462   5.971  14.454   8.690 -0.0706 -0.0997  0.0546
   29loPI   C3B  463   5.828  14.216   8.261  0.1106 -0.1772 -0.1095
   29loPI   C4B  464   5.443  14.332   8.007  0.4091 -0.1540 -0.0594
   30loPI    C1  465  13.763   5.558  10.653  0.6342 -0.3600  0.2172
   30loPI    C2  466  13.675   5.823  10.940 -0.3479 -0.1250 -0.2592
   30loPI    C3  467  13.794   5.454  11.038 -0.2632  0.0720  0.4329
   30loPI   PO4  468  13.713   5.637  10.343 -0.0614  0.2570 -0.0453
   30loPI   GL1  469  13.475   5.771  10.008  0.1492 -0.0609  0.1782
   30loPI   GL2  470  13.402   5.450   9.913  0.0550 -0.4561  0.0308
   30loPI   C1A  471  13.361   5.936   9.632  0.1842  0.1216  0.0258
   30loPI   C2A  472  13.354   5.773   9.154 -0.0919 -0.2587 -0.1305
   30loPI   C3A  473  13.214   5.582   8.791  0.0369  0.1569  0.1509
   30loPI   C4A  474  13.140   5.745   8.442  0.0198  0.1023 -0.0412
   30loPI   C5A  475  13.200   6.112   8.176  0.0263  0.1484 -0.0965
   30loPI   C6A  476  12.912   6.459   8.096 -0.2425 -0.0618 -0.3813
   30loPI   C1B  477  13.373   5.424   9.492 -0.0254  0.2094  0.0428
   30loPI   C2B  478  13.319   5.209   9.229 -0.3206  0.2268  0.0233
   30loPI   C3B  479  12.987   5.089   9.031  0.3415  0.0374  0.2683
   30loPI   C4B  480  12.959   4.605   8.809  0.3314 -0.0746  0.1434
   31loPI    C1  481  13.549   9.731  10.551 -0.0940  0.1840 -0.0662
   31loPI    C2  482  13.187   9.748  10.720 -0.0477  0.2190  0.0301
   31loPI    C3  483  13.436   9.449  10.812  0.0050  0.2777  0.0799
   31loPI   PO4  484  13.537   9.867  10.343 -0.3698 -0.0490 -0.3840
   31loPI   GL1  485  13.562   9.897   9.918  0.2719 -0.0241  0.3549
   31loPI   GL2  486  13.682  10.247   9.838  0.0636 -0.0439 -0.0320
   31loPI   C1A  487  13.881   9.713   9.617  0.0939  0.0869  0.0099
   31loPI   C2A  488  13.834   9.675   9.012  0.0324 -0.0741 -0.1342
   31loPI   C3A  489  14.099   9.463   8.711  0.1628 -0.1862  0.0290
   31loPI   C4A  490  14.212   9.442   8.372  0.1003 -0.1791  0.0608
   31loPI   C5A  491  14.307   9.546   8.053 -0.1983  0.1557  0.0767
   31loPI   C6A  492  14.549   9.664   7.818 -0.1649  0.0356  0.0318
   31loPI   C1B  493  13.707  10.197   9.388 -0.2188  0.4023  0.0256
   31loPI   C2B  494  13.724  10.133   8.950  0.2471  0.0170  0.0527
   31loPI   C3B  495  13.626  10.110   8.565  0.1216 -0.0897 -0.2174
   31loPI   C4B  496  13.347  10.052   8.187 -0.3356 -0.0199  0.0667
   32loPI    C1  497   9.964  15.609  10.637 -0.0450  0.0396 -0.0004
   32loPI    C2  498  10.118  15.872  10.896  0.0594  0.0238 -0.0459
   32loPI    C3  499  10.161  15.479  10.960  0.1386  0.0203 -0.1184
   32loPI   PO4  500  10.048  15.743  10.357 -0.2151  0.2103  0.0369
   32loPI   GL1  501  10.095  15.685   9.878  0.2447  0.1059  0.1561
   32loPI   GL2  502   9.999  16.015   9.795  0.0814 -0.4340 -0.3836
   32loPI   C1A  503  10.322  15.592   9.443 -0.0105 -0.4490  0.1591
   32loPI   C2A  504  10.455  15.539   8.945  0.0739  0.1715 -0.0105
   32loPI   C3A  505  10.490  15.427   8.502  0.0430 -0.1957  0.0310
   32loPI   C4A  506  10.725  15.058   8.263 -0.3434  0.1611  0.2413
   32loPI   C5A  507  10.582  14.858   7.795  0.4219 -0.3242 -0.1468
   32loPI   C6A  508  10.477  14.766   7.393  0.1679  0.1752  0.2421
   32loPI   C1B  509   9.729  15.810   9.557  0.0063 -0.1101  0.0744
   32loPI   C2B  510   9.628  15.611   9.141 -0.1047 -0.0737  0.1492
   32loPI   C3B  511   9.441  15.454   8.813 -0.0107  0.1639 -0.1263
   32loPI   C4B  512   9.467  15.338   8.366  0.0668 -0.2901 -0.2699
   33loPI    C1  513   1.926   6.471  10.585 -0.0469  0.0201 -0.0286
   33loPI    C2  514   1.563   6.319  10.514 -0.0665  0.0114  0.0881
   33loPI    C3  515   1.722   6.294  10.880  0.1078 -0.1034  0.0057
   33loPI   PO4  516   1.978   6.609  10.300 -0.1076  0.1225 -0.3718
   33loPI   GL1  517   1.839   6.639   9.916 -0.0714  0.2079  0.1374
   33loPI   GL2  518   1.457   6.478   9.954 -0.1459  0.1620 -0.3045
   33loPI   C1A  519   1.857   6.628   9.353 -0.4107  0.0069  0.0463
   33loPI   C2A  520   1.825   6.756   8.852  0.3141  0.0144  0.1537
   33loPI   C3A  521   1.642   6.757   8.403  0.2731  0.0689 -0.2595
   33loPI   C4A  522   1.425   6.615   8.043  0.0681 -0.0497 -0.0591
   33loPI   C5A  523   1.223   6.530   7.646  0.2153 -0.1720 -0.1966
   33loPI   C6A  524   1.260   6.267   7.291 -0.2306  0.0184 -0.1341
   33loPI   C1B  525   1.408   6.891   9.561  0.0473  0.2546  0.0058
   33loPI   C2B  526   1.352   6.916   9.117  0.2183 -0.1908 -0.0429
   33loPI   C3B  527   1.244   6.958   8.752  0.2222  0.3634 -0.0765
   33loPI   C4B  528   1.191   7.048   8.350 -0.3660  0.3172 -0.0318
   34loPI    C1  529   9.214   7.971  10.844  0.0714  0.1215 -0.3808
   34loPI    C2  530   9.024   8.269  11.031  0.1074  0.1935 -0.4584
   34loPI    C3  531   8.814   7.993  10.831  0.0478 -0.0575 -0.0599
   34loPI   PO4  532   9.376   7.989  10.663  0.1508 -0.0631 -0.0481
   34loPI   GL1  533   9.352   7.750  10.219  0.3119  0.1254  0.1180
   34loPI   GL2  534   9.538   7.619  10.072 -0.0974 -0.3191  0.2093
   34loPI   C1A  535   9.207   8.009   9.899 -0.1401  0.1604 -0.0018
   34loPI   C2A  536   9.127   7.870   9.594 -0.0395 -0.0608 -0.0096
   34loPI   C3A  537   9.057   7.696   9.210 -0.1419  0.1314  0.0684
   34loPI   C4A  538   9.259   7.511   8.921  0.0302  0.0130 -0.0697
   34loPI   C5A  539   9.546   7.448   8.672  0.1304 -0.2591 -0.0057
   34loPI   C6A  540   9.771   7.254   8.366 -0.1476 -0.1181 -0.2000
   34loPI   C1B  541   9.479   7.554   9.692 -0.2293  0.0425 -0.0558
   34loPI   C2B  542   9.528   7.692   9.267 -0.0211 -0.0240 -0.2158
   34loPI   C3B  543   9.692   7.868   8.901 -0.0778 -0.0202  0.3936
   34loPI   C4B  544   9.802   7.856   8.391 -0.1574  0.1222 -0.3033
   35loPI    C1  545  18.265   3.131  10.290  0.1047  0.2445  0.1189
   35loPI    C2  546  18.176   2.858  10.568  0.1245  0.1247  0.0086
   35loPI    C3  547  18.039   3.232  10.605 -0.1925  0.0144 -0.0156
   35loPI   PO4  548  18.137   2.940  10.012  0.1143 -0.0152 -0.3105
   35loPI   GL1  549  18.137   2.887   9.582  0.1235  0.0554  0.0626
   35loPI   GL2  550  18.367   2.965   9.264  0.1444 -0.0298  0.3012
   35loPI   C1A  551  17.795   2.940   9.405  0.3411 -0.1308 -0.1005
   35loPI   C2A  552  17.781   3.083   8.971  0.4300 -0.0437  0.3083
   35loPI   C3A  553  17.814   3.121   8.595  0.2718 -0.0772 -0.1056
   35loPI   C4A  554  17.933   3.086   8.188 -0.0837 -0.2807 -0.1458
   35loPI   C5A  555  18.196   2.986   7.772 -0.1417 -0.0942  0.1478
   35loPI   C6A  556  18.590   3.154   7.545 -0.2037  0.2396 -0.0470
   35loPI   C1B  557  18.247   2.958   8.846  0.2237  0.1161  0.0235
   35loPI   C2B  558  18.301   2.990   8.467  0.2794  0.2429  0.1503
   35loPI   C3B  559  18.538   2.981   8.105 -0.1114  0.1099 -0.0968
   35loPI   C4B  560  18.892   2.947   7.970 -0.3390 -0.1910  0.1137
   36loPI    C1  561   5.013   2.679  10.179 -0.3076  0.0006  0.0360
   36loPI    C2  562   4.913   2.408  10.456 -0.1253  0.1580  0.2605
   36loPI    C3  563   4.750   2.773  10.466 -0.3814  0.0575 -0.0497
   36loPI   PO4  564   4.994   2.616   9.897  0.0001  0.1010  0.2909
   36loPI   GL1  565   5.193   2.618   9.425 -0.0473 -0.1954  0.0627
   36loPI   GL2  566   4.948   2.797   9.408  0.2444 -0.2264  0.1498
   36loPI   C1A  567   5.239   2.682   9.000 -0.0897 -0.2654  0.2200
   36loPI   C2A  568   5.064   2.701   8.639 -0.0539  0.1259  0.0341
   36loPI   C3A  569   4.871   2.811   8.249 -0.1392 -0.1651 -0.0809
   36loPI   C4A  570   4.671   2.874   7.911 -0.1401 -0.0914  0.1994
   36loPI   C5A  571   4.353   3.118   7.741  0.1667  0.1000  0.0854
   36loPI   C6A  572   4.337   3.466   7.495  0.1782 -0.0191 -0.2600
   36loPI   C1B  573   4.785   2.876   9.017  0.2667 -0.0112  0.0659
   36loPI   C2B  574   4.583   2.724   8.672 -0.1015  0.0831 -0.1261
   36loPI   C3B  575   4.266   2.784   8.361 -0.3452 -0.0194  0.1322
   36loPI   C4B  576   4.221   2.688   7.887 -0.0538 -0.2605  0.3179
   37loPI    C1  577  12.903  10.634  10.417  0.1770 -0.1128 -0.0740
   37loPI    C2  578  12.675  10.915  10.590  0.1618 -0.1845  0.0234
   37loPI    C3  579  12.673  10.540  10.731  0.1775 -0.2354 -0.1099
   37loPI   PO4  580  12.923  10.617  10.220 -0.4282  0.0362  0.2346
   37loPI   GL1  581  12.793  10.768   9.879  0.3334  0.3941  0.0468
   37loPI   GL2  582  12.432  10.666   9.744 -0.2068  0.1530 -0.0186
   37loPI   C1A  583  12.945  10.982   9.585 -0.3105  0.0970  0.0691
   37loPI   C2A  584  13.059  11.166   9.135 -0.1555  0.2892 -0.1359
   37loPI   C3A  585  13.155  11.081   8.739 -0.0543 -0.1935  0.1555
   37loPI   C4A  586  13.024  10.895   8.355 -0.4286  0.0843 -0.0683
   37loPI   C5A  587  12.956  10.435   8.188 -0.0692 -0.1590  0.1527
   37loPI   C6A  588  12.702  10.127   8.322  0.3726  0.1504 -0.3799
   37loPI   C1B  589  12.556  10.808   9.392 -0.3630  0.0718 -0.0799
   37loPI   C2B  590  12.652  10.735   8.995  0.0235 -0.1080 -0.1114
   37loPI   C3B  591  12.785  10.618   8.655  0.1630 -0.1287  0.1736
   37loPI   C4B  592  13.151  10.284   8.601  0.3524 -0.2390  0.1071
   38loPI    C1  593  10.320  12.954  10.169  0.0544 -0.0895 -0.1990
   38loPI    C2  594  10.320  13.048  10.558 -0.0111 -0.1234 -0.1907
   38loPI    C3  595  10.657  12.925  10.382  0.0197 -0.1039 -0.1455
   38loPI   PO4  596  10.029  12.867  10.125 -0.0929  0.1793  0.2290
   38loPI   GL1  597   9.896  12.729   9.795 -0.1094 -0.2604  0.0709
   38loPI   GL2  598   9.873  13.169   9.694  0.1204  0.0580 -0.0146
   38loPI   C1A  599   9.842  12.793   9.330  0.3004 -0.0690  0.1741
   38loPI   C2A  600   9.980  12.614   8.943 -0.2314 -0.2719 -0.1844
   38loPI   C3A  601   9.915  12.697   8.569 -0.0790 -0.1601  0.2981
   38loPI   C4A  602  10.122  12.693   8.133 -0.0736  0.0954  0.1578
   38loPI   C5A  603  10.157  12.399   7.758 -0.0857 -0.1591  0.1962
   38loPI   C6A  604   9.877  12.256   7.439  0.1236 -0.0944 -0.2602
   38loPI   C1B  605   9.647  13.245   9.363 -0.0030  0.1572 -0.1482
   38loPI   C2B  606   9.687  13.145   8.941  0.0133 -0.2031 -0.0357
   38loPI   C3B  607   9.802  13.192   8.543 -0.1385  0.1763 -0.0815
   38loPI   C4B  608  10.154  13.152   8.281 -0.0254  0.3472  0.0322
   39loPI    C1  609   9.335  15.453  10.366  0.3123  0.2509  0.0685
   39loPI    C2  610   9.419  15.522  10.752 -0.0500  0.0406  0.1897
   39loPI    C3  611   9.278  15.165  10.638  0.0352  0.1074 -0.1368
   39loPI   PO4  612   9.088  15.621  10.181 -0.2709 -0.2370  0.0574
   39loPI   GL1  613   9.124  15.769   9.784  0.3885  0.2418  0.1015
   39loPI   GL2  614   8.940  15.469   9.640 -0.1549 -0.0571  0.1383
   39loPI   C1A  615   9.311  15.913   9.363 -0.0135 -0.2675 -0.0901
   39loPI   C2A  616   9.014  16.109   9.088 -0.2271  0.2492  0.1514
   39loPI   C3A  617   8.947  16.270   8.615 -0.1823 -0.3647 -0.1537
   39loPI   C4A  618   9.191  16.117   8.169  0.1188 -0.1481 -0.2650
   39loPI   C5A  619   9.420  15.689   8.005  0.0570  0.1968  0.1099
   39loPI   C6A  620   9.775  15.344   7.936  0.2129 -0.1695  0.2500
   39loPI   C1B  621   8.953  15.580   9.194 -0.2523  0.0396 -0.0556
   39loPI   C2B  622   8.884  15.633   8.842  0.0428 -0.2884  0.2151
   39loPI   C3B  623   9.207  15.847   8.651 -0.2059 -0.0947  0.1772
   39loPI   C4B  624   9.655  15.880   8.399 -0.0192  0.0985  0.0328
   40loPI    C1  625   6.047  11.825  10.352 -0.1608  0.0155 -0.2241
   40loPI    C2  626   5.832  11.505  10.458 -0.1963  0.0244 -0.2683
   40loPI    C3  627   5.992  11.741  10.739 -0.1138 -0.0695 -0.2356
   40loPI   PO4  628   6.250  11.760  10.149 -0.0191  0.0452 -0.0688
   40loPI   GL1  629   6.287  11.601   9.790  0.3532  0.2649 -0.4032
   40loPI   GL2  630   6.164  11.986   9.765  0.0607  0.3453  0.1661
   40loPI   C1A  631   6.118  11.285   9.512  0.0961 -0.1387 -0.2902
   40loPI   C2A  632   5.942  11.247   9.013  0.1545  0.1555  0.2046
   40loPI   C3A  633   5.988  11.421   8.696  0.1834  0.3788 -0.1046
   40loPI   C4A  634   6.096  11.597   8.331 -0.0451 -0.2059  0.0754
   40loPI   C5A  635   6.438  11.803   8.144 -0.0342  0.0623  0.2471
   40loPI   C6A  636   6.930  11.758   8.118  0.1077 -0.3072  0.0257
   40loPI   C1B  637   6.201  12.101   9.297  0.1240  0.1367  0.1047
   40loPI   C2B  638   6.122  12.279   8.909  0.1455 -0.0330 -0.2481
   40loPI   C3B  639   6.313  12.578   8.650 -0.0027  0.0164 -0.0212
   40loPI   C4B  640   6.552  12.499   8.347  0.4643 -0.2059  0.1137
   41loPI    C1  641   5.997   7.855  10.861 -0.0118 -0.2090 -0.2378
   41loPI    C2  642   5.642   7.728  10.994  0.0621 -0.1585  0.0144
   41loPI    C3  643   5.946   7.774  11.249  0.0860  0.3599 -0.0958
   41loPI   PO4  644   5.947   8.068  10.759 -0.0266  0.1378 -0.1941
   41loPI   GL1  645   6.124   8.274  10.426  0.2676 -0.0926  0.3088
   41loPI   GL2  646   5.815   8.341  10.267 -0.3062 -0.2544  0.1183
   41loPI   C1A  647   6.429   8.169  10.061  0.1198  0.0104 -0.0227
   41loPI   C2A  648   6.591   7.810  10.049 -0.2642 -0.0073 -0.1801
   41loPI   C3A  649   6.761   7.587   9.670  0.2286  0.1235  0.0056
   41loPI   C4A  650   6.700   7.643   9.228  0.4017 -0.1332  0.1918
   41loPI   C5A  651   6.828   7.476   8.823  0.0708  0.0678  0.3081
   41loPI   C6A  652   6.962   7.691   8.449  0.3787  0.0855  0.1843
   41loPI   C1B  653   5.943   8.251   9.780  0.1149 -0.0663 -0.2299
   41loPI   C2B  654   5.913   8.211   9.363  0.0039  0.0742 -0.3577
   41loPI   C3B  655   5.954   8.210   8.927  0.2287  0.0636  0.4383
   41loPI   C4B  656   5.871   7.822   8.646 -0.0350  0.1920  0.1582
   42loPI    C1  657   9.444   9.028  10.477 -0.2390 -0.1531 -0.1522
   42loPI    C2  658   9.223   9.067  10.808  0.1024 -0.0485  0.0692
   42loPI    C3  659   9.469   9.362  10.695  0.0076 -0.0939 -0.2668
   42loPI   PO4  660   9.652   8.772  10.538  0.3429  0.1898 -0.0174
   42loPI   GL1  661   9.973   8.610  10.246  0.0390  0.1615 -0.0262
   42loPI   GL2  662   9.624   8.826  10.057 -0.0295  0.1441  0.0923
   42loPI   C1A  663  10.108   8.753   9.807 -0.2492  0.1583  0.1141
   42loPI   C2A  664   9.999   8.868   9.424  0.1862  0.1956  0.1399
   42loPI   C3A  665  10.070   8.782   9.067 -0.0164 -0.2326  0.0469
   42loPI   C4A  666  10.080   8.723   8.678 -0.1055  0.1361  0.1029
   42loPI   C5A  667  10.033   8.961   8.300  0.0776 -0.2415 -0.1862
   42loPI   C6A  668   9.961   8.856   7.863  0.2873 -0.1271  0.0341
   42loPI   C1B  669   9.609   8.507   9.716  0.2681 -0.2739 -0.1720
   42loPI   C2B  670   9.362   8.285   9.515 -0.3410  0.1762 -0.0624
   42loPI   C3B  671   9.019   8.227   9.205  0.0258 -0.1069 -0.0058
   42loPI   C4B  672   9.040   8.097   8.821 -0.1027 -0.0202 -0.0096
   43loPI    C1  673   2.936   0.145   9.648 -0.2188 -0.1119 -0.0057
   43loPI    C2  674   3.092  -0.138   9.884  0.1422  0.0252 -0.0735
   43loPI    C3  675   3.237   0.235   9.896 -0.1424  0.1423 -0.1869
   43loPI   PO4  676   2.876   0.000   9.466  0.5886  0.2231 -0.3343
   43loPI   GL1  677   2.870   0.040   9.136 -0.3249  0.1499  0.0497
   43loPI   GL2  678   3.028   0.268   8.941 -0.3070 -0.4984 -0.1939
   43loPI   C1A  679   2.901  -0.076   8.574 -0.1343  0.1664  0.2106
   43loPI   C2A  680   3.011   0.054   8.190  0.2904  0.0523 -0.0525
   43loPI   C3A  681   3.078   0.113   7.770 -0.5433 -0.3278 -0.2839
   43loPI   C4A  682   3.309   0.231   7.451 -0.1798 -0.0830  0.2892
   43loPI   C5A  683   3.381   0.121   7.043  0.0933  0.0598  0.1508
   43loPI   C6A  684   3.724   0.032   6.779 -0.1768  0.2068 -0.0334
   43loPI   C1B  685   3.143   0.454   8.607  0.2147  0.1273 -0.0536
   43loPI   C2B  686   3.274   0.462   8.167  0.0168 -0.1003 -0.0495
   43loPI   C3B  687   3.239   0.677   7.757 -0.1224  0.0049  0.0622
   43loPI   C4B  688   3.114   0.704   7.376  0.0032 -0.0411 -0.0323
   44loPI    C1  689   7.277  13.465  10.120  0.0988 -0.2581  0.2010
   44loPI    C2  690   7.069  13.807  10.110 -0.1436 -0.4079  0.0006
   44loPI    C3  691   7.362  13.759  10.378 -0.1236 -0.0541  0.0469
   44loPI   PO4  692   7.094  13.298  10.130 -0.0308 -0.2388 -0.3797
   44loPI   GL1  693   6.956  12.973   9.935  0.3220 -0.0613  0.2036
   44loPI   GL2  694   7.155  12.683   9.889  0.0312 -0.0820 -0.0215
   44loPI   C1A  695   6.837  13.057   9.521  0.1178 -0.0566  0.0685
   44loPI   C2A  696   6.936  13.087   9.128 -0.0946  0.1297 -0.0802
   44loPI   C3A  697   6.912  13.135   8.654 -0.0411 -0.0175 -0.0110
   44loPI   C4A  698   6.790  13.325   8.200 -0.1060  0.0660  0.0699
   44loPI   C5A  699   7.071  13.593   7.992  0.0095 -0.1185 -0.0978
   44loPI   C6A  700   7.256  13.802   7.669 -0.1531  0.0647  0.1934
   44loPI   C1B  701   7.157  12.253   9.760  0.2939  0.0709 -0.1219
   44loPI   C2B  702   7.279  11.965   9.431 -0.2586 -0.3535  0.1395
   44loPI   C3B  703   7.154  11.803   8.913  0.0034 -0.1935 -0.0729
   44loPI   C4B  704   6.799  11.752   8.623 -0.1237  0.0206 -0.1202
   45loPI    C1  705   6.341   5.892  10.368 -0.1732 -0.0491 -0.1151
   45loPI    C2  706   6.112   5.623  10.555  0.0008 -0.1271 -0.0115
   45loPI    C3  707   6.122   5.633  10.155 -0.0677 -0.2216 -0.0161
   45loPI   PO4  708   6.573   5.904  10.495 -0.1420 -0.3431  0.0407
   45loPI   GL1  709   6.812   6.091  10.200  0.0004 -0.3707 -0.0431
   45loPI   GL2  710   7.061   6.043  10.350 -0.0338 -0.0672  0.0122
   45loPI   C1A  711   6.737   6.122   9.705 -0.1585  0.0923  0.0222
   45loPI   C2A  712   6.721   6.078   9.213  0.0528  0.1650  0.1485
   45loPI   C3A  713   6.561   6.010   8.804  0.2662 -0.0722 -0.1807
   45loPI   C4A  714   6.813   5.815   8.393  0.1692 -0.1294  0.0041
   45loPI   C5A  715   6.843   5.457   8.208  0.2685  0.1355  0.2204
   45loPI   C6A  716   6.420   5.388   8.131  0.1588  0.4084 -0.1717
   45loPI   C1B  717   7.113   5.806   9.911  0.0041  0.0516  0.1674
   45loPI   C2B  718   6.982   5.713   9.443 -0.3186  0.1449  0.3179
   45loPI   C3B  719   6.644   5.619   9.101  0.2040 -0.0471 -0.1903
   45loPI   C4B  720   6.653   5.485   8.745 -0.0622 -0.1410 -0.0629
   46loPI    C1  721  10.198   3.651  10.662 -0.0729 -0.0138 -0.2462
   46loPI    C2  722  10.044   3.937  10.896  0.0484 -0.1755  0.0376
   46loPI    C3  723  10.022   3.554  11.009  0.3207 -0.2347 -0.1016
   46loPI   PO4  724  10.129   3.758  10.434 -0.1907  0.5504  0.0263
   46loPI   GL1  725   9.938   3.992  10.114 -0.2352 -0.0325  0.0244
   46loPI   GL2  726   9.921   3.666  10.019  0.1517 -0.0746 -0.0780
   46loPI   C1A  727  10.120   4.274   9.833 -0.2482 -0.1951 -0.0796
   46loPI   C2A  728  10.099   4.299   9.384  0.1626  0.0865 -0.0271
   46loPI   C3A  729  10.250   4.249   8.993 -0.1907 -0.0685 -0.3668
   46loPI   C4A  730  10.334   4.175   8.587 -0.0009 -0.1146 -0.1034
   46loPI   C5A  731  10.141   3.920   8.189  0.1514 -0.0372 -0.0552
   46loPI   C6A  732   9.751   3.773   8.011  0.3696 -0.0986 -0.0566
   46loPI   C1B  733   9.939   3.845   9.578 -0.3379  0.4448 -0.1827
   46loPI   C2B  734   9.874   3.933   9.136  0.2371  0.2612 -0.0683
   46loPI   C3B  735   9.833   4.019   8.753  0.1606  0.0045 -0.1482
   46loPI   C4B  736   9.825   3.600   8.487 -0.1306 -0.0389 -0.2901
   47loPI    C1  737   0.704   2.841   9.979 -0.2464  0.1677  0.1907
   47loPI    C2  738   0.566   2.486   9.858  0.0269  0.1286 -0.0160
   47loPI    C3  739   0.637   2.551  10.246 -0.0956 -0.0163  0.0318
   47loPI   PO4  740   0.618   3.079   9.817 -0.0597  0.0549  0.1827
   47loPI   GL1  741   0.677   3.304   9.398 -0.1214 -0.2935  0.0275
   47loPI   GL2  742   1.065   3.175   9.383 -0.1540  0.0690 -0.1640
   47loPI   C1A  743   0.275   3.386   9.194 -0.0445  0.2024 -0.2801
   47loPI   C2A  744   0.020   3.379   8.768  0.0458  0.1183  0.1474
   47loPI   C3A  745   0.046   3.451   8.405 -0.0576 -0.1596  0.3480
   47loPI   C4A  746  -0.081   3.428   7.949  0.1313  0.0710  0.0466
   47loPI   C5A  747  -0.421   3.418   7.667  0.0947  0.1429 -0.3332
   47loPI   C6A  748  -0.781   3.253   7.658 -0.1775 -0.3318  0.0398
   47loPI   C1B  749   0.907   3.200   8.973  0.0267  0.0547 -0.2181
   47loPI   C2B  750   0.858   3.435   8.613 -0.0844 -0.0074 -0.0125
   47loPI   C3B  751   0.780   3.740   8.273 -0.2547  0.1227  0.1216
   47loPI   C4B  752   0.777   3.828   7.800  0.1662 -0.1945 -0.1741
   48loPI    C1  753   6.764   3.055  10.423  0.0515 -0.2002  0.1207
   48loPI    C2  754   6.729   3.219  10.785  0.1779  0.3414 -0.1027
   48loPI    C3  755   6.753   2.822  10.748 -0.2268  0.2530  0.4477
   48loPI   PO4  756   6.955   3.196  10.297  0.1388 -0.1148  0.1295
   48loPI   GL1  757   6.965   3.519   9.984 -0.2570  0.0318 -0.1998
   48loPI   GL2  758   6.732   3.462   9.897  0.6524 -0.0559 -0.2693
   48loPI   C1A  759   7.321   3.636   9.743  0.1340  0.0228  0.0308
   48loPI   C2A  760   7.303   3.613   9.243 -0.4174  0.0480  0.3796
   48loPI   C3A  761   7.371   3.664   8.827 -0.2076  0.1111 -0.0263
   48loPI   C4A  762   7.173   3.586   8.439  0.3557 -0.1871  0.0656
   48loPI   C5A  763   6.875   3.377   8.241 -0.1700 -0.2501  0.0169
   48loPI   C6A  764   6.951   3.045   7.938  0.0489  0.0917  0.0366
   48loPI   C1B  765   6.925   3.370   9.563 -0.2152 -0.0439  0.1674
   48loPI   C2B  766   6.964   3.146   9.248 -0.1183 -0.2438 -0.1445
   48loPI   C3B  767   7.189   3.160   8.922 -0.0210  0.0584 -0.3992
   48loPI   C4B  768   7.182   3.090   8.524  0.0759  0.2340  0.0452
   49loPI    C1  769  11.202  14.992   9.917  0.2106 -0.3117 -0.0046
   49loPI    C2  770  11.166  14.608  10.025  0.0247 -0.2180  0.2767
   49loPI    C3  771  10.890  14.776   9.789  0.0584 -0.2322  0.2269
   49loPI   PO4  772  11.424  15.061   9.937  0.1230 -0.0642  0.2391
   49loPI   GL1  773  11.652  15.240   9.620  0.0716 -0.1071  0.0857
   49loPI   GL2  774  11.982  15.338   9.380 -0.3979  0.0033  0.0457
   49loPI   C1A  775  11.429  15.350   9.250 -0.1268  0.0821 -0.0900
   49loPI   C2A  776  11.419  15.364   8.885  0.3278 -0.0759 -0.1493
   49loPI   C3A  777  11.463  15.467   8.474  0.2753 -0.0031 -0.2483
   49loPI   C4A  778  11.421  15.445   8.036 -0.1158  0.2399 -0.1577
   49loPI   C5A  779  11.530  15.477   7.681 -0.3526 -0.1760  0.1074
   49loPI   C6A  780  11.398  15.786   7.377  0.1413  0.4207  0.1070
   49loPI   C1B  781  11.849  15.159   9.068 -0.0937  0.2414 -0.0105
   49loPI   C2B  782  11.935  15.171   8.765  0.0743  0.0230  0.0675
   49loPI   C3B  783  12.234  15.344   8.457  0.1945 -0.1583  0.4683
   49loPI   C4B  784  12.336  15.169   8.145  0.1471 -0.2093  0.0054
   50loPI    C1  785  17.327  12.998  10.329 -0.2073  0.1350  0.0479
   50loPI    C2  786  17.649  13.234  10.299 -0.0432 -0.1060 -0.1194
   50loPI    C3  787  17.431  13.235  10.634  0.0414  0.1725 -0.0630
   50loPI   PO4  788  17.383  12.861  10.087  0.2839 -0.1424  0.0005
   50loPI   GL1  789  17.639  12.838   9.660  0.0522 -0.3178 -0.4309
   50loPI   GL2  790  17.783  13.158   9.740 -0.1023  0.0803 -0.0877
   50loPI   C1A  791  17.433  12.648   9.312 -0.3233 -0.0761  0.1154
   50loPI   C2A  792  17.571  12.306   9.036 -0.2349 -0.0929  0.1749
   50loPI   C3A  793  17.552  12.245   8.663 -0.0298 -0.0658 -0.0482
   50loPI   C4A  794  17.613  11.943   8.347  0.0339  0.2045  0.1552
   50loPI   C5A  795  17.893  11.795   8.100 -0.0493 -0.1475 -0.2052
   50loPI   C6A  796  18.135  11.406   7.860 -0.0670  0.2391 -0.1695
   50loPI   C1B  797  17.529  13.248   9.429 -0.3181  0.2250 -0.0423
   50loPI   C2B  798  17.465  13.085   9.061 -0.3164 -0.1251 -0.0655
   50loPI   C3B  799  17.408  12.961   8.791 -0.0837  0.1011  0.1065
   50loPI   C4B  800  17.268  12.951   8.490 -0.1431 -0.3494  0.0848
   51loPI    C1  801  13.299  14.844  10.152 -0.2847 -0.0770  0.2108
   51loPI    C2  802  13.626  15.021  10.298 -0.1416  0.0282 -0.2218
   51loPI    C3  803  13.264  15.152  10.404 -0.0432  0.1072  0.0243
   51loPI   PO4  804  13.300  14.815   9.837  0.0112 -0.1736  0.1483
   51loPI   GL1  805  13.505  14.902   9.452  0.1387 -0.1179 -0.0248
   51loPI   GL2  806  13.216  15.124   9.445  0.2180  0.2725 -0.0738
   51loPI   C1A  807  13.946  14.763   9.375 -0.0868 -0.0389 -0.0861
   51loPI   C2A  808  14.085  14.620   9.036  0.1375 -0.0176  0.0785
   51loPI   C3A  809  14.104  14.539   8.639  0.1399  0.1860 -0.0366
   51loPI   C4A  810  14.226  14.529   8.159 -0.0579 -0.2918  0.0581
   51loPI   C5A  811  14.370  14.379   7.768 -0.3854  0.1243 -0.0624
   51loPI   C6A  812  14.551  14.214   7.346 -0.1196  0.1959 -0.0569
   51loPI   C1B  813  13.203  14.876   9.027 -0.1485 -0.2670  0.2236
   51loPI   C2B  814  13.011  14.841   8.663  0.0722 -0.0094  0.2745
   51loPI   C3B  815  13.060  14.776   8.323 -0.2444  0.0009  0.0833
   51loPI   C4B  816  13.253  14.717   7.919 -0.1322 -0.0650 -0.1173
   52loPI    C1  817  13.744  17.298  10.145  0.0325 -0.0910 -0.0681
   52loPI    C2  818  13.747  16.959  10.358 -0.0400 -0.1016 -0.0838
   52loPI    C3  819  14.026  17.239  10.423  0.0142 -0.1599 -0.0639
   52loPI   PO4  820  13.595  17.142   9.877 -0.0411  0.0237  0.1354
   52loPI   GL1  821  13.849  17.183   9.514 -0.1259  0.1321  0.0435
   52loPI   GL2  822  13.706  17.476   9.345  0.0473 -0.0661 -0.0873
   52loPI   C1A  823  13.754  16.969   9.019  0.0878 -0.2718 -0.2260
   52loPI   C2A  824  13.671  17.141   8.711  0.1270 -0.1144 -0.2565
   52loPI   C3A  825  13.533  17.503   8.610 -0.3764  0.1693  0.2697
   52loPI   C4A  826  13.273  17.684   8.216  0.0088 -0.0712 -0.2433
   52loPI   C5A  827  12.929  17.879   8.031 -0.2716  0.0357 -0.2324
   52loPI   C6A  828  12.824  17.975   7.580  0.1794  0.0475  0.1967
   52loPI   C1B  829  13.773  17.654   9.008 -0.0180 -0.0214 -0.0003
   52loPI   C2B  830  13.808  17.883   8.638  0.0616 -0.3024 -0.0815
   52loPI   C3B  831  13.535  18.090   8.295 -0.0362 -0.1201  0.4622
   52loPI   C4B  832  13.794  18.126   7.880 -0.1135 -0.0144 -0.2746
   53loPI    C1  833   4.013   7.270  10.683 -0.4193  0.0257  0.0490
   53loPI    C2  834   3.783   6.953  10.767 -0.1290 -0.1694  0.1200
   53loPI    C3  835   4.182   6.916  10.760 -0.0990  0.1485 -0.0716
   53loPI   PO4  836   3.908   7.318  10.427 -0.1868  0.1061 -0.3441
   53loPI   GL1  837   4.103   7.251  10.050  0.1288  0.1063 -0.0847
   53loPI   GL2  838   4.124   7.530   9.915  0.0119 -0.0954  0.1826
   53loPI   C1A  839   3.819   7.034   9.771 -0.1183  0.0743  0.1324
   53loPI   C2A  840   3.501   6.943   9.372 -0.0330  0.1683  0.1153
   53loPI   C3A  841   3.158   6.816   8.908 -0.2592 -0.2074  0.2282
   53loPI   C4A  842   3.204   6.820   8.446 -0.0884  0.5153  0.0845
   53loPI   C5A  843   3.139   6.771   8.056  0.1475 -0.4140  0.0240
   53loPI   C6A  844   3.247   6.579   7.766 -0.2286 -0.3520  0.0881
   53loPI   C1B  845   4.112   7.403   9.491 -0.4519 -0.1354 -0.1611
   53loPI   C2B  846   4.058   7.324   9.140 -0.0910  0.2552 -0.0941
   53loPI   C3B  847   3.723   7.065   8.904 -0.3226  0.0024  0.1164
   53loPI   C4B  848   3.685   6.888   8.500 -0.0308  0.0642  0.0160
   54loPI    C1  849  13.129   1.845  10.472  0.0732  0.0540  0.2000
   54loPI    C2  850  13.157   1.720  10.851 -0.0761 -0.1058  0.1598
   54loPI    C3  851  12.814   1.675  10.650 -0.0435  0.1117  0.0513
   54loPI   PO4  852  13.356   1.769  10.289 -0.2605 -0.2913 -0.1237
   54loPI   GL1  853  13.199   2.066  10.013  0.0302 -0.0955 -0.2688
   54loPI   GL2  854  13.521   2.026   9.922 -0.1289  0.0099  0.1332
   54loPI   C1A  855  13.202   2.267   9.612 -0.0128 -0.0307  0.1619
   54loPI   C2A  856  13.338   2.305   9.173 -0.0150  0.0556 -0.0290
   54loPI   C3A  857  13.485   2.632   8.785  0.2701 -0.3022 -0.1781
   54loPI   C4A  858  13.469   2.976   8.420  0.0579  0.1408  0.0555
   54loPI   C5A  859  13.632   3.228   8.383 -0.0137 -0.2790  0.1583
   54loPI   C6A  860  13.877   3.486   8.152  0.3020 -0.3176  0.0699
   54loPI   C1B  861  13.501   1.827   9.575 -0.0106  0.0031 -0.0327
   54loPI   C2B  862  13.355   1.837   9.174  0.0296 -0.0286  0.0267
   54loPI   C3B  863  13.450   1.771   8.772 -0.1540  0.1284 -0.0641
   54loPI   C4B  864  13.171   1.672   8.405 -0.0143  0.2490  0.1318
   55loPI    C1  865   0.752   1.492   9.809  0.1644  0.1685 -0.0551
   55loPI    C2  866   0.395   1.604   9.951  0.1514  0.0587 -0.0003
   55loPI    C3  867   0.509   1.221   9.974  0.2815  0.0968  0.0013
   55loPI   PO4  868   0.765   1.608   9.588 -0.0437  0.0342 -0.1892
   55loPI   GL1  869   0.824   1.472   9.237  0.0772  0.2047  0.0551
   55loPI   GL2  870   0.941   1.482   8.899 -0.1705 -0.0226 -0.1226
   55loPI   C1A  871   0.491   1.578   8.959  0.1476 -0.1019  0.2651
   55loPI   C2A  872   0.369   1.360   8.525  0.0425 -0.1803  0.0135
   55loPI   C3A  873   0.569   1.359   8.070 -0.0820  0.5813  0.1565
   55loPI   C4A  874   0.529   1.326   7.597 -0.3186 -0.2844 -0.1343
   55loPI   C5A  875   0.310   1.285   7.165 -0.0911  0.0060  0.0231
   55loPI   C6A  876   0.079   1.164   6.942  0.0734  0.0970 -0.0053
   55loPI   C1B  877   0.964   1.513   8.419 -0.0790 -0.0140 -0.0116
   55loPI   C2B  878   1.021   1.563   8.000  0.4353  0.1382  0.3332
   55loPI   C3B  879   0.955   1.669   7.543 -0.3771  0.1694 -0.2163
   55loPI   C4B  880   0.620   1.800   7.347  0.1406  0.0409 -0.4154
   56loPI    C1  881  15.434   1.322  10.117  0.0465  0.4388  0.1535
   56loPI    C2  882  15.619   1.598   9.894  0.2275  0.2465  0.0629
   56loPI    C3  883  15.776   1.232   9.931 -0.1830  0.0485 -0.0927
   56loPI   PO4  884  15.208   1.276  10.006 -0.1483  0.0694 -0.0780
   56loPI   GL1  885  14.965   1.232   9.707 -0.1871  0.0523 -0.3439
   56loPI   GL2  886  14.710   1.247   9.484 -0.1739  0.0562  0.1620
   56loPI   C1A  887  15.051   1.602   9.492  0.0335 -0.0477  0.0282
   56loPI   C2A  888  14.907   1.613   9.149 -0.1656 -0.2742 -0.1091
   56loPI   C3A  889  14.602   1.681   8.841  0.1418  0.0180 -0.1696
   56loPI   C4A  890  14.365   1.797   8.427 -0.0328  0.0651 -0.0749
   56loPI   C5A  891  14.080   1.699   8.070 -0.1718  0.0529 -0.0838
   56loPI   C6A  892  13.888   1.269   7.983  0.0785 -0.0537  0.0988
   56loPI   C1B  893  14.421   1.541   9.465 -0.3139  0.0013 -0.2156
   56loPI   C2B  894  14.232   1.895   9.227  0.0851 -0.1223  0.0859
   56loPI   C3B  895  14.377   2.102   8.822 -0.2041 -0.0518 -0.2418
   56loPI   C4B  896  14.120   2.407   8.521  0.0626  0.4785  0.4045
   57loPI    C1  897  11.472   3.210  10.893  0.0581 -0.0044 -0.1492
   57loPI    C2  898  11.446   3.518  11.147  0.0464 -0.2252  0.1228
   57loPI    C3  899  11.262   3.174  11.232  0.0508 -0.3060 -0.1835
   57loPI   PO4  900  11.601   3.267  10.725 -0.0909  0.2280 -0.4752
   57loPI   GL1  901  11.463   3.229  10.297  0.0544 -0.0913  0.0367
   57loPI   GL2  902  11.366   3.466  10.249  0.0405  0.3263  0.0873
   57loPI   C1A  903  11.504   3.277   9.801 -0.1296 -0.0739  0.1003
   57loPI   C2A  904  11.633   3.537   9.506 -0.0116 -0.1920  0.0785
   57loPI   C3A  905  11.401   3.476   9.184 -0.1049  0.0269  0.0763
   57loPI   C4A  906  11.372   3.706   8.842  0.0903  0.1412 -0.4272
   57loPI   C5A  907  11.321   3.723   8.470 -0.1213  0.2426  0.2642
   57loPI   C6A  908  11.753   3.764   8.291  0.1231 -0.1487  0.0943
   57loPI   C1B  909  11.407   3.791  10.172 -0.1883  0.0267 -0.1839
   57loPI   C2B  910  11.562   4.039   9.819  0.1810  0.0958 -0.1172
   57loPI   C3B  911  11.561   4.029   9.393 -0.1268 -0.2993 -0.1000
   57loPI   C4B  912  11.758   4.019   9.091  0.0898 -0.1258 -0.2003
   58loPI    C1  913   4.842   9.336  10.816 -0.0724  0.1660 -0.1115
   58loPI    C2  914   4.667   9.695  10.843 -0.0910  0.1712 -0.2911
   58loPI    C3  915   5.063   9.662  10.887 -0.1121  0.1863 -0.0811
   58loPI   PO4  916   4.763   9.250  10.562  0.2915  0.0261  0.0845
   58loPI   GL1  917   4.811   9.248  10.086 -0.2134 -0.0929  0.1828
   58loPI   GL2  918   4.557   9.116  10.114 -0.2629 -0.1573  0.0828
   58loPI   C1A  919   4.890   9.338   9.680  0.0162  0.2884 -0.4276
   58loPI   C2A  920   4.889   9.276   9.251 -0.0734 -0.3977 -0.0501
   58loPI   C3A  921   5.149   9.418   8.919 -0.0510 -0.1908 -0.1796
   58loPI   C4A  922   5.275   9.417   8.491 -0.1547 -0.1685  0.1232
   58loPI   C5A  923   5.244   9.120   8.205  0.0099  0.0934 -0.1731
   58loPI   C6A  924   5.201   9.092   7.797 -0.1511  0.1033 -0.0202
   58loPI   C1B  925   4.310   9.301   9.752  0.2957 -0.1224  0.1717
   58loPI   C2B  926   4.355   9.419   9.371 -0.1235 -0.0723 -0.0915
   58loPI   C3B  927   4.457   9.333   8.952  0.0144  0.1262  0.2935
   58loPI   C4B  928   4.431   9.413   8.516 -0.0700 -0.1166 -0.4388
   59loPI    C1  929   3.756   3.845  10.107  0.1013 -0.0166 -0.1608
   59loPI    C2  930   3.819   4.119  10.392 -0.5068  0.2771 -0.2926
   59loPI    C3  931   3.614   3.786  10.477 -0.0856  0.0278 -0.2246
   59loPI   PO4  932   4.016   3.765   9.969  0.1793 -0.1452  0.3443
   59loPI   GL1  933   4.092   3.738   9.517 -0.3670  0.1427  0.2338
   59loPI   GL2  934   4.303   3.886   9.609  0.2725  0.1124 -0.0133
   59loPI   C1A  935   4.310   3.798   9.128 -0.3123  0.0775 -0.0527
   59loPI   C2A  936   4.276   3.919   8.667  0.0204 -0.4296 -0.0832
   59loPI   C3A  937   4.149   3.738   8.404  0.1255 -0.0286  0.2843
   59loPI   C4A  938   4.115   3.529   8.014  0.2783 -0.1013  0.0144
   59loPI   C5A  939   3.926   3.816   7.683  0.0472 -0.3545  0.0721
   59loPI   C6A  940   4.067   4.220   7.552  0.1263 -0.0840  0.0494
   59loPI   C1B  941   4.006   4.232   9.367 -0.1953  0.1587  0.1916
   59loPI   C2B  942   3.964   4.224   9.007 -0.1945  0.1049 -0.1701
   59loPI   C3B  943   3.963   4.265   8.619 -0.1202 -0.1142  0.1954
   59loPI   C4B  944   4.128   4.203   8.120 -0.0511 -0.3584  0.1256
   60loPI    C1  945  13.095   9.182  10.948 -0.1244 -0.1138 -0.0981
   60loPI    C2  946  13.241   8.830  11.073 -0.0119 -0.0467 -0.0387
   60loPI    C3  947  13.384   9.171  11.225 -0.1104  0.0256 -0.1069
   60loPI   PO4  948  13.068   9.114  10.691  0.3607  0.2672 -0.3439
   60loPI   GL1  949  13.180   9.287  10.310 -0.4298  0.2641 -0.1451
   60loPI   GL2  950  13.562   9.300  10.235  0.0932 -0.1195 -0.0236
   60loPI   C1A  951  13.190   8.921  10.020 -0.0837 -0.1557  0.0252
   60loPI   C2A  952  12.922   8.743   9.810  0.1891  0.2810  0.1758
   60loPI   C3A  953  12.942   8.640   9.354 -0.1301  0.1661 -0.0945
   60loPI   C4A  954  12.856   8.452   8.957  0.2631  0.1343 -0.0219
   60loPI   C5A  955  13.187   8.369   8.619 -0.2505 -0.2145 -0.1443
   60loPI   C6A  956  13.417   8.683   8.380 -0.0352 -0.1382 -0.0768
   60loPI   C1B  957  13.570   9.374   9.777  0.0093  0.1406 -0.0311
   60loPI   C2B  958  13.484   9.608   9.387  0.2767 -0.1317  0.0919
   60loPI   C3B  959  13.218   9.450   9.092 -0.2244  0.3015 -0.2254
   60loPI   C4B  960  13.158   9.246   8.632  0.1170 -0.0466  0.1175
   61loPI    C1  961  15.828  15.236  10.089 -0.1039 -0.1649  0.1475
   61loPI    C2  962  16.174  15.262  10.288 -0.0216  0.0285 -0.0166
   61loPI    C3  963  15.829  15.244  10.489  0.0645  0.1444  0.1446
   61loPI   PO4  964  15.724  15.465  10.033 -0.0329 -0.1934  0.1245
   61loPI   GL1  965  15.477  15.629   9.675 -0.0216 -0.0820  0.2185
   61loPI   GL2  966  15.210  15.520   9.562 -0.0868  0.4039 -0.0307
   61loPI   C1A  967  15.660  15.601   9.265 -0.1167 -0.0217 -0.1701
   61loPI   C2A  968  15.717  15.487   8.835 -0.1485 -0.3705  0.0830
   61loPI   C3A  969  15.725  15.284   8.360 -0.1074  0.0330 -0.2130
   61loPI   C4A  970  15.601  15.191   7.911  0.2933 -0.1231  0.3271
   61loPI   C5A  971  15.703  14.884   7.595  0.0988 -0.3480 -0.0718
   61loPI   C6A  972  15.384  14.673   7.512  0.1004 -0.0238  0.1299
   61loPI   C1B  973  15.248  15.404   9.177 -0.2312  0.2600  0.1012
   61loPI   C2B  974  15.223  15.322   8.777  0.2625 -0.0179  0.4369
   61loPI   C3B  975  15.236  15.471   8.232 -0.0137 -0.0545 -0.2578
   61loPI   C4B  976  15.174  15.589   7.866  0.3532  0.0883 -0.4482
   62loPI    C1  977  14.485  10.231  10.694  0.1114 -0.0016 -0.0832
   62loPI    C2  978  14.437   9.845  10.788 -0.0868  0.0505  0.0344
   62loPI    C3  979  14.734  10.056  10.954  0.0541 -0.0638 -0.0702
   62loPI   PO4  980  14.362  10.180  10.410  0.1670  0.1130 -0.4110
   62loPI   GL1  981  14.530  10.254  10.030  0.0433  0.0692 -0.3761
   62loPI   GL2  982  14.717  10.468   9.912 -0.0991 -0.0740 -0.0094
   62loPI   C1A  983  14.659   9.908   9.784  0.0058 -0.0083  0.3211
   62loPI   C2A  984  14.753   9.832   9.350 -0.1681 -0.1169 -0.0057
   62loPI   C3A  985  14.880   9.935   8.913  0.2671 -0.1125  0.0554
   62loPI   C4A  986  15.056   9.817   8.543  0.1926 -0.1139  0.0313
   62loPI   C5A  987  15.445   9.830   8.425  0.1426  0.0035 -0.2004
   62loPI   C6A  988  15.535   9.818   8.070  0.1605 -0.1024  0.1108
   62loPI   C1B  989  14.791  10.353   9.591 -0.0316  0.2264  0.0403
   62loPI   C2B  990  14.839  10.314   9.190 -0.1304  0.2475  0.1747
   62loPI   C3B  991  14.648  10.344   8.760  0.0789 -0.0019 -0.2075
   62loPI   C4B  992  14.992  10.313   8.424  0.1026 -0.4311 -0.3459
   63loPI    C1  993   8.616   8.599  10.897  0.2976 -0.0520  0.0482
   63loPI    C2  994   8.954   8.746  11.051  0.2559 -0.0891  0.1766
   63loPI    C3  995   8.691   8.560  11.288  0.0650  0.0906  0.1094
   63loPI   PO4  996   8.666   8.479  10.655 -0.3096 -0.2198 -0.0105
   63loPI   GL1  997   8.632   8.613  10.329  0.2529 -0.1477 -0.0679
   63loPI   GL2  998   8.304   8.745  10.335  0.4130 -0.1022  0.0651
   63loPI   C1A  999   8.705   8.271  10.021 -0.2703 -0.2013  0.1596
   63loPI   C2A 1000   8.675   8.302   9.602  0.0716  0.3004 -0.1189
   63loPI   C3A 1001   8.562   8.331   9.280 -0.2143 -0.1544  0.1785
   63loPI   C4A 1002   8.704   8.491   8.938 -0.0388 -0.0391  0.0655
   63loPI   C5A 1003   8.675   8.789   8.500 -0.0863  0.0499 -0.1375
   63loPI   C6A 1004   8.790   8.957   8.056 -0.3477  0.0689 -0.6821
   63loPI   C1B 1005   8.383   8.778   9.921 -0.1797 -0.0810  0.4741
   63loPI   C2B 1006   8.312   8.664   9.557  0.1355  0.1513 -0.0738
   63loPI   C3B 1007   8.177   8.643   9.273  0.0764  0.0654 -0.0076
   63loPI   C4B 1008   8.245   8.791   8.927  0.3190  0.4086  0.0532
   64loPI    C1 1009  13.618  12.734  10.140  0.0097 -0.1619  0.0222
   64loPI    C2 1010  13.729  12.935  10.467 -0.0041 -0.1820  0.0394
   64loPI    C3 1011  13.363  12.775  10.446 -0.1055  0.0632 -0.1017
   64loPI   PO4 1012  13.874  12.772  10.018 -0.1141 -0.0591  0.2649
   64loPI   GL1 1013  14.127  12.701   9.592 -0.0798 -0.1078 -0.2404
   64loPI   GL2 1014  13.853  12.627   9.538 -0.0223  0.1257 -0.2156
   64loPI   C1A 1015  14.009  12.557   9.131  0.1889  0.4867  0.0128
   64loPI   C2A 1016  13.966  12.509   8.733 -0.2400  0.0690  0.0545
   64loPI   C3A 1017  13.880  12.607   8.245  0.2951 -0.0859  0.0759
   64loPI   C4A 1018  13.793  12.924   7.909  0.0318  0.0452 -0.0037
   64loPI   C5A 1019  13.883  13.062   7.513 -0.0501 -0.2416 -0.0444
   64loPI   C6A 1020  13.607  13.188   7.213 -0.2072 -0.4383  0.1028
   64loPI   C1B 1021  13.546  12.573   9.317  0.0481 -0.0673  0.2386
   64loPI   C2B 1022  13.468  12.468   8.869 -0.0612 -0.1070  0.0535
   64loPI   C3B 1023  13.435  12.381   8.429  0.0259 -0.1835  0.0333
   64loPI   C4B 1024  13.457  12.200   7.996 -0.1260  0.0556  0.2285
   65loPI    C1 1025  14.448   1.319  10.662  0.0964  0.1735 -0.2893
   65loPI    C2 1026  14.755   1.439  10.888 -0.2196  0.0450  0.2262
   65loPI    C3 1027  14.770   1.085  10.702 -0.0302  0.0716  0.1882
   65loPI   PO4 1028  14.401   1.544  10.448 -0.2620  0.1530  0.0978
   65loPI   GL1 1029  14.334   1.645   9.976 -0.1895  0.2262  0.0353
   65loPI   GL2 1030  14.056   1.912   9.950  0.1908  0.0523  0.0889
   65loPI   C1A 1031  13.932   1.571   9.570  0.2087  0.1422 -0.0228
   65loPI   C2A 1032  13.844   1.581   9.091  0.2797 -0.2873 -0.0026
   65loPI   C3A 1033  14.004   1.658   8.809 -0.1314  0.1372 -0.1371
   65loPI   C4A 1034  13.895   1.958   8.447 -0.0738  0.0747  0.0017
   65loPI   C5A 1035  13.873   2.224   8.023 -0.3070  0.0850 -0.2638
   65loPI   C6A 1036  13.906   2.167   7.617 -0.0201  0.1157  0.1223
   65loPI   C1B 1037  14.035   2.156   9.635  0.1924  0.1950 -0.0442
   65loPI   C2B 1038  13.793   2.104   9.296  0.0754  0.3972  0.2675
   65loPI   C3B 1039  13.733   2.201   8.869 -0.1158  0.1583  0.2841
   65loPI   C4B 1040  13.498   2.266   8.419  0.0456 -0.4517  0.2878
   66loPI    C1 1041  17.910   8.962  10.855 -0.2358 -0.1718  0.0936
   66loPI    C2 1042  18.223   8.745  10.978  0.1573  0.3391  0.0342
   66loPI    C3 1043  18.054   9.011  11.225 -0.1943  0.1156  0.0421
   66loPI   PO4 1044  17.807   8.844  10.681 -0.1585  0.0950  0.2277
   66loPI   GL1 1045  17.561   8.971  10.250  0.1636  0.4423 -0.2116
   66loPI   GL2 1046  17.552   9.206  10.205  0.1222  0.2103 -0.2138
   66loPI   C1A 1047  17.447   8.707   9.986  0.0221  0.0398  0.0799
   66loPI   C2A 1048  17.317   8.740   9.530 -0.0341 -0.0420 -0.0251
   66loPI   C3A 1049  17.214   8.718   9.192 -0.0646  0.1532 -0.0692
   66loPI   C4A 1050  17.120   8.691   8.723  0.2561  0.1018 -0.1086
   66loPI   C5A 1051  17.056   8.738   8.373 -0.0110  0.0817  0.0886
   66loPI   C6A 1052  16.983   8.496   8.054 -0.1719 -0.2351 -0.2909
   66loPI   C1B 1053  17.226   9.144   9.816  0.3118 -0.0973  0.0271
   66loPI   C2B 1054  17.129   9.221   9.447 -0.2440 -0.1882 -0.0758
   66loPI   C3B 1055  17.007   9.188   9.043  0.2945 -0.0518 -0.0932
   66loPI   C4B 1056  17.116   9.228   8.625 -0.0896  0.0081 -0.3616
   67loPI    C1 1057  17.205  17.228  10.236  0.1274  0.0625 -0.3996
   67loPI    C2 1058  16.976  17.493  10.430 -0.0559 -0.3273 -0.0685
   67loPI    C3 1059  17.323  17.374  10.590  0.0249 -0.2907 -0.2148
   67loPI   PO4 1060  17.195  17.375   9.965  0.1961 -0.5195 -0.3334
   67loPI   GL1 1061  17.192  17.037   9.598 -0.0796  0.1006  0.0730
   67loPI   GL2 1062  17.370  16.734   9.550 -0.1069  0.0907 -0.0425
   67loPI   C1A 1063  16.960  17.169   9.277 -0.1210  0.1738 -0.1352
   67loPI   C2A 1064  16.700  17.299   8.991 -0.1825 -0.0942 -0.0399
   67loPI   C3A 1065  16.681  17.289   8.573  0.3020  0.1454  0.3178
   67loPI   C4A 1066  16.482  17.439   8.360  0.2734  0.1702 -0.0408
   67loPI   C5A 1067  16.481  17.374   7.898  0.2044  0.1243 -0.1744
   67loPI   C6A 1068  16.346  17.197   7.462 -0.1402 -0.1387 -0.3006
   67loPI   C1B 1069  17.264  16.865   9.072 -0.4894  0.0882 -0.1280
   67loPI   C2B 1070  17.034  16.936   8.765  0.0243  0.0391  0.0256
   67loPI   C3B 1071  16.901  16.971   8.307 -0.2222 -0.1502 -0.0726
   67loPI   C4B 1072  16.798  16.947   7.900  0.0058 -0.0875  0.0697
   68loPI    C1 1073  15.753   5.619  10.384 -0.1591 -0.0425 -0.0095
   68loPI    C2 1074  15.631   5.783  10.728  0.4252 -0.3936  0.3815
   68loPI    C3 1075  15.410   5.499  10.553 -0.0886  0.0830  0.2280
   68loPI   PO4 1076  16.067   5.591  10.352  0.0131  0.1682  0.1028
   68loPI   GL1 1077  16.199   5.648   9.967  0.1120 -0.0178 -0.2306
   68loPI   GL2 1078  16.384   5.905  10.006  0.3037  0.2365  0.0172
   68loPI   C1A 1079  16.307   5.461   9.494  0.2800  0.2032 -0.2126
   68loPI   C2A 1080  16.190   5.555   9.118  0.2370 -0.0081 -0.0201
   68loPI   C3A 1081  16.388   5.474   8.819 -0.2902  0.3088 -0.0810
   68loPI   C4A 1082  16.590   5.771   8.541  0.1363  0.3332 -0.1083
   68loPI   C5A 1083  16.887   6.013   8.378 -0.0110 -0.0743 -0.1446
   68loPI   C6A 1084  17.004   6.209   8.064  0.0677 -0.0888 -0.1601
   68loPI   C1B 1085  16.409   5.939   9.624  0.0064  0.0675 -0.0347
   68loPI   C2B 1086  16.525   5.962   9.180  0.1368 -0.4337 -0.2504
   68loPI   C3B 1087  16.200   5.986   8.811  0.1319 -0.3540 -0.1911
   68loPI   C4B 1088  15.965   5.742   8.471 -0.0830  0.0769 -0.4979
   69loPI    C1 1089   6.623  15.976  10.066  0.0836 -0.0410 -0.2113
   69loPI    C2 1090   6.280  15.776  10.118  0.1512 -0.2038 -0.3766
   69loPI    C3 1091   6.295  16.086   9.865  0.0360  0.0420 -0.0886
   69loPI   PO4 1092   6.770  15.772   9.927 -0.2287  0.1801  0.0128
   69loPI   GL1 1093   7.018  15.934   9.608  0.2255  0.0336  0.0556
   69loPI   GL2 1094   6.843  16.135   9.614  0.4411  0.3476  0.3335
   69loPI   C1A 1095   7.137  15.971   9.115  0.0027 -0.2767 -0.0712
   69loPI   C2A 1096   6.972  16.195   8.765 -0.0384 -0.0198 -0.1159
   69loPI   C3A 1097   6.999  16.270   8.323  0.2443 -0.0081  0.1537
   69loPI   C4A 1098   7.122  16.517   8.032  0.1158  0.1490  0.3467
   69loPI   C5A 1099   6.980  16.757   7.639  0.1499 -0.3138  0.1027
   69loPI   C6A 1100   6.865  17.038   7.317  0.2476  0.0280  0.2297
   69loPI   C1B 1101   6.664  16.191   9.187 -0.0709  0.1098  0.0973
   69loPI   C2B 1102   6.558  16.432   8.852 -0.0206 -0.1597 -0.3024
   69loPI   C3B 1103   6.609  16.565   8.390 -0.1508 -0.2941  0.1521
   69loPI   C4B 1104   6.817  16.909   8.205  0.4285  0.3293  0.0686
   70loPI    C1 1105   2.353  14.722   9.619 -0.0644  0.1489 -0.1614
   70loPI    C2 1106   2.189  14.796   9.976 -0.0626  0.0879 -0.1479
   70loPI    C3 1107   2.006  14.551   9.719  0.0078  0.0182 -0.1320
   70loPI   PO4 1108   2.570  14.610   9.638  0.2642 -0.1236  0.0016
   70loPI   GL1 1109   2.899  14.772   9.226  0.0945 -0.0884  0.1130
   70loPI   GL2 1110   2.615  14.844   9.143  0.0720 -0.0891 -0.0117
   70loPI   C1A 1111   3.055  14.498   8.919 -0.0459  0.0251 -0.0388
   70loPI   C2A 1112   3.408  14.291   8.818 -0.0821 -0.2080 -0.2940
   70loPI   C3A 1113   3.635  14.261   8.431 -0.1733 -0.2986 -0.0563
   70loPI   C4A 1114   3.830  14.251   8.006  0.1090 -0.1190  0.1792
   70loPI   C5A 1115   3.777  14.282   7.637 -0.4061  0.2184  0.0500
   70loPI   C6A 1116   3.757  14.388   7.255 -0.1472  0.0840 -0.0852
   70loPI   C1B 1117   2.819  14.851   8.720 -0.0788  0.0839  0.0656
   70loPI   C2B 1118   2.903  14.633   8.424  0.1042  0.1367 -0.3808
   70loPI   C3B 1119   3.148  14.243   8.339  0.3515  0.1406 -0.1938
   70loPI   C4B 1120   3.297  14.284   7.978 -0.2436  0.1554  0.1720
   71loPI    C1 1121   3.886   2.961  10.183  0.1419 -0.2807  0.3246
   71loPI    C2 1122   3.855   3.347  10.285 -0.2656 -0.1846 -0.1254
   71loPI    C3 1123   4.103   3.106  10.487 -0.3189  0.2103  0.4350
   71loPI   PO4 1124   3.950   2.930   9.769 -0.1216  0.2548  0.0319
   71loPI   GL1 1125   4.131   3.021   9.322  0.0031  0.0892 -0.4533
   71loPI   GL2 1126   3.977   3.301   9.264 -0.0273  0.0343 -0.0189
   71loPI   C1A 1127   4.069   2.969   8.839 -0.1237 -0.3591 -0.2316
   71loPI   C2A 1128   3.933   3.112   8.471  0.1389  0.1902  0.0096
   71loPI   C3A 1129   3.934   3.034   8.074 -0.0983 -0.3277  0.0442
   71loPI   C4A 1130   3.919   3.245   7.578  0.1062 -0.0343  0.0020
   71loPI   C5A 1131   3.800   3.243   7.172  0.0271 -0.1673  0.0059
   71loPI   C6A 1132   4.019   3.128   6.768  0.0390  0.1478  0.3853
   71loPI   C1B 1133   3.978   3.481   8.848  0.1479  0.1427 -0.1217
   71loPI   C2B 1134   3.698   3.520   8.361 -0.1886 -0.4792 -0.0576
   71loPI   C3B 1135   3.538   3.526   7.996  0.0590 -0.0376 -0.2073
   71loPI   C4B 1136   3.415   3.731   7.664  0.1533  0.3280  0.0614
   72loPI    C1 1137  15.743  13.532  10.340  0.1575 -0.4078 -0.2941
   72loPI    C2 1138  15.656  13.279  10.637  0.0933  0.0239  0.0660
   72loPI    C3 1139  16.013  13.458  10.625  0.0335  0.1381 -0.0222
   72loPI   PO4 1140  15.659  13.423  10.163 -0.0752 -0.2016  0.4804
   72loPI   GL1 1141  15.541  13.404   9.749  0.1052 -0.0677  0.1577
   72loPI   GL2 1142  15.687  13.641   9.501 -0.0611  0.3855  0.1879
   72loPI   C1A 1143  15.456  13.177   9.385  0.1507  0.0737  0.3969
   72loPI   C2A 1144  15.458  13.205   8.968 -0.2038 -0.1306  0.1818
   72loPI   C3A 1145  15.397  13.166   8.482  0.1184 -0.2217 -0.0734
   72loPI   C4A 1146  15.474  12.831   8.303 -0.1125  0.1656 -0.1256
   72loPI   C5A 1147  15.237  12.541   8.071  0.1497  0.0014  0.1790
   72loPI   C6A 1148  14.850  12.250   8.019 -0.2940  0.0546  0.1313
   72loPI   C1B 1149  15.857  13.647   9.042  0.1402 -0.1454  0.1930
   72loPI   C2B 1150  15.938  13.383   8.752 -0.0345 -0.3579 -0.1548
   72loPI   C3B 1151  15.898  13.411   8.397 -0.1215 -0.0961  0.3566
   72loPI   C4B 1152  15.632  13.347   8.041  0.1379  0.0009 -0.2894
   73loPI    C1 1153  11.273  15.515   9.972 -0.0466  0.1804 -0.2446
   73loPI    C2 1154  11.402  15.581  10.345  0.0615  0.2798 -0.2993
   73loPI    C3 1155  11.665  15.508  10.052 -0.0391 -0.1278 -0.2940
   73loPI   PO4 1156  11.079  15.707   9.945  0.1733  0.1926 -0.2804
   73loPI   GL1 1157  11.073  16.066   9.656 -0.4160  0.1044  0.1551
   73loPI   GL2 1158  10.718  15.914   9.639  0.0500  0.1914  0.1290
   73loPI   C1A 1159  11.075  16.148   9.245  0.0840  0.1297  0.2054
   73loPI   C2A 1160  11.075  16.402   8.950  0.2051  0.0108  0.2361
   73loPI   C3A 1161  11.116  16.402   8.547 -0.3076 -0.0862  0.2856
   73loPI   C4A 1162  10.844  16.539   8.252  0.0004  0.4074  0.0343
   73loPI   C5A 1163  10.861  16.958   8.068 -0.1497 -0.0748  0.0372
   73loPI   C6A 1164  10.679  17.207   7.859 -0.0720  0.2417  0.0509
   73loPI   C1B 1165  10.635  15.912   9.246 -0.0458 -0.0147  0.0609
   73loPI   C2B 1166  10.669  15.999   8.804  0.1005  0.1936 -0.3415
   73loPI   C3B 1167  10.892  15.929   8.554 -0.1706  0.0633  0.1146
   73loPI   C4B 1168  11.018  15.574   8.305  0.2174  0.0556 -0.2451
   74loPI    C1 1169   6.084   4.170  10.618  0.3014  0.1567  0.2465
   74loPI    C2 1170   6.165   3.785  10.549 -0.0863  0.0951  0.1089
   74loPI    C3 1171   5.977   3.892  10.885  0.1177  0.1788  0.1977
   74loPI   PO4 1172   6.068   4.257  10.380  0.2742  0.2240 -0.4424
   74loPI   GL1 1173   5.858   4.227  10.035  0.1305 -0.0858  0.2019
   74loPI   GL2 1174   5.786   3.902   9.821  0.0659 -0.0861  0.0765
   74loPI   C1A 1175   6.010   4.343   9.610  0.0390 -0.0117  0.1380
   74loPI   C2A 1176   6.098   4.207   9.146 -0.1115  0.0636  0.1305
   74loPI   C3A 1177   6.004   4.374   8.758 -0.3167 -0.2829  0.2948
   74loPI   C4A 1178   6.016   4.414   8.368 -0.1593  0.3002 -0.1466
   74loPI   C5A 1179   5.834   4.215   7.997  0.0807 -0.0880 -0.1364
   74loPI   C6A 1180   5.428   4.177   7.809  0.0248 -0.0635  0.1082
   74loPI   C1B 1181   5.799   3.840   9.364 -0.0228 -0.5452 -0.0150
   74loPI   C2B 1182   5.725   3.971   8.902  0.0998 -0.0599 -0.1477
   74loPI   C3B 1183   5.774   3.840   8.477  0.2507  0.2820 -0.0682
   74loPI   C4B 1184   5.566   3.741   8.044 -0.0865 -0.1684  0.0653
   75loPI    C1 1185  15.371   7.184  10.983  0.0395  0.1489 -0.2504
   75loPI    C2 1186  15.103   6.966  10.782 -0.1140 -0.0583  0.1659
   75loPI    C3 1187  14.995   7.315  10.944  0.0251  0.1375 -0.1514
   75loPI   PO4 1188  15.532   7.262  10.832  0.0777  0.1740 -0.1495
   75loPI   GL1 1189  15.526   7.404  10.394 -0.0873  0.1942  0.1696
   75loPI   GL2 1190  15.815   7.518  10.497  0.1790  0.1546 -0.2626
   75loPI   C1A 1191  15.723   7.397   9.988  0.1642 -0.3119  0.3490
   75loPI   C2A 1192  15.756   7.428   9.508  0.2793 -0.1535  0.1106
   75loPI   C3A 1193  15.783   7.305   9.042  0.3389 -0.0010  0.0200
   75loPI   C4A 1194  15.616   7.257   8.646 -0.1570 -0.1190 -0.0465
   75loPI   C5A 1195  15.475   7.380   8.383 -0.2122  0.0459 -0.0705
   75loPI   C6A 1196  15.285   7.016   8.169  0.0513 -0.3327  0.0501
   75loPI   C1B 1197  16.032   7.769  10.205  0.0168 -0.2539 -0.0181
   75loPI   C2B 1198  16.166   7.882   9.827  0.0852 -0.0351 -0.0571
   75loPI   C3B 1199  16.014   7.872   9.398  0.1551  0.4072  0.0044
   75loPI   C4B 1200  15.811   7.794   9.008 -0.2775 -0.1788 -0.0384
   76loPI    C1 1201   6.422  18.209   9.778 -0.0838 -0.0012 -0.0292
   76loPI    C2 1202   6.410  18.349  10.152  0.4442 -0.2372  0.0849
   76loPI    C3 1203   6.246  17.995  10.066 -0.1170  0.0370 -0.0212
   76loPI   PO4 1204   6.638  18.348   9.684 -0.0633 -0.0239 -0.3302
   76loPI   GL1 1205   6.874  18.115   9.436 -0.2568  0.1071 -0.1818
   76loPI   GL2 1206   6.532  17.869   9.378  0.0607  0.0453 -0.0410
   76loPI   C1A 1207   7.021  18.253   9.030  0.1879 -0.3567 -0.2183
   76loPI   C2A 1208   7.056  18.342   8.656 -0.0038  0.4142 -0.1299
   76loPI   C3A 1209   6.809  18.336   8.414  0.4160 -0.3767  0.1289
   76loPI   C4A 1210   6.647  18.269   8.050 -0.2479  0.0059  0.0032
   76loPI   C5A 1211   6.471  17.922   7.767 -0.3841 -0.1624 -0.0305
   76loPI   C6A 1212   6.420  17.877   7.285 -0.1994 -0.4878 -0.2493
   76loPI   C1B 1213   6.720  17.882   8.997  0.1522  0.2364 -0.0193
   76loPI   C2B 1214   6.599  17.933   8.556 -0.0656  0.0607 -0.1215
   76loPI   C3B 1215   6.311  17.955   8.218 -0.0645 -0.1969  0.3205
   76loPI   C4B 1216   6.190  18.372   8.026  0.3762 -0.1340 -0.0537
   77loPI    C1 1217   2.510   3.156   9.485  0.1254 -0.2574 -0.0231
   77loPI    C2 1218   2.690   3.148   9.842  0.1648  0.0386 -0.0331
   77loPI    C3 1219   2.324   2.992   9.798  0.2224 -0.1368  0.0992
   77loPI   PO4 1220   2.654   3.377   9.364  0.2233  0.0757 -0.0970
   77loPI   GL1 1221   2.831   3.086   9.020  0.1395  0.1585 -0.1408
   77loPI   GL2 1222   2.912   3.432   8.979 -0.3881 -0.0237 -0.4614
   77loPI   C1A 1223   2.835   3.088   8.607 -0.2371  0.1264 -0.1415
   77loPI   C2A 1224   2.647   3.260   8.271  0.1124  0.1888 -0.2434
   77loPI   C3A 1225   2.504   3.337   7.932  0.0178 -0.1596 -0.3278
   77loPI   C4A 1226   2.436   3.188   7.453  0.1643  0.1362 -0.2020
   77loPI   C5A 1227   2.456   3.142   7.062 -0.0865 -0.3987 -0.1902
   77loPI   C6A 1228   2.593   3.241   6.598 -0.0484 -0.3035 -0.1540
   77loPI   C1B 1229   2.758   3.701   8.603  0.0506 -0.1642 -0.5244
   77loPI   C2B 1230   2.726   3.744   8.215  0.0382  0.1930  0.0017
   77loPI   C3B 1231   2.827   3.876   7.851 -0.0499  0.0658  0.4544
   77loPI   C4B 1232   2.995   4.058   7.503  0.0687  0.1247 -0.0190
   78loPI    C1 1233  12.958  15.265  10.022 -0.1663 -0.3474 -0.0640
   78loPI    C2 1234  12.992  15.510  10.336  0.3208 -0.3316 -0.1214
   78loPI    C3 1235  12.632  15.432  10.182  0.1508  0.3401 -0.0976
   78loPI   PO4 1236  13.110  15.418   9.851 -0.0444  0.1256 -0.0792
   78loPI   GL1 1237  13.012  15.529   9.542  0.2178 -0.2060 -0.1071
   78loPI   GL2 1238  12.991  15.919   9.474 -0.3417  0.2596 -0.1276
   78loPI   C1A 1239  12.819  15.226   9.272  0.0062 -0.1948 -0.0314
   78loPI   C2A 1240  12.742  15.237   8.924 -0.2318 -0.2749  0.2608
   78loPI   C3A 1241  12.705  15.380   8.494  0.2163  0.1803 -0.3844
   78loPI   C4A 1242  12.848  15.204   8.182  0.1996 -0.1953  0.2353
   78loPI   C5A 1243  13.136  15.159   7.843  0.0588 -0.1019 -0.3224
   78loPI   C6A 1244  13.009  15.346   7.427  0.1695 -0.0431 -0.1252
   78loPI   C1B 1245  12.984  15.756   9.118 -0.0889 -0.2681 -0.3751
   78loPI   C2B 1246  12.982  15.787   8.593 -0.1405 -0.0686 -0.0927
   78loPI   C3B 1247  13.015  15.678   8.181  0.3387 -0.3714  0.0797
   78loPI   C4B 1248  13.134  15.722   7.737 -0.0852  0.1455  0.0154
   79loPI    C1 1249  11.100  11.174  10.702 -0.2766  0.1757  0.0128
   79loPI    C2 1250  11.351  11.072  10.996 -0.1280 -0.0401 -0.1859
   79loPI    C3 1251  11.242  11.454  10.951 -0.1211  0.0014  0.1227
   79loPI   PO4 1252  11.215  11.057  10.438 -0.2326 -0.1666  0.1485
   79loPI   GL1 1253  11.281  11.248  10.072  0.0982  0.1977  0.1477
   79loPI   GL2 1254  11.005  11.440  10.121 -0.5022 -0.0589  0.3795
   79loPI   C1A 1255  11.040  11.155   9.667 -0.1457 -0.0814  0.2239
   79loPI   C2A 1256  11.090  11.068   9.219  0.2432 -0.0025 -0.2157
   79loPI   C3A 1257  11.170  10.858   9.016 -0.0853  0.0644 -0.2828
   79loPI   C4A 1258  11.234  10.648   8.726 -0.0766 -0.0972 -0.3153
   79loPI   C5A 1259  11.480  10.638   8.345 -0.0304 -0.1548  0.1503
   79loPI   C6A 1260  11.485  10.380   8.060 -0.1668 -0.0292  0.0008
   79loPI   C1B 1261  11.162  11.692   9.929  0.1791 -0.0777  0.2262
   79loPI   C2B 1262  11.222  11.867   9.458 -0.1734 -0.0935 -0.2126
   79loPI   C3B 1263  11.097  11.926   9.064 -0.2475 -0.0380 -0.1329
   79loPI   C4B 1264  11.100  11.832   8.640  0.0049 -0.2349 -0.0040
   80loPI    C1 1265   2.592   8.014  10.758  0.6938 -0.0279  0.0431
   80loPI    C2 1266   2.616   8.219  11.101  0.0404  0.1095  0.0215
   80loPI    C3 1267   2.440   7.859  11.095  0.2516  0.0064 -0.1330
   80loPI   PO4 1268   2.447   8.210  10.597 -0.1133 -0.1197 -0.3473
   80loPI   GL1 1269   2.739   8.356  10.423  0.1672  0.2882  0.0443
   80loPI   GL2 1270   2.987   8.328  10.293  0.2251 -0.0036 -0.1080
   80loPI   C1A 1271   2.741   8.539   9.944  0.2743  0.2499 -0.1612
   80loPI   C2A 1272   2.726   8.556   9.564 -0.2935  0.0138 -0.0579
   80loPI   C3A 1273   2.781   8.652   9.113 -0.0979 -0.2631  0.3710
   80loPI   C4A 1274   2.835   8.695   8.716 -0.0591  0.0265 -0.1393
   80loPI   C5A 1275   2.765   8.898   8.345  0.2172  0.0909  0.1676
   80loPI   C6A 1276   2.747   8.813   7.906 -0.3890 -0.1184  0.2187
   80loPI   C1B 1277   3.230   8.597  10.065  0.2361  0.1810  0.3214
   80loPI   C2B 1278   3.084   8.876   9.809  0.2477 -0.2794 -0.0016
   80loPI   C3B 1279   3.108   9.038   9.481 -0.3190  0.1162  0.1550
   80loPI   C4B 1280   3.149   9.079   9.112  0.0772  0.2526 -0.1497
   81loPI    C1 1281  13.617   5.081  10.681  0.0128  0.1438  0.0766
   81loPI    C2 1282  13.307   4.879  10.834  0.1073 -0.0258  0.0478
   81loPI    C3 1283  13.643   4.922  11.047  0.0958  0.0834  0.0449
   81loPI   PO4 1284  13.535   4.947  10.382 -0.3464 -0.3274  0.0552
   81loPI   GL1 1285  13.585   4.970   9.995 -0.0619  0.0820 -0.0887
   81loPI   GL2 1286  13.268   4.787  10.018  0.2623  0.1386 -0.0833
   81loPI   C1A 1287  13.799   5.088   9.714  0.2292  0.0818  0.1244
   81loPI   C2A 1288  13.811   4.962   9.219 -0.2612  0.1361  0.0441
   81loPI   C3A 1289  14.023   4.879   8.651  0.0944  0.0902 -0.0283
   81loPI   C4A 1290  14.101   4.649   8.198  0.0781 -0.0193 -0.0161
   81loPI   C5A 1291  14.097   4.297   7.855 -0.1887  0.0476  0.4526
   81loPI   C6A 1292  14.246   4.340   7.340  0.0915 -0.1016 -0.0301
   81loPI   C1B 1293  12.898   4.977   9.876  0.1148 -0.2882  0.2571
   81loPI   C2B 1294  12.837   5.158   9.566  0.2196 -0.2326 -0.3196
   81loPI   C3B 1295  12.480   5.291   9.249  0.0350 -0.1967  0.1065
   81loPI   C4B 1296  12.234   5.645   9.152  0.0843  0.2408  0.2541
   82loPI    C1 1297   7.157   6.472  10.821 -0.0939 -0.0560 -0.0870
   82loPI    C2 1298   7.001   6.823  10.933  0.0074 -0.0826  0.1429
   82loPI    C3 1299   6.807   6.482  11.014  0.0074 -0.0925  0.1013
   82loPI   PO4 1300   7.173   6.501  10.568  0.2556 -0.1863 -0.2283
   82loPI   GL1 1301   7.429   6.367  10.322 -0.2432 -0.0457  0.4052
   82loPI   GL2 1302   7.787   6.108  10.349 -0.3937  0.2925 -0.0379
   82loPI   C1A 1303   7.701   6.548  10.006 -0.0811  0.1125 -0.0791
   82loPI   C2A 1304   7.693   6.545   9.596 -0.3223  0.2382  0.0944
   82loPI   C3A 1305   7.725   6.502   9.140  0.1420  0.2661 -0.2244
   82loPI   C4A 1306   7.575   6.441   8.781 -0.3533 -0.0067 -0.0959
   82loPI   C5A 1307   7.439   6.040   8.612  0.2356 -0.0708  0.3540
   82loPI   C6A 1308   7.646   5.978   8.172 -0.0880  0.1231 -0.1193
   82loPI   C1B 1309   7.738   6.074   9.889 -0.1242 -0.3065  0.1695
   82loPI   C2B 1310   7.879   6.071   9.493 -0.1635  0.1250  0.1016
   82loPI   C3B 1311   7.769   6.033   9.036  0.0070  0.0537  0.2258
   82loPI   C4B 1312   7.975   6.147   8.579  0.1681  0.0266 -0.1094
   83loPI    C1 1313  10.573   4.530  10.924 -0.0392  0.2824  0.2625
   83loPI    C2 1314  10.222   4.427  10.762  0.1803  0.2055 -0.1800
   83loPI    C3 1315  10.302   4.335  11.143 -0.1084 -0.1672 -0.2039
   83loPI   PO4 1316  10.746   4.451  10.658  0.1132  0.2375 -0.0264
   83loPI   GL1 1317  10.944   4.452  10.338  0.0872  0.0287  0.1296
   83loPI   GL2 1318  10.858   4.674  10.118 -0.0836  0.1390 -0.2635
   83loPI   C1A 1319  11.288   4.391   9.998  0.3295  0.2268 -0.0191
   83loPI   C2A 1320  11.272   4.380   9.560  0.0523 -0.1528  0.1275
   83loPI   C3A 1321  11.243   4.222   9.071  0.0421 -0.0425 -0.1821
   83loPI   C4A 1322  11.244   4.191   8.674 -0.2468 -0.0099 -0.0346
   83loPI   C5A 1323  11.153   4.577   8.453  0.0392  0.0535 -0.1164
   83loPI   C6A 1324  11.481   4.644   8.169 -0.1399  0.1506  0.1341
   83loPI   C1B 1325  10.924   4.716   9.654 -0.4282 -0.1756 -0.0002
   83loPI   C2B 1326  11.012   4.744   9.287  0.1287  0.0607  0.2319
   83loPI   C3B 1327  11.244   4.841   9.027  0.0609 -0.0326 -0.1883
   83loPI   C4B 1328  11.384   5.198   8.665 -0.1288 -0.0088 -0.4220
   84loPI    C1 1329   4.312  18.225   9.842 -0.0458 -0.1753 -0.1061
   84loPI    C2 1330   4.586  18.183  10.130 -0.0531  0.0631 -0.0623
   84loPI    C3 1331   4.352  17.875  10.030  0.2586 -0.1561 -0.1309
   84loPI   PO4 1332   4.405  18.299   9.656 -0.1065  0.2735  0.3490
   84loPI   GL1 1333   4.649  18.143   9.196  0.0343 -0.0343 -0.1953
   84loPI   GL2 1334   4.836  18.015   9.234 -0.0469  0.1525  0.1445
   84loPI   C1A 1335   4.498  18.367   8.839 -0.0466 -0.1437  0.0583
   84loPI   C2A 1336   4.540  18.487   8.431  0.1193  0.1820  0.2841
   84loPI   C3A 1337   4.627  18.348   7.976  0.0463  0.2956 -0.1403
   84loPI   C4A 1338   4.880  18.336   7.631 -0.1067  0.1337  0.2716
   84loPI   C5A 1339   5.270  18.528   7.514  0.0287  0.0912 -0.1606
   84loPI   C6A 1340   5.702  18.720   7.476  0.4777  0.0968  0.0254
   84loPI   C1B 1341   5.077  18.376   9.019 -0.2548 -0.1168 -0.0190
   84loPI   C2B 1342   5.056  18.556   8.661  0.3932 -0.2096 -0.2637
   84loPI   C3B 1343   4.970  18.615   8.198  0.2498  0.2440  0.3085
   84loPI   C4B 1344   5.278  18.854   7.883  0.3035 -0.0752 -0.1185
   85loPI    C1 1345  11.460   6.673  11.234  0.0981  0.0637 -0.0225
   85loPI    C2 1346  11.830   6.820  11.193  0.0466  0.2819  0.2605
   85loPI    C3 1347  11.776   6.452  11.341  0.1582  0.1396 -0.0427
   85loPI   PO4 1348  11.299   6.705  10.949 -0.0208  0.3488 -0.3546
   85loPI   GL1 1349  11.116   6.372  10.642  0.2767 -0.0691  0.0713
   85loPI   GL2 1350  10.902   6.306  10.519  0.3030  0.0284  0.2365
   85loPI   C1A 1351  11.391   6.551  10.259 -0.2212 -0.1369 -0.3848
   85loPI   C2A 1352  11.453   6.809   9.999 -0.1275  0.4079 -0.0371
   85loPI   C3A 1353  11.517   7.060   9.686 -0.0780  0.0836 -0.2572
   85loPI   C4A 1354  11.420   7.245   9.369  0.1975  0.1122 -0.1397
   85loPI   C5A 1355  11.138   7.580   9.061 -0.2003 -0.0506  0.0546
   85loPI   C6A 1356  10.865   7.628   8.736  0.2552  0.2177  0.3936
   85loPI   C1B 1357  10.992   6.293  10.128  0.2876 -0.1760 -0.0084
   85loPI   C2B 1358  11.144   6.540   9.762  0.0426  0.2502  0.1757
   85loPI   C3B 1359  11.134   6.832   9.464  0.1965 -0.0334  0.0766
   85loPI   C4B 1360  11.038   6.820   9.084  0.2248  0.3951  0.0817
   86loPI    C1 1361  18.399  16.012   9.869 -0.0766 -0.0777  0.0096
   86loPI    C2 1362  18.207  15.763  10.117  0.1969 -0.2865  0.0169
   86loPI    C3 1363  18.522  15.971  10.248  0.0809 -0.0719 -0.0403
   86loPI   PO4 1364  18.207  15.954   9.653 -0.0755  0.0764  0.2249
   86loPI   GL1 1365  18.041  16.269   9.347  0.1790 -0.0423 -0.0389
   86loPI   GL2 1366  18.187  16.566   9.267 -0.3909 -0.0072 -0.0293
   86loPI   C1A 1367  17.947  16.167   8.864  0.0756  0.0353 -0.0122
   86loPI   C2A 1368  18.060  16.264   8.420  0.2344  0.0068 -0.0677
   86loPI   C3A 1369  18.098  16.211   7.981 -0.0621 -0.3057 -0.2501
   86loPI   C4A 1370  17.830  16.133   7.625  0.0987  0.0914 -0.0128
   86loPI   C5A 1371  17.580  16.060   7.292 -0.1009  0.1106 -0.2249
   86loPI   C6A 1372  17.145  16.128   7.247  0.2541  0.0502  0.0985
   86loPI   C1B 1373  17.963  16.655   8.808  0.1554  0.0910 -0.1307
   86loPI   C2B 1374  17.921  16.898   8.500  0.0955  0.0641 -0.4676
   86loPI   C3B 1375  17.849  16.801   8.137  0.0575  0.1687  0.2981
   86loPI   C4B 1376  17.680  17.060   7.803  0.2620  0.1542  0.1438
   87loPI    C1 1377  12.475  13.224  10.528  0.0842 -0.2682 -0.0439
   87loPI    C2 1378  12.430  12.844  10.643 -0.0490 -0.1252  0.3992
   87loPI    C3 1379  12.536  13.122  10.910 -0.3720  0.2236  0.1744
   87loPI   PO4 1380  12.293  13.274  10.299 -0.4217  0.0404 -0.0013
   87loPI   GL1 1381  12.224  13.303   9.907  0.1302 -0.1037  0.1112
   87loPI   GL2 1382  12.037  13.506   9.795 -0.1124  0.0886 -0.0743
   87loPI   C1A 1383  12.405  13.166   9.497  0.3178  0.0481  0.1885
   87loPI   C2A 1384  12.284  13.087   9.060 -0.0300 -0.3819  0.0234
   87loPI   C3A 1385  12.161  13.124   8.643 -0.3209  0.0934  0.3796
   87loPI   C4A 1386  12.234  12.936   8.245 -0.3296  0.2477  0.0050
   87loPI   C5A 1387  12.243  12.895   7.755  0.0696  0.0814  0.4801
   87loPI   C6A 1388  12.142  12.540   7.375  0.2524  0.0307 -0.1203
   87loPI   C1B 1389  11.991  13.367   9.332 -0.2190  0.2751  0.1319
   87loPI   C2B 1390  11.671  13.260   9.150 -0.1383 -0.1540 -0.0999
   87loPI   C3B 1391  11.657  13.154   8.818  0.1136 -0.0202  0.1137
   87loPI   C4B 1392  11.663  13.090   8.362 -0.3095 -0.0712 -0.0964
   88loPI    C1 1393  10.018  18.024  10.485  0.0142  0.0169  0.1752
   88loPI    C2 1394   9.946  18.414  10.530  0.0344  0.0301  0.0947
   88loPI    C3 1395  10.293  18.292  10.375 -0.0330 -0.0142 -0.0228
   88loPI   PO4 1396   9.810  17.944  10.337 -0.0953 -0.2206 -0.2230
   88loPI   GL1 1397   9.682  18.013   9.977  0.3594 -0.2055  0.0285
   88loPI   GL2 1398   9.702  17.679   9.911 -0.1552 -0.1485 -0.1660
   88loPI   C1A 1399   9.726  18.131   9.557 -0.1506  0.4478  0.1908
   88loPI   C2A 1400   9.908  18.235   9.117  0.1612  0.3472 -0.2730
   88loPI   C3A 1401  10.176  18.399   8.845 -0.0896 -0.2147 -0.0836
   88loPI   C4A 1402  10.179  18.363   8.362 -0.2205 -0.0512  0.1851
   88loPI   C5A 1403  10.267  18.276   7.981 -0.1687 -0.0852 -0.0351
   88loPI   C6A 1404  10.062  18.314   7.604 -0.2098 -0.2127  0.0966
   88loPI   C1B 1405   9.643  17.654   9.468  0.0733  0.2130  0.0492
   88loPI   C2B 1406   9.672  17.710   8.952  0.0943 -0.0574 -0.3260
   88loPI   C3B 1407   9.492  17.755   8.555 -0.0358  0.0188  0.2245
   88loPI   C4B 1408   9.238  17.851   8.254  0.2290  0.3007 -0.3624
   89loPI    C1 1409   6.496   6.886  10.633 -0.2573 -0.1942  0.0038
   89loPI    C2 1410   6.341   7.020  10.977  0.0328 -0.0376  0.0771
   89loPI    C3 1411   6.337   6.628  10.895 -0.3805 -0.0391  0.0835
   89loPI   PO4 1412   6.393   7.056  10.441  0.0216 -0.1261  0.1739
   89loPI   GL1 1413   6.411   7.285  10.072 -0.0811  0.0184 -0.0068
   89loPI   GL2 1414   6.337   7.465  10.176 -0.0455  0.1866 -0.1122
   89loPI   C1A 1415   6.452   7.119   9.682  0.4285 -0.4886 -0.1758
   89loPI   C2A 1416   6.641   7.091   9.191 -0.2151 -0.0326 -0.2072
   89loPI   C3A 1417   7.039   7.063   8.981  0.3820 -0.0189  0.2235
   89loPI   C4A 1418   7.492   7.019   9.127  0.1783  0.5168  0.0932
   89loPI   C5A 1419   7.679   6.951   8.705 -0.0223  0.1001  0.3696
   89loPI   C6A 1420   7.819   7.124   8.245 -0.1795  0.1057  0.3112
   89loPI   C1B 1421   6.205   7.629   9.823 -0.0479 -0.2446 -0.1973
   89loPI   C2B 1422   6.253   7.972   9.562 -0.1425  0.2932 -0.2002
   89loPI   C3B 1423   6.209   7.806   9.137  0.1157  0.2352 -0.0549
   89loPI   C4B 1424   6.232   7.549   8.840 -0.0423  0.0120  0.5561
   90loPI    C1 1425   6.207   2.805  10.778 -0.0150 -0.0918 -0.3490
   90loPI    C2 1426   6.102   2.430  10.686  0.0272 -0.1586 -0.1308
   90loPI    C3 1427   6.446   2.500  10.878 -0.0082 -0.0133 -0.1192
   90loPI   PO4 1428   6.196   3.052  10.528 -0.1926 -0.2402 -0.1315
   90loPI   GL1 1429   6.351   3.065  10.092 -0.0537  0.3580 -0.0986
   90loPI   GL2 1430   6.636   2.893   9.988  0.0480  0.0045  0.1579
   90loPI   C1A 1431   6.164   3.308   9.658  0.0417  0.0008  0.0067
   90loPI   C2A 1432   5.929   3.324   9.306  0.0275 -0.1352 -0.1303
   90loPI   C3A 1433   5.993   3.457   8.988 -0.2042 -0.2894  0.0249
   90loPI   C4A 1434   6.076   3.414   8.719  0.3034 -0.0071  0.3155
   90loPI   C5A 1435   6.126   3.587   8.305 -0.5797  0.1797 -0.2187
   90loPI   C6A 1436   6.246   3.937   8.048  0.1156 -0.1337  0.2019
   90loPI   C1B 1437   6.597   3.037   9.674 -0.0280  0.1568 -0.2626
   90loPI   C2B 1438   6.475   3.025   9.321 -0.2957 -0.3459  0.2144
   90loPI   C3B 1439   6.506   3.163   8.910 -0.2466  0.1576  0.0499
   90loPI   C4B 1440   6.483   3.281   8.536 -0.2585  0.0373 -0.1972
   91loPI    C1 1441  16.174  16.445  10.086 -0.3046  0.0406  0.1991
   91loPI    C2 1442  16.569  16.500  10.060 -0.3054 -0.0688 -0.0869
   91loPI    C3 1443  16.383  16.543  10.412 -0.0489  0.0395  0.0380
   91loPI   PO4 1444  16.146  16.468   9.811  0.0086  0.5116 -0.0623
   91loPI   GL1 1445  16.114  16.256   9.448 -0.0172  0.0051 -0.1188
   91loPI   GL2 1446  15.920  16.030   9.415 -0.1995  0.2819 -0.1492
   91loPI   C1A 1447  16.347  16.247   9.157  0.0062 -0.1687 -0.2181
   91loPI   C2A 1448  16.326  16.354   8.714  0.0379  0.0099  0.1543
   91loPI   C3A 1449  16.210  16.202   8.320  0.0676  0.2992  0.2957
   91loPI   C4A 1450  16.129  16.018   7.950 -0.3608  0.1868 -0.0175
   91loPI   C5A 1451  15.972  15.956   7.529 -0.0262  0.1337 -0.1282
   91loPI   C6A 1452  15.595  16.203   7.216 -0.2125 -0.2408 -0.0098
   91loPI   C1B 1453  15.847  16.087   9.013  0.1387  0.0798 -0.2799
   91loPI   C2B 1454  15.823  16.045   8.619 -0.1950  0.0347  0.0768
   91loPI   C3B 1455  15.672  16.145   8.131  0.3531 -0.0636  0.0660
   91loPI   C4B 1456  15.477  16.063   7.756 -0.1594  0.0554  0.3446
   92loPI    C1 1457   9.947  13.318  10.234  0.0228 -0.0013  0.1196
   92loPI    C2 1458  10.254  13.457  10.018 -0.0613  0.0406  0.0267
   92loPI    C3 1459  10.249  13.509  10.415 -0.0262  0.1824  0.0090
   92loPI   PO4 1460   9.645  13.496  10.081 -0.1783  0.0366 -0.0087
   92loPI   GL1 1461   9.581  13.638   9.616  0.0029 -0.0234  0.0426
   92loPI   GL2 1462   9.270  13.445   9.658  0.0492 -0.1659 -0.0550
   92loPI   C1A 1463   9.506  13.740   9.228  0.5115  0.0073  0.1419
   92loPI   C2A 1464   9.448  13.659   8.966  0.3488 -0.0385  0.3047
   92loPI   C3A 1465   9.538  13.634   8.608 -0.0586  0.0098  0.0796
   92loPI   C4A 1466   9.539  13.416   8.136  0.2232  0.2010 -0.2017
   92loPI   C5A 1467   9.237  13.508   7.720  0.0851 -0.2097  0.5184
   92loPI   C6A 1468   8.896  13.291   7.578  0.4091  0.1720 -0.1477
   92loPI   C1B 1469   9.151  13.371   9.262 -0.2972 -0.1885  0.0163
   92loPI   C2B 1470   9.254  13.263   8.780  0.2896 -0.0594 -0.1803
   92loPI   C3B 1471   9.175  13.155   8.328 -0.0880 -0.1274  0.2059
   92loPI   C4B 1472   9.154  12.948   7.967  0.2969  0.1119  0.1970
   93loPI    C1 1473   1.899   9.805  10.592  0.1426  0.0414 -0.1214
   93loPI    C2 1474   2.297   9.824  10.626  0.1504  0.1641 -0.2702
   93loPI    C3 1475   2.065  10.064  10.847  0.1510 -0.0303 -0.0534
   93loPI   PO4 1476   1.913   9.535  10.388 -0.0705 -0.2291 -0.0017
   93loPI   GL1 1477   2.182   9.401   9.931  0.2708  0.1663  0.1132
   93loPI   GL2 1478   1.880   9.377   9.795  0.1315 -0.1607 -0.0284
   93loPI   C1A 1479   2.283   9.477   9.496 -0.3497  0.1634  0.1050
   93loPI   C2A 1480   2.263   9.513   9.064  0.1902  0.0358  0.0101
   93loPI   C3A 1481   2.225   9.731   8.714 -0.1763  0.1346 -0.1193
   93loPI   C4A 1482   2.212   9.837   8.299 -0.1851 -0.1004 -0.1022
   93loPI   C5A 1483   2.141  10.148   8.031 -0.2802  0.1286 -0.1676
   93loPI   C6A 1484   2.179  10.598   7.872  0.0888  0.0235  0.1956
   93loPI   C1B 1485   1.837   9.568   9.420  0.4052 -0.2150  0.4111
   93loPI   C2B 1486   1.805   9.616   9.129 -0.1902  0.2717  0.2584
   93loPI   C3B 1487   1.784   9.544   8.716 -0.0852  0.0472 -0.4856
   93loPI   C4B 1488   1.903   9.322   8.337  0.3020 -0.0193 -0.0918
   94loPI    C1 1489   3.767   0.354   9.949  0.0760 -0.1633  0.1826
   94loPI    C2 1490   3.913   0.036   9.754  0.1454 -0.0226  0.0022
   94loPI    C3 1491   3.640  -0.014  10.043  0.0996 -0.2396 -0.0766
   94loPI   PO4 1492   3.605   0.462   9.631 -0.1055 -0.1471  0.1849
   94loPI   GL1 1493   3.715   0.642   9.293  0.1344  0.0407  0.0852
   94loPI   GL2 1494   3.518   0.430   9.082 -0.0705  0.1799 -0.2995
   94loPI   C1A 1495   4.112   0.573   9.033 -0.4517  0.1916 -0.0415
   94loPI   C2A 1496   4.313   0.489   8.611 -0.1653  0.0106 -0.2276
   94loPI   C3A 1497   4.455   0.517   8.205  0.1155 -0.0078  0.1302
   94loPI   C4A 1498   4.482   0.281   7.818 -0.0450  0.1420 -0.0480
   94loPI   C5A 1499   4.188   0.238   7.525  0.0136  0.1603  0.1897
   94loPI   C6A 1500   4.018   0.321   7.128 -0.2638  0.1695 -0.0651
   94loPI   C1B 1501   3.673   0.427   8.776  0.2098 -0.3828 -0.1144
   94loPI   C2B 1502   3.843   0.558   8.434  0.1155  0.1741  0.2659
   94loPI   C3B 1503   3.948   0.477   7.976 -0.0045 -0.4779 -0.2125
   94loPI   C4B 1504   3.673   0.413   7.645 -0.0011 -0.1782 -0.0169
   95loPI    C1 1505   8.194  10.023  10.634  0.0809  0.0789 -0.0451
   95loPI    C2 1506   7.944  10.217  10.879  0.1539 -0.0336  0.1209
   95loPI    C3 1507   7.964   9.817  10.888  0.2703 -0.0303  0.0410
   95loPI   PO4 1508   8.186  10.133  10.363 -0.1242  0.0989  0.0755
   95loPI   GL1 1509   8.629  10.118  10.257  0.2510  0.0655  0.0455
   95loPI   GL2 1510   8.636  10.411  10.396 -0.4448 -0.0544 -0.0049
   95loPI   C1A 1511   8.426  10.180   9.866  0.0396  0.1740 -0.0955
   95loPI   C2A 1512   8.442  10.140   9.398  0.0585 -0.3103  0.0946
   95loPI   C3A 1513   8.496  10.130   8.989 -0.2433  0.0967  0.3777
   95loPI   C4A 1514   8.527  10.127   8.553 -0.1101  0.3057 -0.1679
   95loPI   C5A 1515   8.421   9.884   8.236  0.0918 -0.1197  0.0278
   95loPI   C6A 1516   8.132   9.632   7.916  0.0201  0.0874 -0.1556
   95loPI   C1B 1517   8.732  10.561   9.992  0.0634  0.0293 -0.0113
   95loPI   C2B 1518   8.668  10.573   9.538  0.3790 -0.1110 -0.0414
   95loPI   C3B 1519   8.719  10.559   9.108  0.2097  0.1750 -0.1309
   95loPI   C4B 1520   8.787  10.577   8.718  0.0916 -0.1912 -0.0690
   96loPI    C1 1521   1.855  16.904   9.726 -0.1611  0.1083 -0.0165
   96loPI    C2 1522   1.813  17.248   9.925 -0.3240  0.0719  0.0130
   96loPI    C3 1523   2.122  17.008  10.005 -0.2335  0.1907  0.0224
   96loPI   PO4 1524   1.934  17.010   9.463 -0.0370  0.3930 -0.1164
   96loPI   GL1 1525   1.888  16.798   8.989  0.1423 -0.0819 -0.2670
   96loPI   GL2 1526   2.023  17.142   9.008  0.4188 -0.0270  0.1193
   96loPI   C1A 1527   1.842  16.787   8.627 -0.0139  0.2068 -0.1553
   96loPI   C2A 1528   1.943  16.534   8.319 -0.2132  0.1031 -0.2129
   96loPI   C3A 1529   1.939  16.240   7.914 -0.3757 -0.1368  0.0818
   96loPI   C4A 1530   2.182  16.295   7.466 -0.2949  0.2295 -0.0675
   96loPI   C5A 1531   1.995  16.467   7.104 -0.2354  0.0644  0.3279
   96loPI   C6A 1532   1.782  16.979   6.999  0.1290  0.1312 -0.1274
   96loPI   C1B 1533   1.790  17.266   8.676 -0.3450 -0.2216 -0.2288
   96loPI   C2B 1534   1.750  17.289   8.293  0.2613  0.2627 -0.1243
   96loPI   C3B 1535   1.723  17.183   7.825  0.1782  0.1734 -0.0414
   96loPI   C4B 1536   1.396  16.960   7.452  0.1188  0.0460  0.0069
   97loPI    C1 1537   6.881  18.466  10.254 -0.0037  0.3447  0.2344
   97loPI    C2 1538   7.149  18.449  10.550  0.2517 -0.0123 -0.0073
   97loPI    C3 1539   6.976  18.114  10.418  0.1378  0.1433 -0.2607
   97loPI   PO4 1540   6.865  18.713   9.960 -0.0049  0.1303 -0.0392
   97loPI   GL1 1541   6.621  18.992   9.632  0.1732  0.0613 -0.2623
   97loPI   GL2 1542   6.845  19.202   9.706  0.3075  0.0834  0.0148
   97loPI   C1A 1543   6.407  18.918   9.364  0.1088  0.1757 -0.1458
   97loPI   C2A 1544   6.364  19.042   8.988 -0.0357  0.1628  0.2080
   97loPI   C3A 1545   6.253  19.282   8.667 -0.1485  0.0877 -0.0267
   97loPI   C4A 1546   6.253  19.261   8.243 -0.0940  0.1103 -0.1413
   97loPI   C5A 1547   6.076  19.469   7.919  0.3004 -0.0822  0.2172
   97loPI   C6A 1548   6.064  19.490   7.440  0.2068  0.1955  0.0332
   97loPI   C1B 1549   6.985  19.270   9.338 -0.2132  0.1967 -0.0583
   97loPI   C2B 1550   6.809  19.289   8.988  0.3576 -0.3204 -0.1247
   97loPI   C3B 1551   6.755  19.453   8.623  0.1794  0.0368  0.1667
   97loPI   C4B 1552   6.598  19.635   8.159  0.1563  0.1566 -0.2424
   98loPI    C1 1553  16.750  13.532  10.175  0.1316  0.0238 -0.0378
   98loPI    C2 1554  16.759  13.899  10.333 -0.0609  0.0062  0.0172
   98loPI    C3 1555  16.516  13.621  10.487 -0.0562 -0.0885 -0.1439
   98loPI   PO4 1556  16.639  13.521   9.942  0.1789  0.0116 -0.0889
   98loPI   GL1 1557  16.791  13.421   9.597 -0.1089 -0.0494 -0.0918
   98loPI   GL2 1558  17.041  13.479   9.493 -0.0079  0.0736  0.0633
   98loPI   C1A 1559  16.538  13.184   9.361  0.2246 -0.1050 -0.0092
   98loPI   C2A 1560  16.417  13.165   8.905  0.0124  0.1934  0.0156
   98loPI   C3A 1561  16.484  12.971   8.492 -0.1044  0.3643  0.0665
   98loPI   C4A 1562  16.823  12.894   8.347 -0.0403 -0.2926  0.2464
   98loPI   C5A 1563  17.012  12.689   7.984  0.1105  0.0878 -0.0656
   98loPI   C6A 1564  17.081  12.384   7.820 -0.0893 -0.1344 -0.1167
   98loPI   C1B 1565  16.926  13.384   9.118 -0.0919 -0.1521  0.2621
   98loPI   C2B 1566  16.932  13.252   8.704  0.0192 -0.0337 -0.2408
   98loPI   C3B 1567  17.102  13.385   8.270 -0.2036  0.1148  0.1690
   98loPI   C4B 1568  17.279  13.123   7.991 -0.3113 -0.0395 -0.4248
   99loPI    C1 1569  12.754   6.721  10.496 -0.1460  0.1766  0.0748
   99loPI    C2 1570  12.684   6.744  10.890 -0.3203  0.1256  0.0478
   99loPI    C3 1571  12.992   6.943  10.729 -0.2198  0.1088  0.2167
   99loPI   PO4 1572  12.519   6.535  10.463  0.0451 -0.0421 -0.0329
   99loPI   GL1 1573  12.437   6.411  10.066 -0.0389 -0.0318 -0.2217
   99loPI   GL2 1574  12.516   6.145  10.022 -0.0415  0.1347  0.0119
   99loPI   C1A 1575  12.334   6.573   9.615 -0.1400 -0.0569  0.2789
   99loPI   C2A 1576  12.249   6.519   9.200 -0.0357 -0.2095 -0.1250
   99loPI   C3A 1577  12.154   6.710   8.958  0.1140  0.2095 -0.5069
   99loPI   C4A 1578  12.049   6.956   8.712  0.1582  0.2247 -0.2729
   99loPI   C5A 1579  11.774   7.274   8.535 -0.1583 -0.1073 -0.0091
   99loPI   C6A 1580  11.703   7.230   8.056  0.0192 -0.1052  0.5186
   99loPI   C1B 1581  12.549   6.098   9.553 -0.0119  0.0278  0.1341
   99loPI   C2B 1582  12.576   6.144   9.122  0.1387 -0.2460 -0.3997
   99loPI   C3B 1583  12.435   6.243   8.801  0.0856  0.1868  0.0424
   99loPI   C4B 1584  12.448   6.557   8.504  0.1457  0.0176  0.0975
  100loPI    C1 1585  15.709   0.143   9.685  0.2660  0.1351 -0.1970
  100loPI    C2 1586  15.765   0.479   9.474  0.0557  0.2996  0.0045
  100loPI    C3 1587  15.714   0.497   9.871 -0.1741  0.0492 -0.0110
  100loPI   PO4 1588  15.624   0.005   9.548  0.0743  0.1339 -0.0839
  100loPI   GL1 1589  15.596  -0.462   9.334  0.1113 -0.1625  0.1466
  100loPI   GL2 1590  15.813  -0.283   9.172  0.1903 -0.1220  0.2986
  100loPI   C1A 1591  15.341  -0.234   8.929 -0.2953  0.0274 -0.0254
  100loPI   C2A 1592  15.297   0.011   8.596  0.1525 -0.0755  0.0824
  100loPI   C3A 1593  15.425   0.241   8.268 -0.1825 -0.0509  0.1117
  100loPI   C4A 1594  15.632   0.678   8.357  0.1789  0.1399  0.2628
  100loPI   C5A 1595  15.886   0.919   8.260  0.2273 -0.0647 -0.0731
  100loPI   C6A 1596  16.302   0.886   8.229 -0.1517  0.2370 -0.0472
  100loPI   C1B 1597  15.931  -0.068   8.899 -0.1027  0.0669  0.1137
  100loPI   C2B 1598  15.767  -0.042   8.522 -0.0348 -0.3093  0.1262
  100loPI   C3B 1599  15.868  -0.110   8.200 -0.3590 -0.0511  0.0561
  100loPI   C4B 1600  15.820  -0.402   7.803 -0.0095  0.0397 -0.0667
  101loPI    C1 1601   3.975  12.161  10.313 -0.4527  0.1451 -0.0100
  101loPI    C2 1602   4.031  12.027  10.686  0.1163  0.0368 -0.1244
  101loPI    C3 1603   3.844  12.375  10.624  0.3038  0.2169  0.2814
  101loPI   PO4 1604   4.279  12.177  10.143 -0.3044  0.0978 -0.3989
  101loPI   GL1 1605   4.405  11.983   9.752  0.4075 -0.1267  0.3878
  101loPI   GL2 1606   4.422  12.298   9.626 -0.1089 -0.3610  0.0734
  101loPI   C1A 1607   4.284  11.906   9.267 -0.0185  0.0447  0.3021
  101loPI   C2A 1608   4.260  11.928   8.791  0.0925 -0.1376 -0.3225
  101loPI   C3A 1609   4.203  11.883   8.333  0.0657 -0.1880  0.1405
  101loPI   C4A 1610   4.329  11.909   8.013  0.0848 -0.5478  0.1064
  101loPI   C5A 1611   4.169  11.627   7.729 -0.1959  0.4093  0.0058
  101loPI   C6A 1612   4.178  11.332   7.410 -0.1356  0.1862 -0.0276
  101loPI   C1B 1613   4.621  12.368   9.219 -0.0518 -0.0925  0.4586
  101loPI   C2B 1614   4.695  12.391   8.846 -0.3073 -0.2103 -0.4977
  101loPI   C3B 1615   4.899  12.473   8.461  0.1359  0.2296  0.2846
  101loPI   C4B 1616   5.014  12.467   8.033  0.0753 -0.1707 -0.1059
  102loPI    C1 1617   7.243  16.226  10.542  0.0136  0.0136  0.1073
  102loPI    C2 1618   6.998  15.920  10.458  0.1851 -0.1771  0.2901
  102loPI    C3 1619   6.931  16.147  10.780 -0.0145  0.0603  0.0863
  102loPI   PO4 1620   7.463  16.169  10.388 -0.0864 -0.0889  0.2661
  102loPI   GL1 1621   7.522  16.369   9.941  0.0326 -0.2183  0.0462
  102loPI   GL2 1622   7.752  16.156   9.985  0.1947  0.1630 -0.1047
  102loPI   C1A 1623   7.538  16.145   9.471  0.1532 -0.2024 -0.0418
  102loPI   C2A 1624   7.689  16.109   8.962 -0.1363  0.0661  0.2125
  102loPI   C3A 1625   7.407  16.068   8.549 -0.1481  0.1683 -0.2963
  102loPI   C4A 1626   7.373  16.050   8.144 -0.1844  0.2506 -0.0836
  102loPI   C5A 1627   7.219  16.068   7.802  0.0201 -0.1255 -0.2027
  102loPI   C6A 1628   7.054  16.256   7.440 -0.0052  0.1053 -0.0169
  102loPI   C1B 1629   7.978  16.254   9.600  0.0133 -0.3482 -0.2129
  102loPI   C2B 1630   8.098  16.179   9.224  0.1579 -0.0967  0.0917
  102loPI   C3B 1631   8.136  16.213   8.802  0.2315 -0.5117 -0.1798
  102loPI   C4B 1632   8.282  16.158   8.368 -0.1697  0.1249 -0.1106
  103loPI    C1 1633   3.439  15.912   9.403  0.0280 -0.0306  0.1725
  103loPI    C2 1634   3.151  15.785   9.650  0.1758 -0.0629  0.3303
  103loPI    C3 1635   3.424  16.048   9.779  0.0146  0.2349  0.0782
  103loPI   PO4 1636   3.423  15.787   9.178 -0.0745 -0.0174  0.0766
  103loPI   GL1 1637   3.519  15.477   8.868 -0.0761  0.2178  0.1413
  103loPI   GL2 1638   3.789  15.431   8.706 -0.2820  0.0278 -0.2845
  103loPI   C1A 1639   3.296  15.477   8.455 -0.2318  0.0929 -0.0928
  103loPI   C2A 1640   3.201  15.563   8.032 -0.1571  0.2745 -0.1116
  103loPI   C3A 1641   3.311  15.675   7.624 -0.1154  0.2867 -0.3822
  103loPI   C4A 1642   3.407  15.505   7.281 -0.2877 -0.1120 -0.1939
  103loPI   C5A 1643   3.184  15.274   7.042  0.0801  0.0255  0.0467
  103loPI   C6A 1644   2.863  14.990   7.208  0.2051  0.2537 -0.1330
  103loPI   C1B 1645   3.760  15.232   8.321 -0.1653  0.0609  0.4663
  103loPI   C2B 1646   3.559  15.238   8.006 -0.2155  0.4558  0.0346
  103loPI   C3B 1647   3.279  15.077   7.577 -0.0620  0.0843  0.1766
  103loPI   C4B 1648   2.905  14.742   7.665  0.1997  0.3043 -0.0149
  104loPI    C1 1649   0.938   4.700  10.145 -0.2031 -0.2248  0.4014
  104loPI    C2 1650   1.265   4.926  10.190 -0.2321 -0.1477  0.2350
  104loPI    C3 1651   0.962   4.957  10.450 -0.0248 -0.3676  0.5093
  104loPI   PO4 1652   0.855   4.762   9.903  0.0229  0.1017  0.2779
  104loPI   GL1 1653   0.573   4.685   9.590 -0.1338  0.0358 -0.1438
  104loPI   GL2 1654   0.468   5.005   9.742 -0.1901  0.1968  0.0407
  104loPI   C1A 1655   0.833   4.799   9.200 -0.0270 -0.1717  0.1499
  104loPI   C2A 1656   0.686   4.828   8.818 -0.2897 -0.1479 -0.0364
  104loPI   C3A 1657   0.545   4.750   8.411  0.2975 -0.0102  0.2844
  104loPI   C4A 1658   0.396   4.767   8.024 -0.2998 -0.0115 -0.2936
  104loPI   C5A 1659   0.430   4.527   7.709 -0.3990 -0.3229 -0.0459
  104loPI   C6A 1660   0.466   4.169   7.371 -0.2515 -0.2721  0.2000
  104loPI   C1B 1661   0.474   5.110   9.350  0.2600  0.3209 -0.0657
  104loPI   C2B 1662   0.450   5.290   9.010  0.1653 -0.3095 -0.0413
  104loPI   C3B 1663   0.427   5.358   8.607 -0.4076 -0.1187  0.5150
  104loPI   C4B 1664   0.294   5.189   8.237  0.2343 -0.0542  0.0843
  105loPI    C1 1665   0.641  15.927   9.646  0.1865 -0.1670  0.1571
  105loPI    C2 1666   0.290  15.735   9.642  0.0757  0.0349 -0.1203
  105loPI    C3 1667   0.452  15.849   9.989 -0.1946  0.0512  0.0027
  105loPI   PO4 1668   0.643  15.949   9.378  0.3116  0.0663 -0.1426
  105loPI   GL1 1669   0.449  16.182   9.043 -0.2243  0.1949  0.0748
  105loPI   GL2 1670   0.877  16.145   9.009 -0.0737  0.1137  0.0332
  105loPI   C1A 1671   0.434  16.138   8.676  0.0426  0.2934  0.0332
  105loPI   C2A 1672   0.718  16.068   8.253  0.0509 -0.0537  0.2012
  105loPI   C3A 1673   0.786  16.055   7.798  0.0597  0.0932 -0.0330
  105loPI   C4A 1674   0.645  16.067   7.358 -0.0752 -0.1659  0.0450
  105loPI   C5A 1675   0.326  16.227   7.102  0.0487  0.2780  0.4402
  105loPI   C6A 1676   0.019  15.982   6.966 -0.1711 -0.0186  0.0814
  105loPI   C1B 1677   0.921  16.342   8.639  0.0563 -0.0154  0.3272
  105loPI   C2B 1678   1.056  16.655   8.256 -0.1864  0.2957  0.1103
  105loPI   C3B 1679   1.160  16.586   7.886 -0.0892 -0.0328 -0.1206
  105loPI   C4B 1680   1.092  16.349   7.554  0.0503  0.1297  0.3352
  106loPI    C1 1681   8.125   2.350  10.606 -0.1789 -0.0821  0.0558
  106loPI    C2 1682   8.495   2.377  10.755 -0.2273 -0.0186  0.1656
  106loPI    C3 1683   8.212   2.180  10.957 -0.2244 -0.1684  0.0256
  106loPI   PO4 1684   8.273   2.366  10.292 -0.2723  0.2117  0.0619
  106loPI   GL1 1685   8.302   2.342   9.843  0.1308 -0.1841 -0.0593
  106loPI   GL2 1686   7.941   2.299   9.782 -0.2485  0.0333  0.0285
  106loPI   C1A 1687   8.567   2.523   9.646 -0.2119 -0.1373 -0.1608
  106loPI   C2A 1688   8.715   2.657   9.165  0.1451  0.2932  0.0624
  106loPI   C3A 1689   8.999   2.840   8.861  0.1110  0.0307  0.4042
  106loPI   C4A 1690   9.112   2.866   8.424  0.0433  0.1278  0.2076
  106loPI   C5A 1691   9.504   2.758   8.261 -0.1515  0.2474 -0.1341
  106loPI   C6A 1692   9.970   2.706   8.224  0.3065  0.0175 -0.0680
  106loPI   C1B 1693   8.070   2.579   9.375 -0.0556 -0.1609 -0.2747
  106loPI   C2B 1694   8.279   2.765   8.909  0.0432  0.2131 -0.1716
  106loPI   C3B 1695   8.642   2.504   8.608 -0.1791  0.0379  0.2846
  106loPI   C4B 1696   8.649   2.211   8.467 -0.2338 -0.0432  0.2889
  107loPI    C1 1697  14.396   6.168  10.928  0.1354  0.1275 -0.1105
  107loPI    C2 1698  14.192   5.835  11.011  0.0897  0.1773 -0.0227
  107loPI    C3 1699  14.591   5.824  10.990  0.0691  0.0330 -0.4108
  107loPI   PO4 1700  14.289   6.321  10.694  0.0807 -0.2556  0.0584
  107loPI   GL1 1701  14.341   6.295  10.290  0.0339  0.1498 -0.1534
  107loPI   GL2 1702  14.470   6.459  10.231 -0.0005 -0.0784  0.0774
  107loPI   C1A 1703  14.285   6.295   9.771 -0.2464 -0.1546 -0.0237
  107loPI   C2A 1704  14.386   6.320   9.321 -0.0315  0.0398  0.0171
  107loPI   C3A 1705  14.283   6.345   8.901 -0.1112 -0.1716  0.1535
  107loPI   C4A 1706  14.201   6.670   8.570 -0.4021 -0.2348  0.0828
  107loPI   C5A 1707  14.407   7.123   8.464  0.0538  0.1051 -0.1016
  107loPI   C6A 1708  14.498   7.467   8.183 -0.0664 -0.0217  0.1832
  107loPI   C1B 1709  14.386   6.814   9.898  0.1762 -0.0499  0.0193
  107loPI   C2B 1710  14.332   6.807   9.469  0.0771 -0.0572 -0.0974
  107loPI   C3B 1711  14.486   6.772   9.038 -0.2900  0.0968 -0.2882
  107loPI   C4B 1712  14.693   6.582   8.673  0.1203  0.2175  0.0641
  108loPI    C1 1713   0.690   9.624  10.458  0.1325  0.1253 -0.2049
  108loPI    C2 1714   0.400   9.455  10.241  0.0844 -0.0050 -0.0415
  108loPI    C3 1715   0.314   9.756  10.489  0.0983 -0.0079 -0.0330
  108loPI   PO4 1716   0.851   9.405  10.514  0.1363 -0.0878  0.3171
  108loPI   GL1 1717   0.876   9.212  10.141  0.1417 -0.1469 -0.0160
  108loPI   GL2 1718   0.680   9.298   9.781 -0.0332  0.0687 -0.1997
  108loPI   C1A 1719   1.176   9.397   9.814  0.2703  0.2794 -0.1697
  108loPI   C2A 1720   1.328   9.607   9.382 -0.0214 -0.2525 -0.0351
  108loPI   C3A 1721   1.297   9.603   9.008 -0.1033  0.1421 -0.1749
  108loPI   C4A 1722   1.265   9.584   8.619  0.1150  0.0126  0.0982
  108loPI   C5A 1723   1.167   9.718   8.186 -0.0002 -0.0639 -0.3503
  108loPI   C6A 1724   0.998   9.565   7.757 -0.0212  0.0839  0.1267
  108loPI   C1B 1725   0.875   9.370   9.351 -0.2940  0.3844 -0.2902
  108loPI   C2B 1726   0.990   9.238   8.971 -0.0253  0.1048 -0.1587
  108loPI   C3B 1727   0.881   9.246   8.510 -0.0418 -0.0262  0.1138
  108loPI   C4B 1728   0.564   9.464   8.214 -0.0486  0.1185 -0.1372
  109loPI    C1 1729   7.155   1.674  10.420  0.0088 -0.2507  0.1248
  109loPI    C2 1730   6.757   1.709  10.440  0.0390  0.1480  0.1020
  109loPI    C3 1731   6.981   1.773  10.766  0.1023  0.2097  0.0470
  109loPI   PO4 1732   7.208   1.834  10.197  0.0225  0.4937  0.1375
  109loPI   GL1 1733   7.322   1.864   9.789  0.1151 -0.0011  0.1422
  109loPI   GL2 1734   7.361   1.618   9.695 -0.2085 -0.1680 -0.0778
  109loPI   C1A 1735   7.068   2.157   9.420 -0.2644  0.2300  0.1348
  109loPI   C2A 1736   7.268   2.258   8.988  0.1516  0.0789 -0.0051
  109loPI   C3A 1737   7.314   2.220   8.590 -0.1018  0.2106  0.0366
  109loPI   C4A 1738   7.280   2.297   8.076  0.1110  0.4135  0.3017
  109loPI   C5A 1739   7.089   2.603   7.724 -0.0509 -0.2631  0.2827
  109loPI   C6A 1740   7.357   3.007   7.531 -0.5686  0.1656 -0.1742
  109loPI   C1B 1741   7.435   1.752   9.215  0.1374 -0.1827  0.0426
  109loPI   C2B 1742   7.694   1.867   8.813 -0.3946  0.1707 -0.0731
  109loPI   C3B 1743   7.720   2.002   8.371  0.3310 -0.0500  0.0968
  109loPI   C4B 1744   7.808   2.260   8.056 -0.4148  0.0829 -0.1819
  110loPI    C1 1745   7.861   6.763  11.174 -0.2429 -0.0556  0.1293
  110loPI    C2 1746   8.117   6.819  11.477  0.0240 -0.1725 -0.0699
  110loPI    C3 1747   7.729   6.908  11.522  0.0437 -0.2742  0.3335
  110loPI   PO4 1748   7.995   6.811  10.998 -0.3278  0.0219  0.0288
  110loPI   GL1 1749   8.025   6.659  10.504  0.1569 -0.4415 -0.1014
  110loPI   GL2 1750   8.241   6.406  10.515 -0.1103  0.2048 -0.2266
  110loPI   C1A 1751   8.401   6.878  10.353 -0.0307  0.1924  0.2388
  110loPI   C2A 1752   8.457   6.777   9.960  0.2004  0.1851 -0.0486
  110loPI   C3A 1753   8.441   6.869   9.524 -0.1260 -0.0420  0.0041
  110loPI   C4A 1754   8.518   6.872   8.990 -0.2682 -0.0686  0.0575
  110loPI   C5A 1755   8.619   6.652   8.700  0.2852  0.1943 -0.1147
  110loPI   C6A 1756   8.491   6.513   8.468 -0.1379 -0.3835 -0.0299
  110loPI   C1B 1757   8.184   6.382  10.125  0.2311 -0.2709  0.2067
  110loPI   C2B 1758   8.175   6.349   9.713  0.0177  0.0886 -0.1884
  110loPI   C3B 1759   8.221   6.477   9.313 -0.3889 -0.2461 -0.2630
  110loPI   C4B 1760   8.169   6.511   8.916  0.0910  0.2658  0.0395
  111loPI    C1 1761  16.474  13.063  10.550 -0.2307 -0.0248  0.0145
  111loPI    C2 1762  16.517  13.281  10.882  0.0114 -0.0049 -0.0286
  111loPI    C3 1763  16.514  12.882  10.904 -0.1519 -0.0019  0.0173
  111loPI   PO4 1764  16.490  13.144  10.365 -0.0210  0.1082  0.1658
  111loPI   GL1 1765  16.345  13.077   9.916 -0.0004 -0.1772 -0.0392
  111loPI   GL2 1766  15.981  13.250   9.760 -0.3295 -0.0377  0.2157
  111loPI   C1A 1767  16.376  12.810   9.652  0.1775 -0.0355  0.0563
  111loPI   C2A 1768  16.330  12.766   9.212 -0.1023  0.0958 -0.2847
  111loPI   C3A 1769  16.398  12.613   8.859  0.1389 -0.1444  0.2796
  111loPI   C4A 1770  16.663  12.400   8.467 -0.1276 -0.0046  0.0218
  111loPI   C5A 1771  16.677  12.304   8.069 -0.2609 -0.1469 -0.5042
  111loPI   C6A 1772  16.530  12.040   7.752 -0.2337 -0.0074 -0.1816
  111loPI   C1B 1773  15.951  13.173   9.222 -0.1040 -0.2030 -0.1095
  111loPI   C2B 1774  15.910  12.910   8.944 -0.3650 -0.0049  0.1573
  111loPI   C3B 1775  15.973  12.900   8.543  0.0829  0.2648 -0.0680
  111loPI   C4B 1776  16.056  12.985   8.174 -0.2026  0.2797  0.1171
  112loPI    C1 1777   1.306  15.156   9.601  0.1436  0.3237 -0.1271
  112loPI    C2 1778   1.434  15.219   9.975  0.0819  0.1264 -0.0715
  112loPI    C3 1779   1.189  14.913   9.896  0.1130  0.1530 -0.2781
  112loPI   PO4 1780   1.199  15.433   9.450  0.3169 -0.3730 -0.0448
  112loPI   GL1 1781   0.985  15.474   9.040  0.5548 -0.1552  0.2647
  112loPI   GL2 1782   0.719  15.674   8.963  0.1234 -0.1003  0.2536
  112loPI   C1A 1783   1.142  15.290   8.649  0.0232 -0.1884  0.2890
  112loPI   C2A 1784   1.190  15.210   8.196  0.2704  0.0130 -0.2834
  112loPI   C3A 1785   1.309  15.328   7.787  0.2069  0.0116 -0.1632
  112loPI   C4A 1786   1.359  15.403   7.365 -0.0448 -0.2195  0.1759
  112loPI   C5A 1787   1.220  15.239   6.935  0.2050 -0.0635 -0.0976
  112loPI   C6A 1788   1.396  14.866   6.711  0.2504  0.1385 -0.0911
  112loPI   C1B 1789   0.361  15.693   8.514  0.4145  0.1590  0.2897
  112loPI   C2B 1790   0.099  15.502   8.291  0.1526  0.3852  0.0090
  112loPI   C3B 1791  -0.126  15.384   7.849  0.5296  0.0197 -0.4324
  112loPI   C4B 1792  -0.518  15.383   7.496  0.1441  0.0608  0.1270
  113loPI    C1 1793   5.452   8.271  10.663 -0.1898  0.0779 -0.0061
  113loPI    C2 1794   5.677   8.524  10.876  0.0509 -0.0413 -0.1140
  113loPI    C3 1795   5.356   8.352  11.042  0.1718 -0.0479  0.1163
  113loPI   PO4 1796   5.336   8.356  10.507 -0.0642  0.0563  0.3299
  113loPI   GL1 1797   5.304   8.429  10.099 -0.0848 -0.2563  0.2143
  113loPI   GL2 1798   5.477   8.096  10.054  0.1727 -0.0392 -0.0795
  113loPI   C1A 1799   5.025   8.148   9.906  0.2267 -0.0051 -0.2745
  113loPI   C2A 1800   4.610   8.144   9.670 -0.1231  0.2253 -0.2707
  113loPI   C3A 1801   4.634   8.225   9.247 -0.1862  0.0237  0.3368
  113loPI   C4A 1802   4.545   8.158   8.907  0.2813 -0.0454  0.2840
  113loPI   C5A 1803   4.562   7.997   8.479 -0.0427  0.1444 -0.3056
  113loPI   C6A 1804   4.843   7.784   8.246  0.0351 -0.0232 -0.1192
  113loPI   C1B 1805   5.462   8.215   9.595 -0.1620  0.5502  0.1080
  113loPI   C2B 1806   5.506   8.400   9.221 -0.0163  0.1709  0.1677
  113loPI   C3B 1807   5.445   8.412   8.779 -0.0606  0.2389 -0.3273
  113loPI   C4B 1808   5.642   8.250   8.524 -0.1366  0.2331  0.6887
  114loPI    C1 1809   3.594  18.141   9.736 -0.0710  0.1021  0.1931
  114loPI    C2 1810   3.433  18.033  10.086 -0.0407  0.1280  0.2153
  114loPI    C3 1811   3.830  18.033  10.041 -0.0487 -0.0027  0.1391
  114loPI   PO4 1812   3.486  17.996   9.566  0.0377  0.0307 -0.2395
  114loPI   GL1 1813   3.314  17.845   9.152  0.1263  0.3645  0.3831
  114loPI   GL2 1814   3.129  18.144   9.049 -0.0652  0.4017  0.3539
  114loPI   C1A 1815   3.544  17.634   8.840 -0.2610  0.4415  0.1625
  114loPI   C2A 1816   3.603  17.546   8.344 -0.0695 -0.0624  0.1380
  114loPI   C3A 1817   3.628  17.358   7.941  0.0772  0.3524 -0.1835
  114loPI   C4A 1818   3.474  17.310   7.533 -0.2886 -0.2017  0.0003
  114loPI   C5A 1819   3.539  17.361   7.097  0.3279  0.0652  0.0418
  114loPI   C6A 1820   3.570  17.616   6.796 -0.2186  0.1006 -0.2602
  114loPI   C1B 1821   3.242  18.003   8.680 -0.0007 -0.1721 -0.0870
  114loPI   C2B 1822   3.295  18.008   8.229 -0.0012 -0.1006 -0.1631
  114loPI   C3B 1823   3.318  18.149   7.786  0.1902  0.1397  0.3083
  114loPI   C4B 1824   3.143  18.244   7.321  0.1136 -0.0216 -0.0866
  115loPI    C1 1825  17.570  13.744  10.168  0.0810 -0.0837 -0.2082
  115loPI    C2 1826  17.224  13.588  10.293  0.0214  0.0017 -0.2656
  115loPI    C3 1827  17.297  13.979  10.342  0.1853 -0.0492 -0.0885
  115loPI   PO4 1828  17.605  13.657   9.886 -0.1310 -0.0943 -0.0976
  115loPI   GL1 1829  17.461  13.739   9.485 -0.1340  0.0218  0.1805
  115loPI   GL2 1830  17.409  14.048   9.500  0.1946  0.4588  0.1902
  115loPI   C1A 1831  17.387  13.619   9.105  0.0396 -0.0928 -0.0307
  115loPI   C2A 1832  17.437  13.440   8.667 -0.0159  0.0419 -0.4083
  115loPI   C3A 1833  17.656  13.244   8.360 -0.1809 -0.0958  0.0601
  115loPI   C4A 1834  17.956  13.166   7.930  0.2847 -0.0801  0.3229
  115loPI   C5A 1835  17.985  12.942   7.472  0.0463 -0.3126 -0.3651
  115loPI   C6A 1836  17.806  12.662   7.250  0.1077  0.4652 -0.2667
  115loPI   C1B 1837  17.414  14.148   9.024 -0.0467 -0.0819  0.1709
  115loPI   C2B 1838  17.416  14.190   8.596 -0.1880 -0.1749  0.2926
  115loPI   C3B 1839  17.355  13.898   8.260 -0.0051 -0.1316  0.2462
  115loPI   C4B 1840  17.085  13.695   7.894 -0.0273 -0.1911 -0.1707
  116loPI    C1 1841  16.159  14.733  10.171 -0.2347 -0.1123 -0.0887
  116loPI    C2 1842  15.811  14.729  10.369 -0.2746  0.1996 -0.1474
  116loPI    C3 1843  16.147  14.839  10.557 -0.2262  0.0146 -0.1230
  116loPI   PO4 1844  16.125  14.883   9.958 -0.2774  0.1024  0.1466
  116loPI   GL1 1845  16.064  14.842   9.500 -0.2893 -0.0173 -0.0192
  116loPI   GL2 1846  16.090  15.172   9.252  0.0013  0.2064  0.0560
  116loPI   C1A 1847  16.099  14.674   9.104  0.2614 -0.1474  0.1711
  116loPI   C2A 1848  16.122  14.573   8.645 -0.0182  0.1432 -0.0897
  116loPI   C3A 1849  15.963  14.391   8.254  0.1931 -0.1445  0.2269
  116loPI   C4A 1850  16.228  14.525   7.896 -0.0176 -0.0948 -0.1196
  116loPI   C5A 1851  16.034  14.599   7.394  0.0632  0.0290  0.3341
  116loPI   C6A 1852  16.106  15.027   7.073  0.0381 -0.0633 -0.1141
  116loPI   C1B 1853  16.059  15.113   8.730 -0.2394 -0.2973  0.0638
  116loPI   C2B 1854  16.152  14.943   8.275  0.0215 -0.0149 -0.2822
  116loPI   C3B 1855  16.093  14.994   7.905  0.1529  0.0319 -0.0751
  116loPI   C4B 1856  16.340  15.024   7.547 -0.2071 -0.2341  0.2735
  117loPI    C1 1857   3.312   7.437  10.448  0.0746  0.2221  0.1174
  117loPI    C2 1858   3.091   7.178  10.659 -0.0042  0.0256 -0.2000
  117loPI    C3 1859   3.436   7.314  10.809  0.1313 -0.4084 -0.1034
  117loPI   PO4 1860   3.216   7.623  10.382 -0.0880 -0.2010  0.0746
  117loPI   GL1 1861   3.387   7.846  10.084  0.0446 -0.0307  0.1805
  117loPI   GL2 1862   3.782   7.854  10.062 -0.0995 -0.1870 -0.0931
  117loPI   C1A 1863   3.014   8.090   9.849 -0.2510  0.0178  0.0814
  117loPI   C2A 1864   3.231   8.408   9.632 -0.1296 -0.1629 -0.1038
  117loPI   C3A 1865   3.196   8.531   9.239 -0.1558 -0.0750  0.0632
  117loPI   C4A 1866   3.312   8.566   8.801  0.0011  0.1436 -0.2408
  117loPI   C5A 1867   3.143   8.286   8.394  0.3167  0.2420 -0.3297
  117loPI   C6A 1868   3.153   7.916   8.113  0.1342  0.1640 -0.0305
  117loPI   C1B 1869   3.632   8.071   9.677  0.2162 -0.1576 -0.0016
  117loPI   C2B 1870   3.417   8.097   9.263  0.2911  0.2182 -0.1988
  117loPI   C3B 1871   3.434   8.005   8.902  0.0304  0.4112  0.2204
  117loPI   C4B 1872   3.343   7.799   8.630 -0.1572 -0.0464  0.0443
  118loPI    C1 1873  12.756   9.622  10.519  0.2148  0.2005 -0.0036
  118loPI    C2 1874  12.452   9.465  10.726  0.1256  0.2721 -0.0796
  118loPI    C3 1875  12.792   9.562  10.913  0.2111 -0.0822 -0.0442
  118loPI   PO4 1876  12.618   9.675  10.198  0.1239  0.0222 -0.0340
  118loPI   GL1 1877  12.410   9.652   9.808 -0.0729  0.2439  0.3555
  118loPI   GL2 1878  12.647   9.838   9.619  0.0733  0.0152 -0.2123
  118loPI   C1A 1879  12.161   9.689   9.391 -0.0097 -0.0124  0.1471
  118loPI   C2A 1880  12.266   9.778   9.024  0.5418  0.2006 -0.2303
  118loPI   C3A 1881  12.381   9.903   8.638  0.0516 -0.0600 -0.1116
  118loPI   C4A 1882  12.138   9.924   8.275 -0.0432  0.0263 -0.0984
  118loPI   C5A 1883  11.932  10.186   7.957  0.1854  0.0507 -0.2661
  118loPI   C6A 1884  11.963  10.550   8.006  0.2433 -0.4456  0.0751
  118loPI   C1B 1885  12.660   9.620   9.239 -0.5446  0.2820 -0.2237
  118loPI   C2B 1886  12.620   9.403   8.822 -0.4535 -0.0241  0.2329
  118loPI   C3B 1887  12.536   9.336   8.388 -0.0193 -0.0626  0.1671
  118loPI   C4B 1888  12.566   9.638   8.140  0.0091  0.2698  0.1249
  119loPI    C1 1889  16.882  18.210  10.043  0.0992 -0.0865  0.1291
  119loPI    C2 1890  16.973  18.003  10.373 -0.0748 -0.2727  0.0622
  119loPI    C3 1891  16.591  18.042  10.261 -0.0380  0.0252  0.0339
  119loPI   PO4 1892  16.993  18.159   9.841  0.2006 -0.1934  0.0674
  119loPI   GL1 1893  16.941  18.031   9.464 -0.1586 -0.2621 -0.2167
  119loPI   GL2 1894  16.997  18.245   9.218 -0.3018 -0.2292  0.0201
  119loPI   C1A 1895  16.935  17.808   9.102 -0.1392  0.1211 -0.1292
  119loPI   C2A 1896  16.854  17.815   8.741  0.3928 -0.3000 -0.2476
  119loPI   C3A 1897  16.824  17.923   8.360  0.0009  0.1796  0.2198
  119loPI   C4A 1898  16.749  17.782   8.011 -0.3134 -0.1115  0.2092
  119loPI   C5A 1899  16.445  17.823   7.758 -0.0809  0.1251  0.4652
  119loPI   C6A 1900  16.164  18.143   7.416 -0.0305  0.1044 -0.2175
  119loPI   C1B 1901  16.879  18.353   8.876 -0.0262  0.0453 -0.0179
  119loPI   C2B 1902  16.711  18.427   8.459  0.1497 -0.0384  0.3111
  119loPI   C3B 1903  16.587  18.753   8.095  0.0197  0.1375 -0.2357
  119loPI   C4B 1904  16.529  19.073   7.876  0.0452  0.0694 -0.1052
  120loPI    C1 1905   3.013  14.405  10.173  0.0448  0.0717  0.1801
  120loPI    C2 1906   3.284  14.698  10.137  0.1301 -0.0278 -0.0011
  120loPI    C3 1907   3.049  14.681  10.460  0.1050  0.2566 -0.0024
  120loPI   PO4 1908   2.923  14.399   9.890 -0.2802  0.2686  0.2028
  120loPI   GL1 1909   2.944  14.307   9.395 -0.0071  0.0228  0.0191
  120loPI   GL2 1910   3.283  14.500   9.353 -0.0196 -0.2704 -0.2046
  120loPI   C1A 1911   3.061  14.004   9.131 -0.0771 -0.0214 -0.3207
  120loPI   C2A 1912   3.052  13.960   8.724 -0.1901  0.0061  0.0797
  120loPI   C3A 1913   3.116  13.639   8.425  0.0649  0.0454  0.0801
  120loPI   C4A 1914   3.250  13.352   8.108  0.0975 -0.0914 -0.2153
  120loPI   C5A 1915   3.151  13.041   7.858  0.3239 -0.2617  0.2485
  120loPI   C6A 1916   2.976  12.648   7.801  0.0556  0.2202 -0.3019
  120loPI   C1B 1917   3.627  14.217   9.252  0.4835 -0.0097 -0.1185
  120loPI   C2B 1918   3.875  14.346   8.946  0.1513  0.0723  0.0774
  120loPI   C3B 1919   4.144  14.209   8.593 -0.1594  0.3726  0.1096
  120loPI   C4B 1920   4.171  13.863   8.382  0.2731 -0.0181 -0.0881
  121loPI    C1 1921   8.829  13.830  10.005  0.0054 -0.2559  0.0464
  121loPI    C2 1922   9.225  13.778  10.038  0.0406 -0.0099  0.0327
  121loPI    C3 1923   9.004  13.841  10.365  0.0524  0.1172  0.0167
  121loPI   PO4 1924   8.738  13.591   9.782 -0.0376  0.0857  0.0968
  121loPI   GL1 1925   8.736  13.407   9.477 -0.1871 -0.0506 -0.0413
  121loPI   GL2 1926   8.841  13.099   9.538  0.0033 -0.0773 -0.0645
  121loPI   C1A 1927   8.688  13.423   8.980  0.0238  0.0768 -0.0301
  121loPI   C2A 1928   8.824  13.495   8.586  0.1029 -0.2842  0.1787
  121loPI   C3A 1929   8.746  13.390   8.133  0.1017 -0.0947  0.0826
  121loPI   C4A 1930   8.768  13.742   7.833 -0.0580 -0.0464  0.1870
  121loPI   C5A 1931   8.810  14.002   7.428  0.0264  0.2913  0.1262
  121loPI   C6A 1932   8.928  14.473   7.180  0.2053 -0.2628  0.1967
  121loPI   C1B 1933   8.843  12.888   9.157 -0.1724 -0.0780  0.1719
  121loPI   C2B 1934   8.944  12.916   8.754  0.1010  0.1361 -0.2053
  121loPI   C3B 1935   8.756  12.899   8.322  0.3058  0.2611 -0.1229
  121loPI   C4B 1936   8.540  12.911   7.904 -0.1750  0.1221 -0.0562
  122loPI    C1 1937  14.475   7.021  10.997  0.1285 -0.2808  0.0375
  122loPI    C2 1938  14.075   7.016  10.987  0.1266 -0.0664 -0.0322
  122loPI    C3 1939  14.277   6.676  11.046 -0.0696 -0.1490  0.1817
  122loPI   PO4 1940  14.603   7.128  10.669 -0.1205  0.1694  0.0943
  122loPI   GL1 1941  14.859   6.860  10.316 -0.0679 -0.1349 -0.1275
  122loPI   GL2 1942  14.592   7.145  10.170 -0.1464  0.3179 -0.1131
  122loPI   C1A 1943  15.049   7.367  10.218  0.0533 -0.2643  0.0178
  122loPI   C2A 1944  15.232   7.421   9.754 -0.2314  0.0298  0.5180
  122loPI   C3A 1945  15.168   7.359   9.269 -0.2547 -0.0927 -0.0364
  122loPI   C4A 1946  15.232   7.218   8.968  0.0323 -0.0620  0.3707
  122loPI   C5A 1947  15.226   6.804   8.644  0.0438  0.0091  0.1702
  122loPI   C6A 1948  15.009   6.587   8.279 -0.1566 -0.1938  0.4456
  122loPI   C1B 1949  14.817   7.115   9.812  0.0457  0.1243 -0.0633
  122loPI   C2B 1950  14.778   7.082   9.406  0.1848 -0.1530 -0.1865
  122loPI   C3B 1951  14.738   7.144   8.900  0.0602 -0.1770 -0.2296
  122loPI   C4B 1952  14.893   7.134   8.406 -0.2278 -0.0875 -0.0736
  123loPI    C1 1953   6.777   9.555  10.694  0.1035  0.0004  0.1119
  123loPI    C2 1954   7.149   9.458  10.803  0.0353 -0.0997  0.2593
  123loPI    C3 1955   7.005   9.821  10.887  0.1805  0.0236 -0.0094
  123loPI   PO4 1956   6.791   9.429  10.433  0.4714  0.1207 -0.2043
  123loPI   GL1 1957   6.854   9.356  10.047 -0.0621  0.1035 -0.1365
  123loPI   GL2 1958   6.743   9.523   9.782 -0.0607 -0.0956 -0.1113
  123loPI   C1A 1959   6.772   8.984   9.773  0.4744 -0.0033  0.1876
  123loPI   C2A 1960   6.773   8.768   9.396  0.0916  0.0726  0.1880
  123loPI   C3A 1961   6.861   8.758   9.051 -0.2414  0.0239  0.0068
  123loPI   C4A 1962   6.803   8.441   8.715 -0.0596  0.2985  0.3354
  123loPI   C5A 1963   7.153   8.174   8.507 -0.1528 -0.1986 -0.1570
  123loPI   C6A 1964   7.570   7.898   8.679 -0.1011  0.1171  0.0744
  123loPI   C1B 1965   6.533   9.509   9.424 -0.0866 -0.1496 -0.2901
  123loPI   C2B 1966   6.245   9.546   9.181  0.0895 -0.0696 -0.1025
  123loPI   C3B 1967   6.170   9.414   8.734 -0.0235 -0.1941  0.0305
  123loPI   C4B 1968   6.015   9.324   8.296 -0.0525  0.3813  0.1649
  124loPI    C1 1969   9.761   0.524  10.606 -0.1237 -0.2697 -0.2475
  124loPI    C2 1970   9.370   0.566  10.680 -0.0885 -0.0536 -0.1761
  124loPI    C3 1971   9.599   0.354  10.930 -0.1792 -0.2737 -0.2771
  124loPI   PO4 1972   9.748   0.385  10.369 -0.2507  0.0886  0.2012
  124loPI   GL1 1973   9.803   0.555   9.969 -0.0672 -0.0492  0.2568
  124loPI   GL2 1974  10.179   0.615   9.929 -0.1210  0.3995 -0.0697
  124loPI   C1A 1975   9.689   0.395   9.590 -0.1247 -0.3351  0.1680
  124loPI   C2A 1976   9.611   0.206   9.194 -0.2435 -0.2684  0.0952
  124loPI   C3A 1977   9.707   0.361   8.866  0.0485 -0.0876  0.2333
  124loPI   C4A 1978   9.549   0.495   8.433 -0.0944  0.3673  0.2879
  124loPI   C5A 1979   9.327   0.431   8.026 -0.2048  0.0473 -0.0740
  124loPI   C6A 1980   9.192   0.214   7.655  0.1744  0.2051  0.2532
  124loPI   C1B 1981  10.251   0.686   9.556 -0.0115 -0.3190  0.2485
  124loPI   C2B 1982  10.098   0.494   9.138  0.0770  0.0482  0.1030
  124loPI   C3B 1983  10.130   0.430   8.675 -0.1953 -0.0855  0.1055
  124loPI   C4B 1984  10.029   0.432   8.128 -0.0123  0.0924 -0.0805
  125loPI    C1 1985   8.273   8.958  10.783 -0.0040 -0.1619  0.1267
  125loPI    C2 1986   7.911   8.924  10.950 -0.0561  0.0170  0.0523
  125loPI    C3 1987   8.082   8.606  10.779 -0.0574 -0.1368  0.3301
  125loPI   PO4 1988   8.218   9.220  10.567 -0.1326  0.4370 -0.0063
  125loPI   GL1 1989   8.295   9.279  10.067 -0.1054  0.3400 -0.0923
  125loPI   GL2 1990   8.559   9.174  10.210  0.2374 -0.0156 -0.0202
  125loPI   C1A 1991   8.471   9.227   9.663  0.0431  0.0498 -0.3312
  125loPI   C2A 1992   8.424   9.128   9.289  0.2554  0.1559 -0.2024
  125loPI   C3A 1993   8.494   9.248   8.838  0.0976  0.0813  0.2363
  125loPI   C4A 1994   8.794   9.300   8.398 -0.0081 -0.2641 -0.1544
  125loPI   C5A 1995   8.726   9.459   7.908 -0.0262  0.0776 -0.0605
  125loPI   C6A 1996   8.418   9.493   7.592 -0.2824  0.0584 -0.1716
  125loPI   C1B 1997   8.864   9.149   9.927  0.4083 -0.0087  0.2450
  125loPI   C2B 1998   8.956   9.292   9.505  0.2029 -0.0080 -0.0824
  125loPI   C3B 1999   9.433   9.395   9.301 -0.0765  0.0928 -0.0300
  125loPI   C4B 2000   9.480   9.363   8.860 -0.0863 -0.3164 -0.0640
  126loPI    C1 2001   5.760   7.427  10.646 -0.1149  0.0449 -0.0147
  126loPI    C2 2002   6.160   7.417  10.659 -0.1126 -0.4402 -0.2278
  126loPI    C3 2003   5.947   7.350  10.991 -0.0222 -0.0840 -0.0930
  126loPI   PO4 2004   5.667   7.365  10.325 -0.4022  0.3287 -0.0332
  126loPI   GL1 2005   5.465   6.889  10.117 -0.2213 -0.1117 -0.1773
  126loPI   GL2 2006   5.408   7.150   9.971 -0.2677  0.0421 -0.0201
  126loPI   C1A 2007   5.647   6.829   9.734  0.0296 -0.1621 -0.3702
  126loPI   C2A 2008   5.566   6.782   9.382  0.1077  0.0140  0.0146
  126loPI   C3A 2009   5.657   6.757   8.971  0.2537 -0.0433 -0.0027
  126loPI   C4A 2010   5.760   6.815   8.660 -0.3545 -0.1617 -0.1056
  126loPI   C5A 2011   5.837   6.498   8.241 -0.1691 -0.1344 -0.1407
  126loPI   C6A 2012   5.706   6.563   7.907 -0.0435 -0.2145 -0.0468
  126loPI   C1B 2013   5.316   7.282   9.511  0.3516  0.2158  0.0605
  126loPI   C2B 2014   5.264   7.453   9.036  0.3064  0.0629 -0.1905
  126loPI   C3B 2015   5.267   7.418   8.571 -0.0061  0.0335  0.1505
  126loPI   C4B 2016   5.066   7.319   8.112  0.3763 -0.3318 -0.0035
  127loPI    C1 2017  14.115  15.815   9.963  0.1665  0.0528  0.1409
  127loPI    C2 2018  14.054  15.509  10.212  0.4379 -0.0784  0.0505
  127loPI    C3 2019  14.192  15.857  10.353 -0.0953  0.0856  0.1906
  127loPI   PO4 2020  13.914  15.778   9.785 -0.0921 -0.2441 -0.2585
  127loPI   GL1 2021  13.968  15.583   9.425  0.1221  0.1755 -0.0897
  127loPI   GL2 2022  13.847  15.221   9.394 -0.2685  0.2864  0.0445
  127loPI   C1A 2023  13.912  15.584   8.911  0.2365  0.1060 -0.0583
  127loPI   C2A 2024  13.871  15.548   8.528  0.1493 -0.0716 -0.1428
  127loPI   C3A 2025  13.948  15.504   8.143 -0.1169  0.1268  0.0915
  127loPI   C4A 2026  14.285  15.537   7.753  0.0146  0.0373  0.3109
  127loPI   C5A 2027  14.142  15.629   7.319 -0.2485 -0.0807 -0.0544
  127loPI   C6A 2028  13.927  15.811   7.071  0.6144  0.3118  0.1417
  127loPI   C1B 2029  13.706  14.983   9.012 -0.3797  0.0742  0.1200
  127loPI   C2B 2030  13.846  15.017   8.608  0.0045  0.1447  0.0410
  127loPI   C3B 2031  14.148  14.972   8.220 -0.1262 -0.0190  0.1285
  127loPI   C4B 2032  14.558  14.907   8.299  0.2469 -0.2533 -0.3055
  128loPI    C1 2033   4.631   2.049  10.260  0.0320  0.0045  0.0468
  128loPI    C2 2034   4.564   2.396  10.073 -0.0200  0.0306  0.1131
  128loPI    C3 2035   4.453   2.350  10.454  0.2399  0.0362  0.1918
  128loPI   PO4 2036   4.632   1.878   9.913  0.0476 -0.2290  0.0387
  128loPI   GL1 2037   4.596   1.790   9.468  0.1917 -0.0979  0.5277
  128loPI   GL2 2038   4.712   1.536   9.379  0.1772 -0.1637 -0.0885
  128loPI   C1A 2039   4.483   1.717   8.955 -0.3880 -0.2435 -0.0017
  128loPI   C2A 2040   4.624   1.784   8.514 -0.2742 -0.2744  0.0204
  128loPI   C3A 2041   4.576   1.868   8.102  0.1054 -0.0089  0.1117
  128loPI   C4A 2042   4.733   2.029   7.717  0.2192 -0.0476 -0.2302
  128loPI   C5A 2043   4.712   2.466   7.595 -0.2204  0.1274 -0.2832
  128loPI   C6A 2044   4.678   2.829   7.342 -0.0402  0.2077  0.1345
  128loPI   C1B 2045   4.698   1.291   9.132  0.0385 -0.0966 -0.0160
  128loPI   C2B 2046   4.837   1.349   8.744 -0.0867  0.1717 -0.0487
  128loPI   C3B 2047   4.880   1.444   8.264 -0.2988 -0.1815  0.0329
  128loPI   C4B 2048   4.852   1.571   7.770  0.0744  0.2228  0.1311
  129loPI    C1 2049  11.718   8.324  10.851  0.0839 -0.2375  0.1327
  129loPI    C2 2050  12.028   8.570  10.794  0.0474 -0.2631 -0.1930
  129loPI    C3 2051  12.035   8.307  11.095  0.0841  0.1354  0.1634
  129loPI   PO4 2052  11.622   8.276  10.587  0.0639 -0.0501 -0.1216
  129loPI   GL1 2053  11.532   8.456  10.211 -0.0909  0.0240 -0.0650
  129loPI   GL2 2054  11.136   8.563  10.165 -0.2019  0.1350  0.0236
  129loPI   C1A 2055  11.380   8.291   9.790 -0.0270 -0.0663  0.0060
  129loPI   C2A 2056  11.649   8.328   9.414 -0.0702 -0.0600 -0.1393
  129loPI   C3A 2057  11.989   8.175   9.078  0.3944  0.2168  0.2418
  129loPI   C4A 2058  12.037   7.863   8.879 -0.0869  0.1097  0.0851
  129loPI   C5A 2059  12.051   7.661   8.537  0.0796 -0.2324  0.1265
  129loPI   C6A 2060  12.051   7.825   8.289 -0.3833 -0.0582  0.1087
  129loPI   C1B 2061  10.997   8.669   9.778 -0.1917 -0.0642 -0.1919
  129loPI   C2B 2062  10.977   8.429   9.379  0.2561  0.0560  0.0668
  129loPI   C3B 2063  11.178   8.077   9.271  0.1527 -0.4098 -0.0021
  129loPI   C4B 2064  11.491   8.105   8.931  0.0357 -0.1457  0.1919
  130loPI    C1 2065  11.340  16.873  10.626  0.2316  0.1921 -0.1118
  130loPI    C2 2066  10.991  17.034  10.735  0.1041 -0.0827 -0.1066
  130loPI    C3 2067  11.327  17.141  10.924  0.0070  0.0922 -0.0296
  130loPI   PO4 2068  11.333  16.914  10.294  0.0518 -0.0800  0.1436
  130loPI   GL1 2069  11.592  17.264   9.955  0.0133 -0.1287  0.0451
  130loPI   GL2 2070  11.549  17.023   9.722  0.1858  0.1837  0.2400
  130loPI   C1A 2071  11.113  17.377   9.745 -0.2431 -0.0659 -0.0358
  130loPI   C2A 2072  10.966  17.417   9.430  0.0891 -0.0071 -0.2110
  130loPI   C3A 2073  11.016  17.298   8.940 -0.1929  0.0645  0.1313
  130loPI   C4A 2074  11.035  17.264   8.436  0.4691 -0.2267  0.0648
  130loPI   C5A 2075  11.055  17.450   8.072 -0.1187 -0.0532 -0.0469
  130loPI   C6A 2076  11.052  17.509   7.635 -0.1938 -0.2987  0.0306
  130loPI   C1B 2077  11.427  17.199   9.262 -0.1055  0.0456  0.0370
  130loPI   C2B 2078  11.508  17.386   8.932 -0.2092  0.3553 -0.1274
  130loPI   C3B 2079  11.347  17.620   8.614  0.1936 -0.1854  0.1419
  130loPI   C4B 2080  11.513  17.938   8.403 -0.0507  0.3690 -0.1379
  131loPI    C1 2081  14.571   2.496  10.578 -0.1123 -0.1728 -0.1596
  131loPI    C2 2082  14.660   2.262  10.891 -0.2564 -0.0800 -0.0480
  131loPI    C3 2083  14.477   2.613  10.949  0.0146  0.0914 -0.2091
  131loPI   PO4 2084  14.779   2.467  10.458  0.1587 -0.1489  0.2530
  131loPI   GL1 2085  14.557   2.327  10.055 -0.1266 -0.2429  0.0091
  131loPI   GL2 2086  14.313   2.570  10.095 -0.0003 -0.2337  0.4057
  131loPI   C1A 2087  14.846   2.410   9.634  0.2365  0.2399 -0.1789
  131loPI   C2A 2088  15.266   2.578   9.473  0.1315 -0.1577  0.1908
  131loPI   C3A 2089  15.229   2.446   8.993 -0.0893 -0.2521  0.2252
  131loPI   C4A 2090  15.192   2.704   8.665  0.0923 -0.2512 -0.1005
  131loPI   C5A 2091  15.052   3.075   8.572  0.1094  0.1539 -0.0739
  131loPI   C6A 2092  15.039   3.484   8.703 -0.0140 -0.3979  0.0792
  131loPI   C1B 2093  14.220   2.602   9.712  0.1133 -0.1471 -0.2640
  131loPI   C2B 2094  14.186   2.611   9.272 -0.3763 -0.1307 -0.2705
  131loPI   C3B 2095  14.239   2.728   8.864  0.3315 -0.1242  0.4226
  131loPI   C4B 2096  13.924   2.846   8.613 -0.1926  0.0430  0.1312
  132loPI    C1 2097  11.673  13.359  10.276  0.3811 -0.1296 -0.1428
  132loPI    C2 2098  11.389  13.472  10.534  0.3077 -0.2253 -0.1810
  132loPI    C3 2099  11.768  13.436  10.656  0.2664 -0.3090 -0.0767
  132loPI   PO4 2100  11.658  13.533  10.078  0.1828  0.0500  0.1145
  132loPI   GL1 2101  11.610  13.783   9.769 -0.2158  0.0881  0.0764
  132loPI   GL2 2102  12.012  14.012   9.866  0.0927 -0.1768  0.3522
  132loPI   C1A 2103  11.566  13.709   9.344 -0.1478 -0.1308 -0.0185
  132loPI   C2A 2104  11.456  13.624   8.884  0.2737  0.1899 -0.1072
  132loPI   C3A 2105  11.672  13.589   8.557  0.1427  0.2107  0.2621
  132loPI   C4A 2106  11.859  13.883   8.309  0.0944 -0.1705  0.0436
  132loPI   C5A 2107  11.986  13.945   7.909  0.0023  0.1329  0.1055
  132loPI   C6A 2108  12.216  13.876   7.542  0.2033  0.1526  0.0136
  132loPI   C1B 2109  12.053  13.932   9.356  0.3316 -0.1779  0.2341
  132loPI   C2B 2110  11.969  13.736   8.989  0.0337 -0.2082  0.1010
  132loPI   C3B 2111  12.188  13.657   8.630  0.0576  0.2048 -0.1785
  132loPI   C4B 2112  12.066  13.423   8.190  0.2812  0.1304  0.0471
  133loPI    C1 2113   7.274  17.150  10.195 -0.0620  0.0563 -0.0379
  133loPI    C2 2114   7.628  17.091  10.371 -0.0439 -0.1871 -0.1519
  133loPI    C3 2115   7.308  17.181  10.592  0.0927  0.0612 -0.0509
  133loPI   PO4 2116   7.336  17.293   9.904  0.3692 -0.0408 -0.0258
  133loPI   GL1 2117   7.579  17.233   9.586 -0.0277 -0.1940 -0.3498
  133loPI   GL2 2118   7.863  17.229   9.531  0.0932 -0.1407  0.0862
  133loPI   C1A 2119   7.554  17.374   9.141 -0.0568  0.2265  0.1460
  133loPI   C2A 2120   7.582  17.501   8.683  0.2217  0.0269 -0.0717
  133loPI   C3A 2121   7.540  17.632   8.248 -0.4013  0.3169  0.0827
  133loPI   C4A 2122   7.750  17.975   7.943  0.3596  0.2602 -0.2523
  133loPI   C5A 2123   8.029  17.922   7.740  0.0459 -0.2603 -0.2419
  133loPI   C6A 2124   8.245  18.122   7.364  0.0647  0.1962  0.0440
  133loPI   C1B 2125   7.978  17.186   9.097 -0.0441  0.0351 -0.0626
  133loPI   C2B 2126   8.094  17.171   8.699  0.0950  0.2638 -0.4179
  133loPI   C3B 2127   8.315  17.080   8.294 -0.1516  0.3966  0.0030
  133loPI   C4B 2128   8.355  16.654   8.092 -0.1501 -0.0714 -0.3093
  134loPI    C1 2129   8.630  14.778  10.426 -0.0570 -0.0151  0.0228
  134loPI    C2 2130   8.382  14.942  10.692 -0.0449 -0.0895  0.0806
  134loPI    C3 2131   8.771  14.910  10.776 -0.0648 -0.2465  0.1150
  134loPI   PO4 2132   8.342  14.691  10.217 -0.1866  0.0065  0.3573
  134loPI   GL1 2133   8.204  14.694   9.725  0.3764 -0.0685 -0.2917
  134loPI   GL2 2134   8.392  15.072   9.699 -0.0407 -0.0117 -0.3140
  134loPI   C1A 2135   8.292  14.889   9.219 -0.0244 -0.0357 -0.2496
  134loPI   C2A 2136   8.368  14.902   8.766 -0.4092 -0.1627 -0.5785
  134loPI   C3A 2137   8.408  14.971   8.416 -0.0505  0.2239 -0.0316
  134loPI   C4A 2138   8.304  15.015   8.076 -0.1946  0.1717  0.2180
  134loPI   C5A 2139   8.292  14.731   7.778 -0.0856  0.1017 -0.0750
  134loPI   C6A 2140   8.052  14.494   7.514  0.1160  0.0260  0.0140
  134loPI   C1B 2141   8.832  14.973   9.492 -0.3141 -0.0698 -0.1852
  134loPI   C2B 2142   9.040  15.076   9.084  0.2291 -0.2107  0.1396
  134loPI   C3B 2143   9.018  15.246   8.617  0.1026  0.1092  0.0676
  134loPI   C4B 2144   8.966  15.363   8.233 -0.2305  0.0402 -0.0399
  135loPI    C1 2145  14.222   9.286  11.090  0.1432 -0.0180  0.1644
  135loPI    C2 2146  13.866   9.372  11.251 -0.0312 -0.2739 -0.0770
  135loPI    C3 2147  14.030   9.620  10.983 -0.0188 -0.1475  0.0467
  135loPI   PO4 2148  14.286   9.007  11.095 -0.1135  0.1439  0.0253
  135loPI   GL1 2149  14.196   8.782  10.732  0.2119  0.3623  0.0970
  135loPI   GL2 2150  13.981   8.692  10.598  0.0924  0.2673  0.0540
  135loPI   C1A 2151  14.290   8.601  10.244 -0.0697 -0.0324 -0.1869
  135loPI   C2A 2152  14.549   8.648   9.911  0.2966 -0.0613 -0.0434
  135loPI   C3A 2153  14.338   8.576   9.523 -0.4442  0.1129  0.0502
  135loPI   C4A 2154  14.305   8.479   9.023  0.0058  0.3290  0.0560
  135loPI   C5A 2155  14.244   8.511   8.561 -0.0333  0.1710  0.2286
  135loPI   C6A 2156  14.323   8.863   8.395  0.0754 -0.0129 -0.3095
  135loPI   C1B 2157  13.742   8.682  10.247  0.1062  0.1895  0.2295
  135loPI   C2B 2158  13.656   8.803   9.812  0.1966  0.1522 -0.0617
  135loPI   C3B 2159  13.414   8.814   9.505  0.1866 -0.1204  0.0938
  135loPI   C4B 2160  13.311   8.807   8.968  0.2065  0.1482  0.1330
  136loPI    C1 2161   5.239  17.081   9.646  0.0654  0.0158 -0.1103
  136loPI    C2 2162   5.024  16.877   9.378 -0.0048 -0.0616  0.0040
  136loPI    C3 2163   5.169  16.691   9.700  0.0422  0.0408  0.0422
  136loPI   PO4 2164   5.437  17.202   9.527  0.5569  0.0553  0.1486
  136loPI   GL1 2165   5.766  17.223   9.157  0.2727 -0.0284 -0.2276
  136loPI   GL2 2166   5.723  16.871   9.028 -0.0520  0.0606  0.0368
  136loPI   C1A 2167   6.080  17.364   8.939  0.1524 -0.2224  0.2136
  136loPI   C2A 2168   6.141  17.447   8.549  0.2489  0.1784 -0.1939
  136loPI   C3A 2169   6.006  17.644   8.302  0.2794  0.0617 -0.1160
  136loPI   C4A 2170   5.809  18.025   8.059 -0.4045  0.3003  0.3348
  136loPI   C5A 2171   5.888  18.313   7.650  0.1083  0.5352 -0.2579
  136loPI   C6A 2172   6.087  18.258   7.286 -0.2185 -0.1816 -0.0059
  136loPI   C1B 2173   5.848  16.951   8.594 -0.1470 -0.4039  0.1272
  136loPI   C2B 2174   5.823  17.056   8.189  0.0527  0.0624 -0.1912
  136loPI   C3B 2175   5.933  17.246   7.772 -0.2050  0.3094 -0.1077
  136loPI   C4B 2176   5.870  17.341   7.422 -0.1605 -0.4385 -0.1572
  137loPI    C1 2177  10.671   8.119  10.817 -0.0078 -0.0775 -0.0791
  137loPI    C2 2178  10.312   8.231  10.954  0.0388 -0.0923  0.0567
  137loPI    C3 2179  10.374   7.852  10.844 -0.0002 -0.0793 -0.0113
  137loPI   PO4 2180  10.780   8.306  10.641  0.0961 -0.2417  0.1747
  137loPI   GL1 2181  10.596   8.590  10.155 -0.1171 -0.1753  0.0963
  137loPI   GL2 2182  10.265   8.298   9.941 -0.1880 -0.0455  0.5804
  137loPI   C1A 2183  10.532   8.947   9.908  0.1895  0.2776  0.0796
  137loPI   C2A 2184  10.387   9.154   9.525 -0.1425 -0.1469 -0.1332
  137loPI   C3A 2185  10.376   9.204   9.123 -0.0281 -0.1434  0.4369
  137loPI   C4A 2186  10.489   9.026   8.704 -0.0621 -0.1128 -0.5307
  137loPI   C5A 2187  10.672   8.982   8.341 -0.0901  0.0929  0.2988
  137loPI   C6A 2188  10.582   9.127   7.862  0.1296  0.1621  0.2912
  137loPI   C1B 2189  10.255   7.971   9.567  0.0593  0.1169  0.1883
  137loPI   C2B 2190  10.154   8.089   9.111  0.2270  0.0325 -0.0296
  137loPI   C3B 2191  10.016   8.194   8.665  0.1836  0.2426 -0.1470
  137loPI   C4B 2192   9.722   8.376   8.489 -0.1644 -0.0902  0.0106
  138loPI    C1 2193  12.783   4.689  11.056 -0.2341  0.2689  0.2120
  138loPI    C2 2194  12.817   4.361  11.282  0.1118  0.0524 -0.1388
  138loPI    C3 2195  12.909   4.720  11.434 -0.1379 -0.0245  0.2066
  138loPI   PO4 2196  12.890   4.507  10.779  0.3001  0.0203 -0.0455
  138loPI   GL1 2197  13.157   4.381  10.455  0.2849 -0.0069 -0.0467
  138loPI   GL2 2198  12.913   4.411  10.166 -0.1279  0.2182 -0.1694
  138loPI   C1A 2199  13.310   4.173  10.128  0.0107 -0.1640  0.2345
  138loPI   C2A 2200  13.554   4.417   9.837  0.1249  0.0405 -0.3144
  138loPI   C3A 2201  13.742   4.510   9.429  0.1297  0.1910  0.1316
  138loPI   C4A 2202  14.025   4.516   9.021 -0.0151 -0.0046 -0.0039
  138loPI   C5A 2203  14.199   4.338   8.593  0.0531 -0.0234 -0.3774
  138loPI   C6A 2204  14.366   4.174   8.274 -0.4343 -0.0085 -0.0289
  138loPI   C1B 2205  13.029   4.496   9.728  0.2935  0.4951  0.2514
  138loPI   C2B 2206  13.191   4.754   9.515 -0.1324  0.3230 -0.1750
  138loPI   C3B 2207  13.344   4.704   9.144 -0.4542 -0.3554  0.0982
  138loPI   C4B 2208  13.493   4.503   8.922 -0.0717  0.1832 -0.0529
  139loPI    C1 2209   8.328  12.047  10.290  0.0233 -0.0869 -0.3032
  139loPI    C2 2210   8.581  12.328  10.421 -0.2740 -0.0310  0.1734
  139loPI    C3 2211   8.565  11.972  10.603 -0.0786 -0.2751 -0.2694
  139loPI   PO4 2212   8.398  11.992  10.111 -0.1040  0.0938  0.0062
  139loPI   GL1 2213   8.266  11.677   9.781  0.0177  0.1609 -0.0013
  139loPI   GL2 2214   8.483  11.426   9.911 -0.0472 -0.3463 -0.0168
  139loPI   C1A 2215   8.175  11.647   9.265 -0.0280 -0.2840 -0.2074
  139loPI   C2A 2216   8.020  11.607   8.942  0.0993  0.0471  0.3196
  139loPI   C3A 2217   7.954  11.660   8.628  0.0733 -0.0471  0.2528
  139loPI   C4A 2218   7.973  11.962   8.415 -0.0851 -0.0372  0.0327
  139loPI   C5A 2219   8.061  12.159   8.030  0.1276 -0.3514  0.1024
  139loPI   C6A 2220   8.147  12.484   7.791 -0.1184 -0.0591  0.2391
  139loPI   C1B 2221   8.591  11.456   9.499  0.0163 -0.0224  0.1176
  139loPI   C2B 2222   8.607  11.465   9.015  0.0242  0.1107 -0.3020
  139loPI   C3B 2223   8.494  11.480   8.682 -0.0940  0.1444  0.0513
  139loPI   C4B 2224   8.427  11.722   8.247 -0.0435  0.1666  0.2722
  140loPI    C1 2225  12.728  14.832  10.065 -0.0850  0.0472 -0.0968
  140loPI    C2 2226  12.460  14.949  10.338 -0.0905  0.0345 -0.0968
  140loPI    C3 2227  12.841  14.888  10.444 -0.0847  0.0655 -0.0996
  140loPI   PO4 2228  12.608  14.696   9.903 -0.2733  0.0961  0.0215
  140loPI   GL1 2229  12.880  14.740   9.558 -0.2574  0.1324 -0.0921
  140loPI   GL2 2230  13.088  14.449   9.424  0.2178  0.0868  0.1689
  140loPI   C1A 2231  12.726  14.734   9.150 -0.3356 -0.1702 -0.0118
  140loPI   C2A 2232  12.633  14.501   8.862 -0.1776 -0.0025 -0.0273
  140loPI   C3A 2233  12.662  14.209   8.561 -0.2021 -0.2502 -0.0889
  140loPI   C4A 2234  12.926  13.875   8.306  0.5094 -0.2188  0.1354
  140loPI   C5A 2235  13.055  13.787   7.953  0.0051 -0.1541 -0.4273
  140loPI   C6A 2236  13.110  13.454   7.700 -0.0200 -0.3258 -0.0163
  140loPI   C1B 2237  13.127  14.442   8.903  0.0800 -0.1967  0.1230
  140loPI   C2B 2238  13.209  14.307   8.475 -0.1219  0.0707  0.1424
  140loPI   C3B 2239  13.233  14.263   8.028  0.4367  0.0263 -0.1573
  140loPI   C4B 2240  12.979  14.359   7.617 -0.1667  0.1498 -0.1054
  141loPI    C1 2241   2.382  10.974  10.576 -0.2130 -0.0817  0.2790
  141loPI    C2 2242   2.184  11.308  10.669 -0.2488 -0.0230  0.0020
  141loPI    C3 2243   2.125  10.975  10.882 -0.2311  0.1387  0.2644
  141loPI   PO4 2244   2.463  10.894  10.302 -0.1619 -0.1513 -0.1179
  141loPI   GL1 2245   2.311  10.960   9.859 -0.1394  0.0795  0.3064
  141loPI   GL2 2246   1.896  11.079   9.830  0.1551 -0.4833  0.0537
  141loPI   C1A 2247   2.461  11.131   9.486 -0.3703 -0.1813  0.0185
  141loPI   C2A 2248   2.347  11.096   9.109  0.1873  0.0302  0.2009
  141loPI   C3A 2249   2.494  10.725   8.821 -0.1204  0.0128  0.1166
  141loPI   C4A 2250   2.775  10.843   8.498 -0.0746  0.1960 -0.0695
  141loPI   C5A 2251   3.015  11.061   8.242  0.2538 -0.1392  0.2852
  141loPI   C6A 2252   3.385  11.332   8.254 -0.2448 -0.0262  0.1266
  141loPI   C1B 2253   2.072  10.877   9.477  0.2755 -0.0092  0.0405
  141loPI   C2B 2254   2.081  10.683   9.173  0.4154 -0.3429  0.1862
  141loPI   C3B 2255   1.994  10.658   8.739  0.2378 -0.1402  0.2742
  141loPI   C4B 2256   1.990  10.582   8.392 -0.0833 -0.1005  0.4009
  142loPI    C1 2257   3.850  15.139   9.429  0.2089 -0.0865  0.0162
  142loPI    C2 2258   3.644  15.452   9.568  0.2650 -0.0729  0.0692
  142loPI    C3 2259   3.914  15.270   9.801  0.2123 -0.1786  0.0483
  142loPI   PO4 2260   3.901  15.258   9.138  0.3526 -0.1884  0.2754
  142loPI   GL1 2261   4.208  15.297   8.927 -0.4589 -0.1312 -0.1778
  142loPI   GL2 2262   4.317  15.514   8.821  0.0270  0.1418 -0.0069
  142loPI   C1A 2263   4.182  15.136   8.535  0.0798  0.2409 -0.0839
  142loPI   C2A 2264   4.493  15.005   8.199 -0.1636 -0.2359 -0.2380
  142loPI   C3A 2265   4.813  15.053   7.864 -0.2578  0.0240 -0.4522
  142loPI   C4A 2266   4.820  14.769   7.470 -0.1790  0.0804  0.2214
  142loPI   C5A 2267   5.004  14.603   7.196 -0.0259 -0.1556  0.2824
  142loPI   C6A 2268   5.016  14.610   6.889  0.0510 -0.1172  0.1080
  142loPI   C1B 2269   4.667  15.385   8.572  0.5185 -0.0800 -0.1131
  142loPI   C2B 2270   4.966  15.289   8.266 -0.0594 -0.0341 -0.0553
  142loPI   C3B 2271   5.132  15.423   7.834  0.1739  0.0026  0.3139
  142loPI   C4B 2272   5.572  15.379   7.690  0.2249 -0.2223  0.0046
  143loPI    C1 2273   8.041  14.185  10.136  0.2319 -0.3711  0.0413
  143loPI    C2 2274   8.075  14.148  10.533  0.0078 -0.1112  0.0876
  143loPI    C3 2275   7.867  13.877  10.324  0.0252 -0.1831  0.1628
  143loPI   PO4 2276   7.937  14.397  10.074  0.0255 -0.1068 -0.0180
  143loPI   GL1 2277   7.739  14.532   9.768  0.0710 -0.2195 -0.1753
  143loPI   GL2 2278   7.569  14.293   9.681 -0.0767 -0.0184  0.1081
  143loPI   C1A 2279   7.736  14.693   9.340  0.2858 -0.0537  0.1414
  143loPI   C2A 2280   7.859  14.678   8.878  0.1482 -0.1215 -0.0834
  143loPI   C3A 2281   7.862  14.662   8.419  0.1992  0.0720  0.0491
  143loPI   C4A 2282   7.842  14.782   8.072 -0.0562  0.0864  0.1335
  143loPI   C5A 2283   7.944  15.061   7.672 -0.1693 -0.3940 -0.3184
  143loPI   C6A 2284   7.986  15.558   7.652 -0.0982  0.3455 -0.1259
  143loPI   C1B 2285   7.287  14.448   9.378  0.1935 -0.1644 -0.0736
  143loPI   C2B 2286   7.358  14.517   8.956  0.4251 -0.0108 -0.0760
  143loPI   C3B 2287   7.425  14.439   8.529 -0.1453 -0.2134  0.1380
  143loPI   C4B 2288   7.355  14.583   8.106 -0.2996  0.2455 -0.0967
  144loPI    C1 2289  13.767  10.964  10.354 -0.0405 -0.0692  0.2418
  144loPI    C2 2290  13.685  10.731  10.668 -0.0140  0.0120  0.3095
  144loPI    C3 2291  13.993  10.985  10.683 -0.0441  0.0530  0.2369
  144loPI   PO4 2292  13.776  10.842  10.131  0.1471 -0.0854 -0.0280
  144loPI   GL1 2293  13.790  10.745   9.745 -0.0865 -0.0575  0.2961
  144loPI   GL2 2294  14.128  10.600   9.800 -0.0028 -0.1295 -0.0953
  144loPI   C1A 2295  13.894  10.701   9.360 -0.0437  0.1968 -0.0085
  144loPI   C2A 2296  13.960  10.607   8.901  0.0914  0.2467  0.0667
  144loPI   C3A 2297  13.960  10.451   8.539  0.3043  0.0422 -0.1224
  144loPI   C4A 2298  13.761  10.279   8.076  0.1313  0.0610 -0.1139
  144loPI   C5A 2299  13.737   9.908   7.896 -0.0665 -0.0550  0.2410
  144loPI   C6A 2300  13.378   9.846   7.718 -0.2689 -0.3999 -0.0692
  144loPI   C1B 2301  14.425  10.652   9.497 -0.0937 -0.1025 -0.2919
  144loPI   C2B 2302  14.410  10.651   9.036  0.2098 -0.1529  0.1660
  144loPI   C3B 2303  14.323  10.717   8.579 -0.0564 -0.1290  0.2705
  144loPI   C4B 2304  14.353  10.430   8.233 -0.0488  0.1942 -0.0542
  145loPI    C1 2305   1.290   1.721   9.768 -0.3301 -0.0428  0.1029
  145loPI    C2 2306   1.466   2.057   9.894 -0.3413 -0.0320  0.0898
  145loPI    C3 2307   1.560   1.706  10.062  0.0674 -0.0958 -0.2552
  145loPI   PO4 2308   1.305   1.730   9.564 -0.4616 -0.0699 -0.0568
  145loPI   GL1 2309   1.371   1.669   9.167  0.3961  0.0606 -0.0855
  145loPI   GL2 2310   1.484   1.353   9.160 -0.2354 -0.4702  0.0955
  145loPI   C1A 2311   1.291   1.886   8.800  0.0246  0.1169  0.0170
  145loPI   C2A 2312   1.189   1.961   8.336 -0.0523  0.1882  0.1360
  145loPI   C3A 2313   1.197   2.023   7.987  0.2695  0.2745  0.0772
  145loPI   C4A 2314   1.211   2.071   7.625 -0.0960  0.2896 -0.2281
  145loPI   C5A 2315   1.450   2.023   7.237 -0.0707  0.1207 -0.0416
  145loPI   C6A 2316   1.663   1.815   6.909 -0.2388 -0.1877  0.1721
  145loPI   C1B 2317   1.450   1.312   8.688 -0.0973 -0.2687 -0.5484
  145loPI   C2B 2318   1.380   1.206   8.275 -0.1292 -0.1560 -0.0184
  145loPI   C3B 2319   1.385   1.060   7.843 -0.0384 -0.2517  0.0737
  145loPI   C4B 2320   1.441   0.993   7.350  0.2627  0.1184  0.0431
  146loPI    C1 2321   2.852   9.472  10.603 -0.0177 -0.0805 -0.1187
  146loPI    C2 2322   2.662   9.520  10.952  0.1102 -0.0009 -0.0594
  146loPI    C3 2323   2.642   9.169  10.760 -0.0851  0.0026 -0.0479
  146loPI   PO4 2324   2.749   9.767  10.463 -0.1180  0.0236  0.0317
  146loPI   GL1 2325   2.865  10.031  10.122 -0.1747 -0.1794  0.0604
  146loPI   GL2 2326   3.124   9.838  10.041  0.1797 -0.3767 -0.4220
  146loPI   C1A 2327   2.625   9.967   9.729  0.2883 -0.0151  0.1287
  146loPI   C2A 2328   2.768   9.943   9.313  0.1513 -0.2996  0.3473
  146loPI   C3A 2329   2.798   9.923   8.881  0.0267  0.1784  0.1712
  146loPI   C4A 2330   2.656   9.725   8.429 -0.1477  0.1032 -0.1624
  146loPI   C5A 2331   2.905   9.782   8.068  0.1120  0.0718 -0.1330
  146loPI   C6A 2332   3.163  10.139   7.842 -0.0281 -0.0858  0.1981
  146loPI   C1B 2333   3.487   9.861   9.805 -0.2430  0.0234  0.1127
  146loPI   C2B 2334   3.665   9.951   9.423 -0.1913 -0.0241 -0.0007
  146loPI   C3B 2335   3.700   9.919   8.983 -0.0170  0.0344 -0.0318
  146loPI   C4B 2336   3.953  10.193   8.767 -0.1179  0.0045  0.0726
  147loPI    C1 2337   4.848   5.006  10.267 -0.0800 -0.2392  0.1441
  147loPI    C2 2338   5.119   4.831  10.030  0.0383 -0.1460  0.2093
  147loPI    C3 2339   5.074   4.707  10.408 -0.0321 -0.1820  0.1892
  147loPI   PO4 2340   4.616   4.976  10.145 -0.0933 -0.0835  0.0585
  147loPI   GL1 2341   4.603   4.900   9.785 -0.1755  0.0850  0.1437
  147loPI   GL2 2342   4.248   5.078   9.862  0.0366  0.2599  0.0181
  147loPI   C1A 2343   4.502   4.865   9.356  0.0878  0.1211  0.1115
  147loPI   C2A 2344   4.496   4.954   8.995  0.1601 -0.0103 -0.0259
  147loPI   C3A 2345   4.822   4.837   8.691 -0.0833  0.2014  0.3258
  147loPI   C4A 2346   5.191   4.706   8.402 -0.0675 -0.0568  0.1273
  147loPI   C5A 2347   5.639   4.815   8.261 -0.1576  0.2052  0.2162
  147loPI   C6A 2348   5.957   4.732   7.934  0.0471  0.1441  0.2005
  147loPI   C1B 2349   4.108   4.715   9.592 -0.3016 -0.2157 -0.0607
  147loPI   C2B 2350   3.981   4.746   9.154  0.2339 -0.1065  0.5206
  147loPI   C3B 2351   3.967   4.753   8.624 -0.2446 -0.1093  0.1982
  147loPI   C4B 2352   4.036   4.815   8.205  0.3100  0.0093  0.0007
  148loPI    C1 2353   0.144  11.465  10.120  0.0101  0.0283 -0.1008
  148loPI    C2 2354  -0.154  11.695   9.985  0.1042  0.1100 -0.1713
  148loPI    C3 2355  -0.062  11.694  10.375  0.0390  0.1159 -0.1557
  148loPI   PO4 2356   0.323  11.408   9.912 -0.0286 -0.1442  0.0801
  148loPI   GL1 2357   0.518  11.623   9.653  0.1679  0.0273  0.0831
  148loPI   GL2 2358   0.550  11.940   9.597 -0.1487  0.1343  0.0670
  148loPI   C1A 2359   0.477  11.713   9.139 -0.0382  0.1380 -0.1305
  148loPI   C2A 2360   0.412  11.716   8.793  0.2864  0.2585 -0.0137
  148loPI   C3A 2361   0.482  11.963   8.379  0.1377 -0.1633 -0.2171
  148loPI   C4A 2362   0.528  12.358   8.083 -0.3785  0.0815 -0.0064
  148loPI   C5A 2363   0.615  12.505   7.645  0.1685 -0.1832  0.1235
  148loPI   C6A 2364   0.610  12.924   7.592 -0.1382 -0.2528 -0.0856
  148loPI   C1B 2365   0.481  12.177   9.299  0.3158 -0.3894  0.0752
  148loPI   C2B 2366   0.534  12.261   8.874 -0.0959  0.3389 -0.2234
  148loPI   C3B 2367   0.844  12.389   8.565  0.2069  0.0413  0.2090
  148loPI   C4B 2368   1.006  12.286   8.147 -0.3625  0.0031 -0.3258
  149loPI    C1 2369  18.411   1.330  10.049  0.1101 -0.1039  0.0494
  149loPI    C2 2370  18.504   1.256   9.667 -0.1060 -0.0322 -0.0186
  149loPI    C3 2371  18.594   0.988   9.950  0.3005  0.0335 -0.0796
  149loPI   PO4 2372  18.386   1.642   9.955 -0.0896  0.1223 -0.3186
  149loPI   GL1 2373  18.216   1.925   9.836 -0.1408  0.2213  0.0109
  149loPI   GL2 2374  18.049   1.588   9.520  0.1707 -0.4203 -0.1897
  149loPI   C1A 2375  18.387   1.951   9.324 -0.3707  0.1480 -0.0069
  149loPI   C2A 2376  18.207   2.127   8.925  0.1129 -0.0074  0.2725
  149loPI   C3A 2377  18.087   2.079   8.417 -0.0066  0.1034  0.2482
  149loPI   C4A 2378  17.971   1.762   8.063  0.1386 -0.5017 -0.2673
  149loPI   C5A 2379  18.031   1.343   7.927  0.0783 -0.0133  0.1201
  149loPI   C6A 2380  17.857   0.949   7.763 -0.1267  0.0386  0.0184
  149loPI   C1B 2381  18.071   1.548   9.084 -0.1045 -0.0769 -0.2449
  149loPI   C2B 2382  18.122   1.672   8.719 -0.1796 -0.0225 -0.1394
  149loPI   C3B 2383  18.374   1.580   8.378  0.1596  0.0261  0.2520
  149loPI   C4B 2384  18.563   1.351   7.911  0.3437 -0.1352 -0.1582
  150loPI    C1 2385   1.771   0.935   9.574 -0.2831 -0.1350 -0.1095
  150loPI    C2 2386   1.655   1.314   9.623  0.3263  0.0629 -0.1070
  150loPI    C3 2387   1.705   1.077   9.942  0.2132  0.0635 -0.0883
  150loPI   PO4 2388   1.650   0.873   9.338 -0.0050  0.0422 -0.3116
  150loPI   GL1 2389   1.358   0.782   9.010 -0.0207 -0.2651  0.1759
  150loPI   GL2 2390   1.212   0.503   8.925  0.0710  0.1811 -0.0270
  150loPI   C1A 2391   1.386   0.788   8.552 -0.1198  0.0067 -0.0216
  150loPI   C2A 2392   1.513   0.720   8.172 -0.0627 -0.0488 -0.1020
  150loPI   C3A 2393   1.748   0.676   8.006  0.1552 -0.1067  0.1279
  150loPI   C4A 2394   1.858   0.659   7.603  0.0181  0.1961  0.1807
  150loPI   C5A 2395   2.002   0.829   7.230  0.0942  0.0057 -0.0132
  150loPI   C6A 2396   2.297   0.775   6.900  0.2882  0.2592  0.2744
  150loPI   C1B 2397   1.088   0.451   8.452 -0.1278 -0.1784 -0.0397
  150loPI   C2B 2398   1.137   0.396   8.049  0.1100 -0.2252 -0.1513
  150loPI   C3B 2399   0.810   0.461   7.751  0.2150  0.1823  0.0170
  150loPI   C4B 2400   0.639   0.457   7.415  0.1477  0.3334  0.1735
  151loPI    C1 2401   3.592   9.594  10.254 -0.2582 -0.3111 -0.3793
  151loPI    C2 2402   3.273   9.655  10.487  0.0546 -0.1574  0.0210
  151loPI    C3 2403   3.454   9.299  10.487  0.1423 -0.1135  0.1283
  151loPI   PO4 2404   3.831   9.763  10.314 -0.2878 -0.1080 -0.1489
  151loPI   GL1 2405   4.069   9.832  10.006 -0.2186  0.1513  0.3622
  151loPI   GL2 2406   3.989  10.133   9.949  0.1347 -0.1610  0.2046
  151loPI   C1A 2407   3.973   9.598   9.645 -0.0335 -0.2402 -0.1739
  151loPI   C2A 2408   3.839   9.497   9.235  0.1854  0.0509 -0.1276
  151loPI   C3A 2409   4.029   9.614   8.882  0.0928 -0.2135  0.0564
  151loPI   C4A 2410   3.887   9.693   8.530 -0.0426  0.1373 -0.0667
  151loPI   C5A 2411   3.990   9.938   8.092 -0.2070  0.0515  0.0595
  151loPI   C6A 2412   3.666  10.226   7.868  0.0492  0.1982 -0.5291
  151loPI   C1B 2413   4.148  10.081   9.581 -0.0327 -0.1272 -0.0850
  151loPI   C2B 2414   4.182   9.870   9.284  0.3107 -0.0317  0.0583
  151loPI   C3B 2415   4.439   9.827   8.916 -0.0164 -0.1763 -0.0486
  151loPI   C4B 2416   4.378   9.923   8.506 -0.3328 -0.2130  0.3210
  152loPI    C1 2417   6.363  15.145  10.149 -0.1873  0.0063 -0.2187
  152loPI    C2 2418   6.200  15.377  10.432 -0.1666  0.1116 -0.2927
  152loPI    C3 2419   6.071  15.002  10.382  0.0240 -0.0032  0.0450
  152loPI   PO4 2420   6.387  15.266   9.950  0.0897  0.0118  0.2728
  152loPI   GL1 2421   6.520  15.289   9.581 -0.0647  0.1655  0.0323
  152loPI   GL2 2422   6.748  15.412   9.580 -0.0543  0.1280 -0.0813
  152loPI   C1A 2423   6.579  15.168   9.152 -0.0377  0.0702  0.0928
  152loPI   C2A 2424   6.569  15.019   8.716  0.3722 -0.0957 -0.0831
  152loPI   C3A 2425   6.508  15.053   8.336  0.1906 -0.1825 -0.0861
  152loPI   C4A 2426   6.507  15.043   7.988 -0.0501 -0.1685  0.0397
  152loPI   C5A 2427   6.693  15.444   7.800 -0.3088 -0.1725 -0.1789
  152loPI   C6A 2428   6.712  15.930   7.688 -0.0764 -0.1751  0.2354
  152loPI   C1B 2429   7.008  15.455   9.210 -0.5330  0.2001 -0.6452
  152loPI   C2B 2430   7.022  15.226   8.893 -0.3379  0.0401 -0.2564
  152loPI   C3B 2431   6.956  15.216   8.529 -0.0716 -0.1748  0.0104
  152loPI   C4B 2432   6.927  15.265   8.163 -0.1423  0.0826 -0.0965
  153loPI    C1 2433  11.642  12.533  10.636 -0.0766 -0.1414 -0.2012
  153loPI    C2 2434  12.040  12.573  10.616 -0.0871  0.0333 -0.0884
  153loPI    C3 2435  11.880  12.250  10.790  0.0053  0.0095 -0.0471
  153loPI   PO4 2436  11.558  12.506  10.388  0.1676  0.1236 -0.4170
  153loPI   GL1 2437  11.751  12.395  10.045  0.1644 -0.0721 -0.0039
  153loPI   GL2 2438  11.784  12.067   9.932  0.1976 -0.0063 -0.0068
  153loPI   C1A 2439  11.514  12.443   9.638 -0.1787 -0.2951 -0.2386
  153loPI   C2A 2440  11.544  12.348   9.131  0.0360  0.4269  0.4488
  153loPI   C3A 2441  11.498  12.249   8.769  0.2751  0.1014  0.1600
  153loPI   C4A 2442  11.497  12.127   8.388  0.1501 -0.0267 -0.1646
  153loPI   C5A 2443  11.179  12.052   8.107  0.1525  0.1975 -0.2019
  153loPI   C6A 2444  10.851  11.841   7.919  0.0635  0.1550  0.1070
  153loPI   C1B 2445  11.702  11.945   9.553 -0.1012 -0.0098  0.1421
  153loPI   C2B 2446  11.687  11.859   9.088 -0.0917 -0.2319 -0.3652
  153loPI   C3B 2447  11.595  11.685   8.631 -0.1197 -0.1361 -0.0139
  153loPI   C4B 2448  11.304  11.553   8.272 -0.0791  0.2537 -0.0531
  154loPI    C1 2449   5.727   3.802  10.280  0.0115  0.1190  0.0822
  154loPI    C2 2450   5.450   3.720  10.557  0.0276  0.0711  0.0843
  154loPI    C3 2451   5.571   4.097  10.499 -0.2505  0.1328 -0.1178
  154loPI   PO4 2452   5.561   3.480  10.082  0.1227 -0.2542  0.3570
  154loPI   GL1 2453   5.475   3.444   9.647 -0.2270 -0.0856 -0.2539
  154loPI   GL2 2454   5.340   3.701   9.541  0.0312  0.2763  0.1752
  154loPI   C1A 2455   5.527   3.037   9.351  0.0271  0.4691  0.0281
  154loPI   C2A 2456   5.539   3.030   8.891  0.1462 -0.2984 -0.2087
  154loPI   C3A 2457   5.507   2.855   8.502  0.3429  0.0498 -0.1599
  154loPI   C4A 2458   5.684   2.877   8.104 -0.2808  0.3042  0.4216
  154loPI   C5A 2459   5.767   2.642   7.759  0.1020 -0.0447  0.0258
  154loPI   C6A 2460   5.814   2.362   7.347 -0.2355  0.1460 -0.1500
  154loPI   C1B 2461   5.436   3.534   9.131  0.0140 -0.0839 -0.0622
  154loPI   C2B 2462   5.563   3.487   8.749  0.1847 -0.0908  0.3351
  154loPI   C3B 2463   5.710   3.328   8.355  0.0609  0.2835  0.2450
  154loPI   C4B 2464   5.945   3.337   7.865  0.2428 -0.1728  0.0877
  155loPI    C1 2465   1.876   2.133   9.621  0.0306 -0.0923 -0.0920
  155loPI    C2 2466   1.776   1.772   9.481  0.0228 -0.1653  0.0984
  155loPI    C3 2467   2.025   1.803   9.792  0.2742  0.0035 -0.1146
  155loPI   PO4 2468   1.953   2.276   9.452  0.0581  0.2301  0.1011
  155loPI   GL1 2469   1.916   2.407   9.123 -0.2080  0.2926  0.1080
  155loPI   GL2 2470   1.812   2.072   9.036  0.0769  0.1574  0.2564
  155loPI   C1A 2471   1.776   2.604   8.774  0.2827 -0.1706 -0.0428
  155loPI   C2A 2472   1.579   2.745   8.399 -0.1497  0.0085  0.0159
  155loPI   C3A 2473   1.785   2.758   8.041  0.2420  0.3291  0.0215
  155loPI   C4A 2474   1.805   2.644   7.641 -0.0977 -0.0104  0.0154
  155loPI   C5A 2475   2.133   2.782   7.366  0.2433  0.3038 -0.3087
  155loPI   C6A 2476   2.540   2.609   7.281  0.1998  0.0572  0.1136
  155loPI   C1B 2477   1.625   2.168   8.643  0.0462  0.2065 -0.0790
  155loPI   C2B 2478   1.546   2.286   8.208  0.3864  0.1978  0.1952
  155loPI   C3B 2479   1.338   2.542   7.845 -0.3384 -0.0171  0.2030
  155loPI   C4B 2480   1.418   2.793   7.396 -0.5384 -0.1837  0.0198
  156loPI    C1 2481   0.333   8.490  10.612 -0.0731  0.0027  0.0855
  156loPI    C2 2482   0.143   8.480  10.964 -0.0668 -0.0993  0.0863
  156loPI    C3 2483   0.519   8.613  10.943 -0.2099  0.3152  0.0503
  156loPI   PO4 2484   0.197   8.583  10.487  0.2241  0.0750  0.3801
  156loPI   GL1 2485   0.029   8.637  10.044 -0.2461  0.2157  0.0417
  156loPI   GL2 2486  -0.123   8.377  10.057  0.0888 -0.1991 -0.4033
  156loPI   C1A 2487  -0.041   8.625   9.634 -0.1267  0.0235 -0.0986
  156loPI   C2A 2488  -0.122   8.699   9.186  0.2537  0.3735  0.0280
  156loPI   C3A 2489  -0.059   8.813   8.771 -0.1972  0.1936  0.0191
  156loPI   C4A 2490   0.025   8.785   8.393  0.1521 -0.0228  0.2061
  156loPI   C5A 2491  -0.181   8.887   8.051  0.3466  0.1336 -0.1400
  156loPI   C6A 2492  -0.425   9.164   7.730 -0.1053  0.1161 -0.0303
  156loPI   C1B 2493  -0.031   8.178   9.733  0.1480 -0.0945 -0.2661
  156loPI   C2B 2494   0.083   8.244   9.316  0.0342  0.2100  0.1183
  156loPI   C3B 2495   0.015   8.288   8.902 -0.2444 -0.0155 -0.0601
  156loPI   C4B 2496   0.253   8.350   8.526 -0.1907  0.1008 -0.1931
  157loPI    C1 2497  10.347   1.078  10.720  0.2645  0.2211  0.1300
  157loPI    C2 2498  10.652   0.832  10.797  0.0837 -0.0545 -0.0186
  157loPI    C3 2499  10.276   0.710  10.858 -0.0141  0.1316 -0.2355
  157loPI   PO4 2500  10.431   1.293  10.498 -0.2430 -0.1439  0.1381
  157loPI   GL1 2501  10.386   1.369  10.166  0.1129  0.1795  0.1141
  157loPI   GL2 2502  10.114   1.135   9.977 -0.1829  0.1712 -0.3054
  157loPI   C1A 2503  10.615   1.566   9.911  0.0108  0.3010 -0.0582
  157loPI   C2A 2504  10.647   1.571   9.463 -0.2121 -0.2149  0.1241
  157loPI   C3A 2505  10.564   1.340   9.017  0.0646 -0.1869 -0.3242
  157loPI   C4A 2506  10.394   1.513   8.624 -0.3137 -0.3671  0.1147
  157loPI   C5A 2507  10.389   1.814   8.375  0.0338  0.0052 -0.0757
  157loPI   C6A 2508  10.677   2.076   8.268  0.0532 -0.1764  0.1074
  157loPI   C1B 2509  10.203   1.190   9.595 -0.1148  0.2083 -0.0982
  157loPI   C2B 2510  10.113   1.334   9.163  0.2775  0.1544  0.0887
  157loPI   C3B 2511   9.865   1.439   8.642 -0.0870  0.0699  0.1985
  157loPI   C4B 2512   9.832   1.719   8.352  0.2343 -0.2761 -0.1937
  158loPI    C1 2513  17.022   4.172  10.762  0.2522  0.0101  0.1443
  158loPI    C2 2514  17.138   3.959  10.445  0.0438 -0.0440  0.1031
  158loPI    C3 2515  17.056   3.775  10.790 -0.0060 -0.0160  0.1061
  158loPI   PO4 2516  16.804   4.323  10.590  0.1774 -0.0427  0.0730
  158loPI   GL1 2517  16.938   4.416  10.205 -0.1409  0.0995  0.3238
  158loPI   GL2 2518  17.305   4.302  10.107 -0.2802 -0.2389  0.1928
  158loPI   C1A 2519  16.637   4.652   9.873  0.4644  0.1131  0.0063
  158loPI   C2A 2520  16.437   4.732   9.422  0.3503 -0.0281  0.0046
  158loPI   C3A 2521  16.455   4.551   9.013  0.2017  0.1008  0.2212
  158loPI   C4A 2522  16.544   4.232   8.810  0.0133 -0.0903 -0.1459
  158loPI   C5A 2523  16.502   4.255   8.375 -0.4590  0.3201  0.2443
  158loPI   C6A 2524  16.193   4.102   8.053  0.1469  0.0849  0.0293
  158loPI   C1B 2525  17.470   4.444   9.650 -0.3075 -0.0982 -0.0795
  158loPI   C2B 2526  17.482   4.441   9.266 -0.0250 -0.0907  0.0555
  158loPI   C3B 2527  17.430   4.343   8.788  0.0322 -0.0117  0.0897
  158loPI   C4B 2528  17.326   4.538   8.461  0.1833  0.2486  0.1702
  159loPI    C1 2529   4.087  13.919  10.051  0.1307  0.0509  0.2112
  159loPI    C2 2530   3.742  13.919  10.254 -0.0496 -0.0929 -0.0875
  159loPI    C3 2531   4.082  14.020  10.438 -0.2427  0.0093  0.2219
  159loPI   PO4 2532   4.029  13.943   9.790  0.0843 -0.0391  0.2475
  159loPI   GL1 2533   4.367  13.719   9.456 -0.5592  0.1163 -0.2465
  159loPI   GL2 2534   4.038  13.882   9.240 -0.0477  0.0624 -0.2959
  159loPI   C1A 2535   4.661  13.799   9.089 -0.0794  0.2760  0.0371
  159loPI   C2A 2536   4.886  13.589   8.723  0.1314 -0.1142 -0.3264
  159loPI   C3A 2537   4.831  13.165   8.520  0.0322  0.2528  0.2721
  159loPI   C4A 2538   5.066  12.949   8.184  0.2610  0.1269 -0.4007
  159loPI   C5A 2539   5.204  12.868   7.743  0.0694 -0.0755 -0.0909
  159loPI   C6A 2540   5.594  12.661   7.681  0.0404 -0.0467  0.0438
  159loPI   C1B 2541   4.200  13.701   8.971  0.0207  0.2266 -0.1323
  159loPI   C2B 2542   4.406  13.482   8.568 -0.3234 -0.0921 -0.2384
  159loPI   C3B 2543   4.589  13.394   8.176  0.1877 -0.0136  0.1470
  159loPI   C4B 2544   4.415  13.433   7.833 -0.2668  0.3535  0.1451
  160loPI    C1 2545   1.751   4.362   9.968  0.0340  0.0063 -0.0007
  160loPI    C2 2546   1.802   4.166  10.313 -0.0292  0.1546  0.0942
  160loPI    C3 2547   1.531   4.459  10.288 -0.1033  0.0704 -0.1134
  160loPI   PO4 2548   1.889   4.059   9.837  0.3869 -0.0724 -0.1155
  160loPI   GL1 2549   1.972   4.116   9.382 -0.0362 -0.1477  0.2647
  160loPI   GL2 2550   2.063   4.051   9.119 -0.2742 -0.0329 -0.0866
  160loPI   C1A 2551   1.568   4.053   9.134  0.0906 -0.2027  0.0608
  160loPI   C2A 2552   1.299   3.878   8.816 -0.0335 -0.0820 -0.3719
  160loPI   C3A 2553   1.276   3.826   8.319 -0.2087 -0.1757  0.1835
  160loPI   C4A 2554   1.321   4.050   7.948  0.3255  0.1647  0.1747
  160loPI   C5A 2555   1.177   4.264   7.620  0.0775 -0.1465 -0.0849
  160loPI   C6A 2556   0.864   4.535   7.364  0.0275 -0.0530 -0.2048
  160loPI   C1B 2557   2.039   4.287   8.753 -0.2264 -0.3257 -0.3347
  160loPI   C2B 2558   1.967   4.503   8.307 -0.1061 -0.2226 -0.2081
  160loPI   C3B 2559   1.965   4.727   7.942 -0.0432 -0.2888 -0.0381
  160loPI   C4B 2560   1.977   5.236   7.855 -0.0135  0.1542  0.4574
  161loPI    C1 2561   6.718  16.890  10.188  0.2027  0.1501 -0.2609
  161loPI    C2 2562   6.805  17.208  10.414 -0.1776  0.0809 -0.0073
  161loPI    C3 2563   6.611  16.896  10.573 -0.1415 -0.1198 -0.3461
  161loPI   PO4 2564   6.932  16.824  10.041 -0.0990 -0.1952  0.2468
  161loPI   GL1 2565   7.242  16.862   9.581  0.2417  0.0300 -0.0678
  161loPI   GL2 2566   7.184  16.593   9.683 -0.3424 -0.2779  0.0678
  161loPI   C1A 2567   7.351  16.908   9.174  0.2154 -0.0633 -0.0200
  161loPI   C2A 2568   7.575  17.026   8.789 -0.2039  0.2055  0.0497
  161loPI   C3A 2569   7.764  17.027   8.369 -0.3805 -0.2160 -0.1601
  161loPI   C4A 2570   7.867  17.176   7.966 -0.0809  0.1217 -0.0394
  161loPI   C5A 2571   7.677  17.500   7.734 -0.1134 -0.4324  0.0698
  161loPI   C6A 2572   7.655  17.843   7.429 -0.2147 -0.0164 -0.0107
  161loPI   C1B 2573   7.167  16.456   9.314 -0.1742  0.0020 -0.1185
  161loPI   C2B 2574   7.326  16.538   8.869  0.3325  0.0544 -0.0537
  161loPI   C3B 2575   7.611  16.559   8.538 -0.0383 -0.1357  0.1395
  161loPI   C4B 2576   7.811  16.245   8.293  0.3592  0.0248  0.0539
  162loPI    C1 2577  13.123   7.445  10.949 -0.1433 -0.0619  0.1270
  162loPI    C2 2578  12.799   7.648  10.831 -0.0166 -0.0491 -0.2085
  162loPI    C3 2579  12.763   7.270  10.959 -0.1738 -0.0209 -0.1674
  162loPI   PO4 2580  13.299   7.377  10.723  0.1037  0.1198 -0.3001
  162loPI   GL1 2581  13.420   7.270  10.267 -0.0058  0.1563  0.1569
  162loPI   GL2 2582  13.157   7.072  10.322 -0.1582 -0.1089  0.0816
  162loPI   C1A 2583  13.589   7.362   9.870  0.0665  0.0311  0.2767
  162loPI   C2A 2584  13.547   7.490   9.429 -0.0895  0.2383  0.2186
  162loPI   C3A 2585  13.351   7.516   9.091  0.2663 -0.0530  0.1684
  162loPI   C4A 2586  13.553   7.330   8.700  0.1051 -0.0291  0.2025
  162loPI   C5A 2587  13.656   7.592   8.449  0.0179 -0.2031 -0.0534
  162loPI   C6A 2588  13.857   7.834   8.247 -0.3577 -0.2130  0.1773
  162loPI   C1B 2589  13.023   7.189   9.864  0.0726  0.0290  0.3004
  162loPI   C2B 2590  13.053   7.223   9.400 -0.0854  0.0630 -0.1122
  162loPI   C3B 2591  12.935   7.258   8.956 -0.1681 -0.1922 -0.0404
  162loPI   C4B 2592  13.146   7.580   8.655 -0.1667  0.2852 -0.1048
  163loPI    C1 2593   5.211  12.276  10.195 -0.0096 -0.0907  0.0912
  163loPI    C2 2594   5.454  12.594  10.178 -0.2537  0.0981  0.0826
  163loPI    C3 2595   5.420  12.386  10.518 -0.0393  0.0367  0.0677
  163loPI   PO4 2596   5.296  12.109   9.992  0.0324 -0.2042  0.1617
  163loPI   GL1 2597   5.656  12.100   9.633  0.1103 -0.2868 -0.1662
  163loPI   GL2 2598   5.449  11.906   9.550 -0.0853 -0.1484 -0.1540
  163loPI   C1A 2599   5.738  12.359   9.255  0.0011 -0.0672 -0.1691
  163loPI   C2A 2600   5.705  12.583   8.840 -0.0116 -0.0070  0.1094
  163loPI   C3A 2601   5.867  12.590   8.465 -0.0116 -0.0711 -0.0839
  163loPI   C4A 2602   6.086  12.588   8.115  0.0351 -0.1095 -0.0142
  163loPI   C5A 2603   6.049  12.888   7.699  0.0342 -0.0454  0.1232
  163loPI   C6A 2604   6.062  13.392   7.767  0.1108 -0.1090  0.1331
  163loPI   C1B 2605   5.217  11.699   9.284 -0.0051  0.0060 -0.0105
  163loPI   C2B 2606   5.173  11.664   8.817 -0.1778 -0.1560 -0.0585
  163loPI   C3B 2607   5.167  11.650   8.422  0.1163  0.0504  0.1674
  163loPI   C4B 2608   5.022  11.607   8.000 -0.0310 -0.3197  0.1878
  164loPI    C1 2609   1.940   0.147   9.701 -0.1133 -0.0273 -0.1716
  164loPI    C2 2610   1.792  -0.204   9.823  0.0069 -0.0091  0.0309
  164loPI    C3 2611   2.172  -0.108   9.903 -0.0079  0.1430 -0.0755
  164loPI   PO4 2612   1.918   0.136   9.382 -0.0008 -0.0087  0.1231
  164loPI   GL1 2613   1.836   0.484   9.070  0.2084  0.4303 -0.4293
  164loPI   GL2 2614   2.120   0.217   8.939  0.1038  0.2340 -0.0327
  164loPI   C1A 2615   1.786   0.569   8.639  0.1050 -0.0780 -0.0060
  164loPI   C2A 2616   1.593   0.268   8.346  0.1922 -0.0394  0.0743
  164loPI   C3A 2617   1.609   0.094   7.928 -0.1505 -0.1727  0.0065
  164loPI   C4A 2618   1.820   0.131   7.574 -0.0126 -0.1324 -0.2217
  164loPI   C5A 2619   2.044  -0.062   7.289  0.3684 -0.3263 -0.3169
  164loPI   C6A 2620   2.269  -0.044   6.916 -0.3400 -0.0547  0.1471
  164loPI   C1B 2621   2.146   0.272   8.500  0.1510 -0.3489  0.3454
  164loPI   C2B 2622   2.059   0.275   8.003  0.1091  0.4495 -0.1455
  164loPI   C3B 2623   2.287   0.257   7.584  0.1685  0.0890 -0.1170
  164loPI   C4B 2624   2.380   0.346   7.175  0.1790 -0.2001 -0.3283
  165loPI    C1 2625   8.245  18.374  10.500  0.0911  0.0979 -0.0979
  165loPI    C2 2626   8.482  18.066  10.594  0.1057  0.1027 -0.1190
  165loPI    C3 2627   8.575  18.435  10.716  0.1548  0.1173 -0.2002
  165loPI   PO4 2628   8.252  18.432  10.221 -0.0072  0.0925 -0.0019
  165loPI   GL1 2629   8.492  18.691   9.819 -0.1281  0.0244  0.0283
  165loPI   GL2 2630   8.841  18.711   9.808  0.1055 -0.1100  0.0959
  165loPI   C1A 2631   8.284  18.631   9.504  0.3229 -0.0512  0.1475
  165loPI   C2A 2632   8.312  18.552   8.978 -0.0204 -0.0521  0.0985
  165loPI   C3A 2633   8.105  18.314   8.704  0.0963  0.1648 -0.1546
  165loPI   C4A 2634   7.734  18.336   8.355  0.0775 -0.0531  0.4108
  165loPI   C5A 2635   7.541  18.469   7.961 -0.1045 -0.0166  0.0821
  165loPI   C6A 2636   7.712  18.309   7.624  0.1395  0.2863 -0.2463
  165loPI   C1B 2637   8.747  18.880   9.402 -0.0022  0.2835 -0.3982
  165loPI   C2B 2638   8.771  18.864   8.925  0.0639 -0.0887  0.3517
  165loPI   C3B 2639   8.707  18.844   8.465  0.1656  0.1339  0.1713
  165loPI   C4B 2640   8.453  18.538   8.290  0.2146 -0.1962  0.0034
  166loPI    C1 2641   3.258  13.678   9.900  0.0227  0.1377 -0.0343
  166loPI    C2 2642   3.251  14.056   9.771  0.1694  0.1500 -0.0082
  166loPI    C3 2643   3.202  13.977  10.160 -0.3044  0.1111 -0.0702
  166loPI   PO4 2644   2.977  13.534   9.811  0.1051  0.3888 -0.0695
  166loPI   GL1 2645   2.815  13.637   9.404  0.2272  0.1934 -0.0655
  166loPI   GL2 2646   2.992  13.520   9.314 -0.0135 -0.0376  0.0777
  166loPI   C1A 2647   2.662  13.710   8.940  0.0581 -0.0640 -0.0104
  166loPI   C2A 2648   2.656  13.745   8.617 -0.3704 -0.1018  0.0180
  166loPI   C3A 2649   2.741  13.943   8.341  0.1448  0.0806  0.1510
  166loPI   C4A 2650   3.074  13.852   8.011  0.0627 -0.1061  0.0731
  166loPI   C5A 2651   3.402  13.652   7.739 -0.1452  0.1833  0.0814
  166loPI   C6A 2652   3.623  13.247   7.596  0.2208 -0.0517  0.1532
  166loPI   C1B 2653   3.135  13.537   8.972  0.0295  0.2955 -0.4088
  166loPI   C2B 2654   3.331  13.203   8.577  0.0319  0.3899 -0.0067
  166loPI   C3B 2655   3.405  12.800   8.330  0.2943  0.0673  0.0479
  166loPI   C4B 2656   3.523  12.346   8.135  0.1913  0.1283 -0.1900
  167loPI    C1 2657   1.467   7.365  10.852  0.0776  0.0692  0.2569
  167loPI    C2 2658   1.638   7.136  11.132 -0.0878 -0.2617  0.0932
  167loPI    C3 2659   1.241   7.187  11.130 -0.0587 -0.0249  0.0880
  167loPI   PO4 2660   1.642   7.288  10.666 -0.0944 -0.2015 -0.2371
  167loPI   GL1 2661   1.781   7.617  10.316  0.1085  0.2393 -0.4682
  167loPI   GL2 2662   1.712   7.312  10.139 -0.0398  0.2805 -0.0885
  167loPI   C1A 2663   1.922   7.897   9.979 -0.0510  0.2190 -0.2631
  167loPI   C2A 2664   2.000   8.019   9.675  0.0224  0.0801 -0.0015
  167loPI   C3A 2665   2.143   7.921   9.220  0.1752  0.1813  0.2652
  167loPI   C4A 2666   2.389   7.946   8.844  0.1144  0.0863  0.1526
  167loPI   C5A 2667   2.520   8.014   8.448 -0.0614  0.3704  0.3178
  167loPI   C6A 2668   2.598   8.419   8.201  0.0352  0.0264 -0.3314
  167loPI   C1B 2669   1.540   7.362   9.790  0.2090  0.0894  0.1306
  167loPI   C2B 2670   1.392   7.356   9.347  0.1092  0.1180 -0.2063
  167loPI   C3B 2671   1.317   7.459   8.915  0.2036  0.0106  0.1408
  167loPI   C4B 2672   1.288   7.502   8.475  0.1723 -0.4766 -0.1134
  168loPI    C1 2673  16.601   9.555  10.447 -0.0031 -0.1152 -0.0029
  168loPI    C2 2674  16.364   9.828  10.274  0.0679  0.0245  0.1179
  168loPI    C3 2675  16.696   9.943  10.464  0.0943 -0.1463  0.1773
  168loPI   PO4 2676  16.567   9.288  10.338  0.1182 -0.1660  0.0372
  168loPI   GL1 2677  16.465   9.264  10.022  0.0300 -0.1448 -0.2063
  168loPI   GL2 2678  16.055   9.402  10.076 -0.2380 -0.0425  0.0434
  168loPI   C1A 2679  16.234   9.221   9.617  0.1923 -0.1901  0.3953
  168loPI   C2A 2680  16.336   9.175   9.190  0.0019 -0.1338 -0.1725
  168loPI   C3A 2681  16.568   9.343   8.772 -0.0850 -0.0349  0.1884
  168loPI   C4A 2682  16.770   9.151   8.326  0.1461  0.0491  0.1282
  168loPI   C5A 2683  16.917   9.024   7.947 -0.3096 -0.3218 -0.0587
  168loPI   C6A 2684  16.690   8.769   7.742 -0.1052  0.0705  0.3942
  168loPI   C1B 2685  15.896   8.992   9.919 -0.3452  0.0049  0.1679
  168loPI   C2B 2686  15.607   8.769   9.663 -0.0249  0.2976 -0.0196
  168loPI   C3B 2687  15.402   8.858   9.378  0.3130  0.4359 -0.0812
  168loPI   C4B 2688  15.350   9.055   9.003  0.0848  0.1198 -0.0958
  169loPI    C1 2689   0.752  18.131   9.962  0.0425 -0.1134 -0.0248
  169loPI    C2 2690   0.907  17.783   9.839  0.0827 -0.1802  0.2098
  169loPI    C3 2691   1.103  18.005  10.108 -0.1246 -0.1614  0.3477
  169loPI   PO4 2692   0.550  18.243   9.720 -0.0427 -0.1053 -0.0934
  169loPI   GL1 2693   0.514  18.387   9.215 -0.0187  0.5448  0.1548
  169loPI   GL2 2694   0.691  18.577   9.029 -0.0689 -0.2709 -0.0614
  169loPI   C1A 2695   0.467  18.228   8.789  0.1098  0.0466  0.0779
  169loPI   C2A 2696   0.479  18.232   8.368  0.2338 -0.0440  0.0670
  169loPI   C3A 2697   0.371  18.002   7.960 -0.0963  0.1621  0.0058
  169loPI   C4A 2698   0.428  17.890   7.515 -0.0499 -0.1435 -0.1752
  169loPI   C5A 2699   0.464  17.848   7.049 -0.1650 -0.1191  0.2749
  169loPI   C6A 2700   0.255  17.538   6.809 -0.0910 -0.1539  0.0255
  169loPI   C1B 2701   0.779  18.572   8.563  0.0769 -0.1225 -0.0778
  169loPI   C2B 2702   0.789  18.499   8.089 -0.1840  0.1250  0.0882
  169loPI   C3B 2703   0.959  18.321   7.822  0.1269 -0.3735  0.1779
  169loPI   C4B 2704   1.294  18.342   7.643 -0.0833  0.1095  0.2172
  170loPI    C1 2705  13.361  16.297  10.319  0.0145 -0.2418 -0.1287
  170loPI    C2 2706  13.014  16.363  10.507  0.0979  0.0373 -0.0676
  170loPI    C3 2707  13.092  16.002  10.353 -0.1658 -0.0631  0.0268
  170loPI   PO4 2708  13.422  16.661   9.984 -0.1657  0.1637 -0.0248
  170loPI   GL1 2709  13.546  16.778   9.523 -0.1297 -0.0388 -0.0254
  170loPI   GL2 2710  13.371  17.067   9.426  0.0369 -0.0477 -0.1204
  170loPI   C1A 2711  13.357  16.700   9.122 -0.1147  0.2471 -0.1704
  170loPI   C2A 2712  13.297  16.799   8.571 -0.1239  0.0529 -0.0918
  170loPI   C3A 2713  13.183  16.689   8.136 -0.2829  0.0841  0.2025
  170loPI   C4A 2714  13.343  16.532   7.734 -0.3007 -0.4020  0.2954
  170loPI   C5A 2715  13.739  16.266   7.809  0.0325  0.3459 -0.0462
  170loPI   C6A 2716  13.761  16.052   8.269  0.2052 -0.1160 -0.0761
  170loPI   C1B 2717  13.288  17.301   9.002 -0.1143  0.1220  0.0361
  170loPI   C2B 2718  13.146  17.235   8.596 -0.2189 -0.3001 -0.2070
  170loPI   C3B 2719  13.084  17.175   8.151 -0.1337 -0.3303  0.4055
  170loPI   C4B 2720  12.696  17.339   7.886  0.2369 -0.0748 -0.1459
  171loPI    C1 2721   0.818  10.093  10.848  0.0040 -0.0986 -0.0827
  171loPI    C2 2722   0.783  10.464  10.703 -0.0709 -0.0657  0.0185
  171loPI    C3 2723   0.501  10.192  10.625 -0.0266 -0.0958 -0.0379
  171loPI   PO4 2724   1.063  10.033  10.708  0.0202  0.1567  0.0131
  171loPI   GL1 2725   0.864  10.097  10.295 -0.0593  0.0014  0.2145
  171loPI   GL2 2726   1.077  10.201  10.033  0.1039  0.0562 -0.1438
  171loPI   C1A 2727   0.490   9.931  10.052 -0.1761 -0.1924  0.1370
  171loPI   C2A 2728   0.325   9.847   9.676  0.0698 -0.1459  0.1646
  171loPI   C3A 2729   0.449   9.599   9.316  0.0953 -0.1125 -0.3290
  171loPI   C4A 2730   0.604   9.606   9.008  0.3226  0.1124  0.3159
  171loPI   C5A 2731   0.732   9.788   8.603 -0.2450 -0.2653  0.0920
  171loPI   C6A 2732   0.691   9.966   8.120 -0.1683 -0.2059 -0.1630
  171loPI   C1B 2733   1.349  10.284   9.644  0.1713  0.3025  0.3382
  171loPI   C2B 2734   1.371  10.110   9.256  0.0369 -0.0641  0.0148
  171loPI   C3B 2735   1.374  10.051   8.797  0.4055  0.2262 -0.3634
  171loPI   C4B 2736   1.088  10.162   8.441  0.1131  0.0544 -0.1690
  172loPI    C1 2737   1.399   3.478  10.014  0.2404 -0.2054 -0.2706
  172loPI    C2 2738   1.453   3.866  10.091 -0.0611 -0.1907 -0.1213
  172loPI    C3 2739   1.742   3.604  10.177  0.1493  0.0002 -0.2350
  172loPI   PO4 2740   1.221   3.520   9.704 -0.4197 -0.3314  0.0875
  172loPI   GL1 2741   1.277   3.767   9.337  0.0509 -0.1449 -0.1652
  172loPI   GL2 2742   0.968   3.712   9.335 -0.1788  0.2516  0.1942
  172loPI   C1A 2743   1.322   3.465   9.048  0.0933 -0.4068 -0.1186
  172loPI   C2A 2744   1.328   3.428   8.600 -0.0864  0.1182 -0.0631
  172loPI   C3A 2745   1.484   3.297   8.268 -0.0747 -0.3630  0.1250
  172loPI   C4A 2746   1.371   2.992   7.980  0.1636 -0.0440  0.0982
  172loPI   C5A 2747   0.916   2.703   7.731  0.0346 -0.0319  0.0465
  172loPI   C6A 2748   0.475   2.604   7.581 -0.2368  0.0239 -0.0714
  172loPI   C1B 2749   0.677   3.623   9.046  0.0075 -0.1815 -0.0331
  172loPI   C2B 2750   0.420   3.693   8.672 -0.0360 -0.0819 -0.2747
  172loPI   C3B 2751   0.294   3.883   8.384 -0.1222  0.2075 -0.0121
  172loPI   C4B 2752   0.236   3.898   7.915 -0.2306  0.0796  0.3420
  173loPI    C1 2753  13.391  13.136  10.082 -0.0233  0.0312 -0.0367
  173loPI    C2 2754  13.312  13.442   9.837  0.1665  0.0440 -0.0841
  173loPI    C3 2755  13.402  13.511  10.221 -0.1769  0.0213  0.0040
  173loPI   PO4 2756  13.108  12.924  10.029 -0.2326 -0.3310 -0.2286
  173loPI   GL1 2757  12.899  13.071   9.662  0.1221  0.0135 -0.0156
  173loPI   GL2 2758  13.041  12.779   9.546  0.0506 -0.1480 -0.1212
  173loPI   C1A 2759  12.782  13.050   9.243 -0.1961 -0.2630 -0.0302
  173loPI   C2A 2760  12.801  13.040   8.793  0.1178  0.0110 -0.0054
  173loPI   C3A 2761  12.721  12.854   8.323  0.1931  0.0039 -0.1965
  173loPI   C4A 2762  12.585  12.613   7.992  0.3179 -0.2474 -0.1083
  173loPI   C5A 2763  12.310  12.297   7.786  0.0996 -0.0029 -0.1196
  173loPI   C6A 2764  11.983  11.970   7.805 -0.1274  0.1231  0.4063
  173loPI   C1B 2765  13.040  12.530   9.290 -0.2637  0.0554 -0.0709
  173loPI   C2B 2766  12.922  12.381   8.918 -0.1308  0.2762 -0.0535
  173loPI   C3B 2767  12.962  12.497   8.573  0.4605 -0.0172 -0.2944
  173loPI   C4B 2768  12.962  12.348   8.135 -0.1959  0.0517 -0.3205
  174loPI    C1 2769  18.238   4.852  10.203 -0.0932  0.2515  0.0084
  174loPI    C2 2770  18.575   5.019  10.067  0.0133  0.0399  0.0089
  174loPI    C3 2771  18.457   5.086  10.444 -0.0171  0.2217 -0.0319
  174loPI   PO4 2772  18.359   4.578  10.123  0.1941  0.0084 -0.1443
  174loPI   GL1 2773  18.293   4.318   9.782  0.1252  0.1470  0.3084
  174loPI   GL2 2774  18.577   4.379   9.547 -0.2531  0.2712 -0.0999
  174loPI   C1A 2775  17.953   4.639   9.510 -0.0699  0.2544 -0.2213
  174loPI   C2A 2776  17.899   4.673   9.093 -0.4399 -0.2637  0.3854
  174loPI   C3A 2777  17.773   4.883   8.770  0.0130 -0.0234  0.0790
  174loPI   C4A 2778  18.007   5.133   8.503 -0.1222  0.0832 -0.0589
  174loPI   C5A 2779  18.141   5.451   8.251  0.2051 -0.4159  0.1385
  174loPI   C6A 2780  18.255   5.934   8.099  0.2816 -0.1676  0.1735
  174loPI   C1B 2781  18.295   4.370   9.188  0.1927 -0.3295 -0.0449
  174loPI   C2B 2782  18.064   4.398   8.720  0.1664  0.1819  0.1242
  174loPI   C3B 2783  17.818   4.563   8.351  0.1679 -0.1047 -0.1532
  174loPI   C4B 2784  17.527   4.892   8.209 -0.1874  0.0066  0.2171
  175loPI    C1 2785   0.022   7.124  10.675  0.4537  0.1204 -0.1904
  175loPI    C2 2786   0.202   6.862  10.918  0.0316 -0.0989 -0.1043
  175loPI    C3 2787   0.192   7.250  11.015 -0.1814 -0.1918  0.2639
  175loPI   PO4 2788   0.183   7.064  10.390  0.0365  0.0365 -0.1874
  175loPI   GL1 2789   0.160   7.155  10.089 -0.1273 -0.4650 -0.1313
  175loPI   GL2 2790   0.371   7.402   9.953  0.5491  0.2792  0.0602
  175loPI   C1A 2791  -0.042   7.136   9.736  0.0639 -0.3163 -0.0795
  175loPI   C2A 2792   0.006   7.166   9.338  0.3643 -0.1965  0.1877
  175loPI   C3A 2793  -0.148   7.160   8.966  0.2208  0.0037  0.2072
  175loPI   C4A 2794  -0.196   7.001   8.614 -0.1126 -0.0957  0.2359
  175loPI   C5A 2795  -0.159   7.402   8.363  0.0209  0.0890  0.0534
  175loPI   C6A 2796  -0.145   7.716   8.032 -0.0838  0.0953 -0.1504
  175loPI   C1B 2797   0.407   7.397   9.586 -0.1712 -0.3081 -0.1526
  175loPI   C2B 2798   0.460   7.327   9.186 -0.0049  0.0266 -0.2365
  175loPI   C3B 2799   0.251   7.451   8.804 -0.0618 -0.2758  0.4012
  175loPI   C4B 2800   0.357   7.620   8.327 -0.0806 -0.0010  0.1552
  176loPI    C1 2801   7.677  12.972  10.652  0.1445 -0.3478 -0.1393
  176loPI    C2 2802   7.955  13.083  10.918 -0.0263 -0.0658 -0.0734
  176loPI    C3 2803   7.603  12.941  11.044 -0.0883  0.0196 -0.1495
  176loPI   PO4 2804   7.828  12.801  10.387 -0.1673 -0.0540 -0.1565
  176loPI   GL1 2805   7.641  12.585   9.941 -0.2512  0.0337  0.3793
  176loPI   GL2 2806   7.897  12.673   9.726  0.0328 -0.2157 -0.1038
  176loPI   C1A 2807   7.543  12.453   9.513 -0.2826  0.2473  0.0824
  176loPI   C2A 2808   7.630  12.144   9.175  0.1042  0.0834  0.0246
  176loPI   C3A 2809   7.705  12.119   8.810  0.2687 -0.2743  0.3841
  176loPI   C4A 2810   7.473  11.833   8.494 -0.3785  0.4113  0.2345
  176loPI   C5A 2811   7.490  11.864   8.011  0.0430  0.1922 -0.1117
  176loPI   C6A 2812   7.694  11.826   7.563 -0.0046  0.3051 -0.0665
  176loPI   C1B 2813   7.981  12.617   9.360 -0.0216 -0.0491 -0.1624
  176loPI   C2B 2814   7.973  12.537   8.970  0.1202  0.2188  0.3616
  176loPI   C3B 2815   7.963  12.436   8.587  0.0215 -0.0869  0.3051
  176loPI   C4B 2816   7.553  12.275   8.323 -0.0367 -0.0811  0.1453
  177loPI    C1 2817  10.436   3.251  10.858  0.0268  0.0507  0.0316
  177loPI    C2 2818  10.730   3.521  10.877  0.1693 -0.0985 -0.0335
  177loPI    C3 2819  10.673   3.267  11.180 -0.0661  0.1067  0.0979
  177loPI   PO4 2820  10.506   3.114  10.558  0.2209 -0.0863  0.0332
  177loPI   GL1 2821  10.656   3.478  10.371 -0.0019  0.2567 -0.0174
  177loPI   GL2 2822  10.411   3.459  10.126  0.0567 -0.1039  0.1637
  177loPI   C1A 2823  10.895   3.679  10.046  0.2226  0.1096 -0.0719
  177loPI   C2A 2824  11.082   3.808   9.592  0.0054  0.0143 -0.1709
  177loPI   C3A 2825  10.911   3.893   9.178 -0.0453 -0.2474  0.0151
  177loPI   C4A 2826  10.785   3.991   8.768  0.2402 -0.0963  0.0771
  177loPI   C5A 2827  10.881   4.041   8.353 -0.1502  0.2690  0.0655
  177loPI   C6A 2828  10.595   4.146   8.128  0.4108  0.3784  0.1678
  177loPI   C1B 2829  10.382   3.591   9.714  0.0005  0.0959 -0.1236
  177loPI   C2B 2830  10.378   3.772   9.293  0.3506  0.1374  0.0352
  177loPI   C3B 2831  10.412   3.756   8.889 -0.1694 -0.3979 -0.0380
  177loPI   C4B 2832  10.168   3.595   8.794  0.0140  0.2138 -0.4659
  178loPI    C1 2833  13.894  14.291  10.213  0.0071 -0.2088 -0.1153
  178loPI    C2 2834  14.249  14.281  10.396 -0.0741 -0.1532  0.0475
  178loPI    C3 2835  13.914  14.239  10.609 -0.1733 -0.0125 -0.0790
  178loPI   PO4 2836  13.993  14.321   9.992  0.0354  0.3892 -0.2436
  178loPI   GL1 2837  13.773  14.301   9.699 -0.1058  0.4420 -0.0693
  178loPI   GL2 2838  13.576  14.407   9.533 -0.0600 -0.0435 -0.4052
  178loPI   C1A 2839  13.903  14.151   9.264 -0.0873  0.0153  0.3152
  178loPI   C2A 2840  14.194  13.977   9.025  0.3771 -0.1295  0.4192
  178loPI   C3A 2841  14.274  13.868   8.616 -0.1300  0.1159 -0.2172
  178loPI   C4A 2842  14.547  13.792   8.329  0.2550  0.1830 -0.0469
  178loPI   C5A 2843  14.462  13.741   7.953  0.3265 -0.0505 -0.2016
  178loPI   C6A 2844  14.571  13.804   7.506  0.1999  0.0277  0.1992
  178loPI   C1B 2845  13.538  14.528   9.125 -0.0636  0.0583 -0.1043
  178loPI   C2B 2846  13.518  14.676   8.678 -0.0046 -0.1614  0.0474
  178loPI   C3B 2847  13.666  14.609   8.299 -0.0590  0.0735  0.1509
  178loPI   C4B 2848  13.792  14.455   7.927  0.0763 -0.0577  0.3328
  179loPI    C1 2849   0.433   8.024  10.732 -0.0737 -0.0325  0.1108
  179loPI    C2 2850   0.605   7.785  11.003  0.1161  0.0508  0.0652
  179loPI    C3 2851   0.630   8.183  11.041  0.1298  0.0630 -0.0657
  179loPI   PO4 2852   0.541   7.962  10.538  0.0635 -0.2235  0.1081
  179loPI   GL1 2853   0.494   8.270  10.184  0.3749  0.0222  0.0149
  179loPI   GL2 2854   0.610   8.574  10.158 -0.1468 -0.0054 -0.0776
  179loPI   C1A 2855   0.434   8.380   9.777 -0.0573  0.2077 -0.0397
  179loPI   C2A 2856   0.541   8.527   9.347 -0.0421  0.1090  0.2570
  179loPI   C3A 2857   0.527   8.387   8.995  0.3179  0.0746  0.4093
  179loPI   C4A 2858   0.568   8.679   8.671  0.0901  0.0333  0.1193
  179loPI   C5A 2859   0.650   8.843   8.331  0.1193 -0.1386 -0.0293
  179loPI   C6A 2860   0.932   9.150   8.060  0.0411  0.5751 -0.2472
  179loPI   C1B 2861   0.772   8.784   9.778 -0.1453 -0.0855 -0.0216
  179loPI   C2B 2862   0.891   8.864   9.442 -0.0683 -0.1785 -0.0893
  179loPI   C3B 2863   0.859   8.783   9.047 -0.2926 -0.1798  0.1860
  179loPI   C4B 2864   1.019   8.761   8.690  0.1263 -0.1016 -0.0120
  180loPI    C1 2865  16.473   7.853  10.422  0.1574  0.1649  0.0902
  180loPI    C2 2866  16.249   7.712  10.722  0.0867 -0.0826 -0.0760
  180loPI    C3 2867  16.258   8.104  10.646 -0.1784 -0.0555  0.0229
  180loPI   PO4 2868  16.648   7.654  10.452  0.3051 -0.0250  0.2318
  180loPI   GL1 2869  16.710   7.442  10.028 -0.0529 -0.0533  0.2283
  180loPI   GL2 2870  16.927   7.310   9.967 -0.1571 -0.0299  0.2189
  180loPI   C1A 2871  16.640   7.711   9.739 -0.2231  0.0237  0.0162
  180loPI   C2A 2872  16.605   7.794   9.418 -0.0953 -0.2342 -0.3751
  180loPI   C3A 2873  16.374   7.918   9.047  0.3093 -0.0012 -0.1708
  180loPI   C4A 2874  16.112   8.024   8.687  0.3571 -0.1252 -0.1212
  180loPI   C5A 2875  15.857   7.837   8.453 -0.0898 -0.2450 -0.2205
  180loPI   C6A 2876  15.880   7.611   8.129 -0.1805 -0.5009  0.3159
  180loPI   C1B 2877  16.797   7.264   9.464  0.1219 -0.1095 -0.2627
  180loPI   C2B 2878  16.795   7.480   9.065 -0.1409  0.0516  0.2204
  180loPI   C3B 2879  16.881   7.296   8.662  0.0610 -0.0346  0.0278
  180loPI   C4B 2880  17.141   7.050   8.429  0.0813  0.0494  0.1056
  181loPI    C1 2881   5.883  15.249  10.008  0.0765 -0.1928  0.1010
  181loPI    C2 2882   5.695  15.545  10.199  0.2206 -0.1203  0.1315
  181loPI    C3 2883   5.533  15.180  10.189 -0.1075  0.0271 -0.1614
  181loPI   PO4 2884   5.841  15.260   9.718  0.1061 -0.0751 -0.0468
  181loPI   GL1 2885   6.059  15.353   9.314  0.1367 -0.0748 -0.0475
  181loPI   GL2 2886   6.041  15.032   9.340  0.1524  0.2132 -0.1143
  181loPI   C1A 2887   6.126  15.350   8.833  0.0227  0.1109 -0.3729
  181loPI   C2A 2888   6.238  15.484   8.482 -0.1084  0.0305 -0.3308
  181loPI   C3A 2889   6.434  15.564   8.246  0.0581  0.1025 -0.3152
  181loPI   C4A 2890   6.275  15.785   7.865  0.1079 -0.2593  0.0840
  181loPI   C5A 2891   6.273  16.082   7.591  0.4890  0.2839 -0.1200
  181loPI   C6A 2892   6.611  16.449   7.428 -0.3976  0.2364 -0.0166
  181loPI   C1B 2893   6.040  14.867   9.021 -0.0640  0.0131 -0.3751
  181loPI   C2B 2894   6.081  14.932   8.593 -0.0840  0.2063  0.1636
  181loPI   C3B 2895   6.011  15.162   8.156  0.1688 -0.1828  0.3593
  181loPI   C4B 2896   5.857  15.582   8.153 -0.3407 -0.0696  0.2474
  182loPI    C1 2897  13.218   1.303  10.622 -0.0568 -0.1454 -0.0431
  182loPI    C2 2898  13.592   1.420  10.540 -0.0094 -0.2165  0.0696
  182loPI    C3 2899  13.528   1.109  10.784 -0.1453 -0.0954  0.1899
  182loPI   PO4 2900  13.138   1.283  10.329  0.2071 -0.0241  0.0160
  182loPI   GL1 2901  13.137   1.334   9.909  0.0652  0.1751 -0.1406
  182loPI   GL2 2902  13.184   1.598   9.824  0.5440 -0.0310 -0.3234
  182loPI   C1A 2903  12.728   1.216   9.771  0.2136 -0.0362 -0.0137
  182loPI   C2A 2904  12.617   0.903   9.692 -0.0361  0.4464  0.0598
  182loPI   C3A 2905  12.714   0.510   9.621  0.3485  0.2218  0.1624
  182loPI   C4A 2906  12.670   0.323   9.181  0.1157  0.1111  0.1074
  182loPI   C5A 2907  12.409   0.290   8.773  0.3172 -0.2801 -0.1374
  182loPI   C6A 2908  12.394   0.393   8.327  0.3054 -0.1223 -0.0419
  182loPI   C1B 2909  12.990   1.454   9.365  0.0864  0.2079 -0.0824
  182loPI   C2B 2910  12.950   1.566   8.966 -0.4171 -0.3131 -0.2268
  182loPI   C3B 2911  12.809   1.274   8.640 -0.1422  0.2201  0.1839
  182loPI   C4B 2912  12.936   1.300   8.094 -0.1972  0.1451 -0.2240
  183loPI    C1 2913   7.844  13.450  10.586 -0.1238 -0.1059  0.2185
  183loPI    C2 2914   8.192  13.289  10.472 -0.1296  0.1716 -0.2147
  183loPI    C3 2915   8.188  13.637  10.669 -0.1520  0.0217  0.0545
  183loPI   PO4 2916   7.719  13.378  10.335  0.2459 -0.1350  0.1871
  183loPI   GL1 2917   7.815  13.505   9.923 -0.2080  0.0957 -0.0115
  183loPI   GL2 2918   7.650  13.818   9.875 -0.2112  0.2533  0.0344
  183loPI   C1A 2919   7.364  13.494   9.584  0.0349 -0.3394  0.0557
  183loPI   C2A 2920   7.412  13.410   9.274  0.0341  0.0921 -0.1836
  183loPI   C3A 2921   7.326  13.284   8.839  0.1724 -0.2733  0.1362
  183loPI   C4A 2922   7.298  13.376   8.395 -0.4908 -0.0057 -0.0505
  183loPI   C5A 2923   7.268  13.097   8.002  0.2134 -0.0672 -0.1602
  183loPI   C6A 2924   7.092  13.256   7.615  0.0705 -0.2625 -0.1688
  183loPI   C1B 2925   7.741  13.710   9.427  0.0236 -0.2048 -0.0753
  183loPI   C2B 2926   7.659  13.653   8.990 -0.1006 -0.1233  0.1318
  183loPI   C3B 2927   7.750  13.617   8.545 -0.0477  0.0411 -0.0429
  183loPI   C4B 2928   7.987  13.664   8.239  0.3937  0.1010 -0.3532
  184loPI    C1 2929   9.165   2.076  10.478 -0.0998 -0.1135  0.0183
  184loPI    C2 2930   8.959   2.376  10.643 -0.0161 -0.0313 -0.0256
  184loPI    C3 2931   9.268   2.214  10.839 -0.0441 -0.0706 -0.0139
  184loPI   PO4 2932   9.172   2.213  10.233  0.0158  0.5583 -0.1556
  184loPI   GL1 2933   9.543   2.128   9.968  0.0089 -0.0262  0.0607
  184loPI   GL2 2934   9.906   2.121   9.904  0.0974 -0.2559  0.1154
  184loPI   C1A 2935   9.490   2.373   9.590 -0.2361 -0.1294 -0.0711
  184loPI   C2A 2936   9.588   2.300   9.216  0.0649 -0.2311  0.1641
  184loPI   C3A 2937   9.550   2.105   8.803  0.2170 -0.0730  0.0786
  184loPI   C4A 2938   9.524   2.080   8.501 -0.0026  0.2469 -0.0051
  184loPI   C5A 2939   9.322   1.808   8.212 -0.1677 -0.1355 -0.4154
  184loPI   C6A 2940   9.120   1.376   8.150  0.2718  0.1973  0.1360
  184loPI   C1B 2941   9.978   2.219   9.491  0.0553  0.1892  0.0620
  184loPI   C2B 2942  10.089   2.343   9.118  0.0622  0.0123 -0.2474
  184loPI   C3B 2943  10.393   2.321   8.787  0.1044 -0.0654 -0.2920
  184loPI   C4B 2944  10.509   2.573   8.381  0.0481 -0.1609  0.0953
  185loPI    C1 2945   1.321  12.626  10.025 -0.0100  0.1312  0.1872
  185loPI    C2 2946   1.243  12.613  10.417  0.1228 -0.0254  0.2091
  185loPI    C3 2947   1.607  12.717  10.289  0.1319 -0.1481  0.1333
  185loPI   PO4 2948   1.256  12.401   9.887  0.0920 -0.1391 -0.1183
  185loPI   GL1 2949   1.276  12.521   9.478  0.1811 -0.1818 -0.0523
  185loPI   GL2 2950   1.322  12.722   9.317  0.0049 -0.3123  0.0040
  185loPI   C1A 2951   1.323  12.306   9.061  0.1435 -0.1226  0.0060
  185loPI   C2A 2952   1.322  12.217   8.745  0.1410 -0.2281  0.2266
  185loPI   C3A 2953   1.465  12.025   8.422  0.1033 -0.0071 -0.2120
  185loPI   C4A 2954   1.844  11.992   8.187  0.0621  0.0045  0.0880
  185loPI   C5A 2955   2.190  12.078   7.857  0.1665  0.1040  0.1435
  185loPI   C6A 2956   2.513  11.706   7.715  0.2752 -0.0168 -0.0956
  185loPI   C1B 2957   1.640  12.771   8.970 -0.2135  0.1250  0.4215
  185loPI   C2B 2958   1.773  12.592   8.590 -0.0812 -0.1824  0.2269
  185loPI   C3B 2959   1.872  12.684   8.138 -0.3699 -0.3099 -0.0102
  185loPI   C4B 2960   2.196  12.609   7.916  0.1444 -0.0616  0.2049
  186loPI    C1 2961   6.995   4.366  10.630 -0.0149 -0.1122 -0.0847
  186loPI    C2 2962   7.195   4.102  10.856  0.3330  0.1468 -0.0830
  186loPI    C3 2963   6.857   4.267  10.993  0.1576 -0.2306 -0.0501
  186loPI   PO4 2964   7.190   4.552  10.578  0.3052  0.2411 -0.3632
  186loPI   GL1 2965   7.222   4.846  10.293  0.1181  0.1375 -0.2351
  186loPI   GL2 2966   6.970   5.144  10.236 -0.2272 -0.0690 -0.0401
  186loPI   C1A 2967   7.321   4.792   9.752 -0.0830 -0.0975 -0.2204
  186loPI   C2A 2968   7.300   4.800   9.378  0.3147  0.2579  0.1575
  186loPI   C3A 2969   7.335   4.780   8.983  0.0644  0.0302  0.2539
  186loPI   C4A 2970   7.261   4.798   8.459  0.0577  0.1084  0.2014
  186loPI   C5A 2971   7.032   4.567   8.147  0.1208 -0.2893  0.1946
  186loPI   C6A 2972   7.185   4.297   7.827  0.2001  0.1355  0.0244
  186loPI   C1B 2973   7.174   5.287   9.932  0.0120  0.1606 -0.0113
  186loPI   C2B 2974   7.166   5.242   9.499  0.0843 -0.2102  0.2633
  186loPI   C3B 2975   7.147   5.207   9.073 -0.2234  0.1781  0.4512
  186loPI   C4B 2976   7.167   5.292   8.562  0.0985 -0.0881  0.2577
  187loPI    C1 2977  17.452  10.538  10.723 -0.1042 -0.0034  0.0709
  187loPI    C2 2978  17.469  10.143  10.783 -0.0030  0.0113  0.1423
  187loPI    C3 2979  17.503  10.394  11.093  0.4466  0.0861  0.0389
  187loPI   PO4 2980  17.525  10.507  10.497  0.0782 -0.1000 -0.2313
  187loPI   GL1 2981  17.329  10.587  10.203  0.1997 -0.1206 -0.0862
  187loPI   GL2 2982  17.362  10.870   9.953  0.0906 -0.2690  0.0495
  187loPI   C1A 2983  17.309  10.296   9.856 -0.0376  0.1433 -0.1735
  187loPI   C2A 2984  17.286  10.213   9.336  0.1610  0.1449 -0.0630
  187loPI   C3A 2985  17.180  10.150   8.880  0.1060  0.2855  0.1420
  187loPI   C4A 2986  16.897  10.138   8.539 -0.2381  0.0024 -0.1057
  187loPI   C5A 2987  16.429  10.190   8.356 -0.0348 -0.0977 -0.1299
  187loPI   C6A 2988  16.183  10.486   8.066 -0.3172  0.3553 -0.0697
  187loPI   C1B 2989  17.255  10.649   9.524  0.0958 -0.0867  0.0785
  187loPI   C2B 2990  17.089  10.753   9.046  0.0139 -0.1224  0.1298
  187loPI   C3B 2991  17.171  10.632   8.669 -0.0544  0.0500 -0.0992
  187loPI   C4B 2992  17.097  10.507   8.214 -0.1173 -0.3748 -0.0088
  188loPI    C1 2993   2.190   1.428   9.526 -0.1014  0.0879 -0.0042
  188loPI    C2 2994   2.238   1.130   9.789  0.0189  0.0396 -0.0801
  188loPI    C3 2995   2.426   1.478   9.845 -0.0365  0.0645 -0.0483
  188loPI   PO4 2996   2.049   1.315   9.315 -0.0336 -0.2046 -0.1290
  188loPI   GL1 2997   2.151   0.985   9.027  0.0189 -0.0093  0.1219
  188loPI   GL2 2998   1.842   1.049   8.946  0.0276 -0.0762  0.2818
  188loPI   C1A 2999   2.236   0.696   8.853  0.5227  0.0161  0.1089
  188loPI   C2A 3000   2.238   0.863   8.461  0.0887  0.0651 -0.1236
  188loPI   C3A 3001   2.266   0.826   8.058  0.0120  0.0547  0.2113
  188loPI   C4A 3002   2.300   0.847   7.774  0.0932  0.0232  0.1186
  188loPI   C5A 3003   2.480   0.783   7.349 -0.1836 -0.1436 -0.1234
  188loPI   C6A 3004   2.761   0.857   6.934 -0.3060 -0.0515 -0.3498
  188loPI   C1B 3005   1.866   1.243   8.452 -0.0363  0.3018 -0.1927
  188loPI   C2B 3006   1.882   1.236   8.061  0.0536 -0.0362 -0.1292
  188loPI   C3B 3007   1.855   1.127   7.631 -0.1191 -0.3989 -0.1140
  188loPI   C4B 3008   1.823   1.327   7.223 -0.2422  0.0676 -0.0560
  189loPI    C1 3009   3.504   6.518  10.589 -0.0762 -0.0157 -0.0436
  189loPI    C2 3010   3.195   6.268  10.544 -0.2090  0.1654 -0.1516
  189loPI    C3 3011   3.373   6.304  10.901 -0.2779  0.0211 -0.1017
  189loPI   PO4 3012   3.596   6.511  10.237  0.3606  0.4513  0.0151
  189loPI   GL1 3013   3.617   6.602   9.807 -0.3074  0.1961 -0.2390
  189loPI   GL2 3014   3.384   6.881   9.848  0.1360 -0.1594 -0.5613
  189loPI   C1A 3015   3.798   6.539   9.464  0.2085  0.1931  0.0279
  189loPI   C2A 3016   3.820   6.584   9.041  0.0605 -0.2105  0.0861
  189loPI   C3A 3017   4.041   6.547   8.639  0.1064  0.3895 -0.1019
  189loPI   C4A 3018   4.034   6.288   8.303 -0.1203  0.0293  0.0267
  189loPI   C5A 3019   4.259   6.351   7.976 -0.1871  0.1368  0.1332
  189loPI   C6A 3020   4.680   6.377   7.828 -0.0302  0.0527  0.0282
  189loPI   C1B 3021   3.000   6.716   9.680 -0.0909 -0.0629  0.0519
  189loPI   C2B 3022   2.859   6.891   9.314 -0.1073 -0.3412  0.0525
  189loPI   C3B 3023   2.821   7.132   8.966 -0.0300 -0.2157  0.5651
  189loPI   C4B 3024   2.664   7.154   8.540 -0.2866  0.2125  0.0210
  190loPI    C1 3025   7.000   1.213  10.424 -0.0462 -0.0352 -0.1534
  190loPI    C2 3026   6.790   0.911  10.581  0.0373  0.0175  0.0619
  190loPI    C3 3027   6.775   1.275  10.748  0.0948  0.0847 -0.0773
  190loPI   PO4 3028   7.009   1.147  10.184 -0.3314  0.1524  0.2628
  190loPI   GL1 3029   6.922   1.452   9.929 -0.1575  0.1446  0.1811
  190loPI   GL2 3030   6.667   1.261   9.782 -0.2405 -0.0773 -0.0493
  190loPI   C1A 3031   6.869   1.682   9.494 -0.0313 -0.0679 -0.3007
  190loPI   C2A 3032   6.978   1.741   9.100  0.1338  0.0062  0.1453
  190loPI   C3A 3033   7.232   1.793   8.765  0.3690 -0.2580 -0.2240
  190loPI   C4A 3034   7.143   1.814   8.313 -0.0646  0.3016 -0.0955
  190loPI   C5A 3035   7.321   1.697   7.888 -0.0205 -0.0307 -0.1012
  190loPI   C6A 3036   7.590   1.610   7.542  0.0985  0.3291  0.2236
  190loPI   C1B 3037   6.724   1.204   9.427 -0.2187 -0.0685  0.2631
  190loPI   C2B 3038   6.353   1.068   9.147  0.3150 -0.0071 -0.0473
  190loPI   C3B 3039   5.945   0.872   9.087  0.1640 -0.0620  0.2046
  190loPI   C4B 3040   5.566   0.693   9.197 -0.1948 -0.1943  0.1990
  191loPI    C1 3041  17.828   0.645   9.833 -0.0055  0.0116 -0.0620
  191loPI    C2 3042  18.155   0.804  10.000 -0.0048 -0.0900  0.0345
  191loPI    C3 3043  18.104   0.407   9.998 -0.0658 -0.0821 -0.0954
  191loPI   PO4 3044  17.653   0.818   9.847 -0.5771  0.0630  0.1354
  191loPI   GL1 3045  17.397   0.992   9.569  0.1113  0.0833  0.1822
  191loPI   GL2 3046  17.775   1.145   9.437 -0.1002  0.0043 -0.0934
  191loPI   C1A 3047  17.370   0.842   9.155 -0.1710 -0.1706  0.1147
  191loPI   C2A 3048  17.094   0.715   8.843 -0.3493 -0.0364  0.0591
  191loPI   C3A 3049  17.183   0.763   8.506  0.0067  0.1224 -0.1461
  191loPI   C4A 3050  17.225   0.463   8.139  0.1523 -0.0264  0.1473
  191loPI   C5A 3051  17.133   0.609   7.729 -0.0232  0.0041  0.0901
  191loPI   C6A 3052  17.392   0.874   7.467  0.1588 -0.0437 -0.1112
  191loPI   C1B 3053  17.628   1.299   9.080 -0.1046 -0.0167  0.0665
  191loPI   C2B 3054  17.380   1.178   8.751  0.0480 -0.4536  0.0075
  191loPI   C3B 3055  17.188   1.231   8.318 -0.1924 -0.2168  0.0945
  191loPI   C4B 3056  17.380   0.911   8.054  0.4218  0.1795  0.0947
  192loPI    C1 3057  12.172   7.537  10.843  0.1826  0.0844 -0.0187
  192loPI    C2 3058  12.344   7.416  11.183 -0.0108  0.1403  0.1005
  192loPI    C3 3059  12.129   7.159  10.965  0.2853  0.0489 -0.0903
  192loPI   PO4 3060  12.335   7.584  10.643  0.0949  0.0819 -0.1767
  192loPI   GL1 3061  12.130   7.742  10.252 -0.4072  0.1349  0.2722
  192loPI   GL2 3062  12.367   7.447  10.216 -0.2587  0.2968  0.2059
  192loPI   C1A 3063  12.138   7.613   9.782 -0.2798  0.4116  0.1893
  192loPI   C2A 3064  11.943   7.335   9.492  0.0248  0.1375 -0.1436
  192loPI   C3A 3065  11.888   7.017   9.231  0.0079  0.0265  0.2031
  192loPI   C4A 3066  11.599   7.006   8.974  0.0360  0.2109  0.1942
  192loPI   C5A 3067  11.326   7.189   8.794 -0.0454  0.1716 -0.3060
  192loPI   C6A 3068  10.979   7.018   8.578  0.3965  0.0182  0.0002
  192loPI   C1B 3069  12.699   7.507  10.024 -0.0257 -0.0293 -0.0376
  192loPI   C2B 3070  12.650   7.657   9.610 -0.0201 -0.3619  0.0672
  192loPI   C3B 3071  12.743   7.657   9.147  0.2772  0.2907 -0.0262
  192loPI   C4B 3072  12.518   7.596   8.723  0.0154 -0.2493 -0.2593
  193loPI    C1 3073  10.930   5.885  11.007  0.0193 -0.1137  0.3598
  193loPI    C2 3074  10.856   6.273  11.073  0.0331 -0.0565  0.0518
  193loPI    C3 3075  10.801   6.007  11.366 -0.3120  0.1319  0.1635
  193loPI   PO4 3076  10.700   5.816  10.717  0.0450 -0.3023 -0.2896
  193loPI   GL1 3077  10.586   5.978  10.266  0.1855 -0.0352 -0.3488
  193loPI   GL2 3078  10.388   5.720  10.211 -0.1650 -0.0737 -0.0997
  193loPI   C1A 3079  10.753   6.032   9.801  0.2654  0.1365  0.1186
  193loPI   C2A 3080  10.886   6.181   9.398  0.1423  0.2907  0.1360
  193loPI   C3A 3081  11.206   6.261   9.098 -0.1248  0.3075  0.2488
  193loPI   C4A 3082  11.277   6.559   8.736 -0.0565  0.1559  0.1582
  193loPI   C5A 3083  11.604   6.799   8.473  0.3414 -0.2204 -0.2493
  193loPI   C6A 3084  12.000   6.799   8.182 -0.0260  0.1890  0.1492
  193loPI   C1B 3085  10.469   5.680   9.793  0.3147  0.3415  0.1264
  193loPI   C2B 3086  10.615   5.606   9.342  0.1161 -0.1232  0.1133
  193loPI   C3B 3087  10.707   5.819   8.946  0.0708 -0.4613 -0.2351
  193loPI   C4B 3088  11.085   6.065   8.634 -0.0448 -0.1837 -0.1211
  194loPI    C1 3089  16.388   2.110  10.060  0.4718 -0.0696  0.0434
  194loPI    C2 3090  16.517   2.126  10.438  0.2462 -0.1386  0.1246
  194loPI    C3 3091  16.272   2.410  10.297 -0.1567 -0.4315  0.2166
  194loPI   PO4 3092  16.631   1.962   9.978  0.0949 -0.1699  0.2653
  194loPI   GL1 3093  16.796   2.060   9.629 -0.0489  0.0800  0.0179
  194loPI   GL2 3094  16.822   1.736   9.401 -0.1689 -0.1602 -0.4428
  194loPI   C1A 3095  16.660   2.244   9.303 -0.3280 -0.1166 -0.0652
  194loPI   C2A 3096  16.514   2.225   8.950 -0.1505 -0.0281  0.0757
  194loPI   C3A 3097  16.474   2.414   8.525 -0.2724 -0.2040  0.3376
  194loPI   C4A 3098  16.247   2.670   8.178  0.3599 -0.2520 -0.2292
  194loPI   C5A 3099  16.222   3.020   8.074  0.2714 -0.1255 -0.4057
  194loPI   C6A 3100  15.996   3.213   7.724  0.0393  0.3969  0.0419
  194loPI   C1B 3101  16.863   1.883   9.052 -0.1655  0.3013 -0.1461
  194loPI   C2B 3102  16.840   1.918   8.651  0.3669 -0.2465  0.2276
  194loPI   C3B 3103  16.875   2.072   8.284  0.0243 -0.1546 -0.1878
  194loPI   C4B 3104  16.639   2.348   8.001  0.0594  0.1430 -0.0194
  195loPI    C1 3105   1.331  17.764   9.319 -0.0253 -0.1362  0.1713
  195loPI    C2 3106   1.403  17.533   9.637  0.0057 -0.2939  0.0505
  195loPI    C3 3107   1.398  17.931   9.677 -0.0593 -0.3144  0.2618
  195loPI   PO4 3108   1.069  17.724   9.222 -0.2513 -0.1008  0.2018
  195loPI   GL1 3109   0.850  17.632   8.910  0.3887  0.0802  0.2518
  195loPI   GL2 3110   0.871  18.053   8.880  0.0409  0.0487  0.3859
  195loPI   C1A 3111   0.678  17.491   8.528 -0.2216  0.1824 -0.4563
  195loPI   C2A 3112   0.631  17.484   8.030  0.2752  0.0964 -0.1633
  195loPI   C3A 3113   0.499  17.429   7.614 -0.0514 -0.0738  0.3622
  195loPI   C4A 3114   0.483  17.147   7.218 -0.1306  0.1250 -0.0596
  195loPI   C5A 3115   0.059  17.104   7.176  0.1269  0.3306 -0.0607
  195loPI   C6A 3116  -0.251  17.295   6.901  0.0071  0.3722  0.2655
  195loPI   C1B 3117   0.871  17.960   8.518 -0.1505  0.1822  0.2185
  195loPI   C2B 3118   0.818  17.980   8.168 -0.2061 -0.0668 -0.2148
  195loPI   C3B 3119   0.854  17.784   7.719  0.1054  0.1276 -0.4230
  195loPI   C4B 3120   0.912  17.929   7.289  0.3124  0.0937 -0.2998
  196loPI    C1 3121   4.458   4.010  10.106 -0.0117 -0.0366 -0.1371
  196loPI    C2 3122   4.593   4.021  10.482  0.2050 -0.0500 -0.2133
  196loPI    C3 3123   4.296   4.264  10.370  0.0982 -0.0885 -0.0185
  196loPI   PO4 3124   4.723   3.983   9.983  0.2448 -0.0276  0.1746
  196loPI   GL1 3125   4.984   4.172   9.663 -0.0170 -0.0963  0.0536
  196loPI   GL2 3126   4.924   4.505   9.726 -0.4074 -0.0355  0.2679
  196loPI   C1A 3127   5.083   4.035   9.286 -0.2897  0.0929  0.2367
  196loPI   C2A 3128   5.202   3.987   8.889  0.0668  0.1966  0.2581
  196loPI   C3A 3129   5.254   3.772   8.454 -0.1959  0.0881 -0.5003
  196loPI   C4A 3130   5.024   3.768   8.065  0.0039 -0.2323  0.0838
  196loPI   C5A 3131   5.017   3.895   7.620  0.1163  0.0021  0.1125
  196loPI   C6A 3132   5.408   3.940   7.334  0.0135  0.0527  0.0421
  196loPI   C1B 3133   4.983   4.716   9.421 -0.3421 -0.0076  0.3131
  196loPI   C2B 3134   5.060   4.433   9.058  0.1882 -0.1295 -0.2565
  196loPI   C3B 3135   4.946   4.304   8.607  0.0165 -0.1062  0.1636
  196loPI   C4B 3136   5.004   4.271   8.208  0.2017 -0.0306  0.2413
  197loPI    C1 3137   3.186   2.853   9.826 -0.0409 -0.0298  0.0288
  197loPI    C2 3138   3.518   2.709   9.997 -0.0061  0.0011 -0.0125
  197loPI    C3 3139   3.420   3.093  10.045  0.0463  0.0294 -0.1273
  197loPI   PO4 3140   3.242   2.669   9.593 -0.0306  0.0396 -0.0240
  197loPI   GL1 3141   3.195   2.768   9.143 -0.0591  0.1004 -0.3542
  197loPI   GL2 3142   2.982   2.578   9.126  0.3729 -0.0255 -0.1781
  197loPI   C1A 3143   3.224   2.769   8.646 -0.1196 -0.1088 -0.1809
  197loPI   C2A 3144   3.381   2.928   8.253 -0.2430  0.0256 -0.1281
  197loPI   C3A 3145   3.474   2.971   7.838 -0.2027 -0.4133  0.1020
  197loPI   C4A 3146   3.436   3.235   7.506  0.2244  0.3698 -0.2017
  197loPI   C5A 3147   3.261   3.453   7.171  0.0233 -0.0081 -0.0223
  197loPI   C6A 3148   2.983   3.407   6.896  0.1657 -0.1160  0.0543
  197loPI   C1B 3149   2.739   2.636   8.830 -0.0936  0.3792  0.1580
  197loPI   C2B 3150   2.801   2.673   8.407 -0.1775 -0.0383  0.3924
  197loPI   C3B 3151   2.825   2.715   8.058  0.0856  0.0801 -0.0577
  197loPI   C4B 3152   2.668   2.931   7.811 -0.0336 -0.1672 -0.0637
  198loPI    C1 3153  13.063   2.701  11.016 -0.1775 -0.0790  0.2419
  198loPI    C2 3154  12.781   2.963  11.121 -0.0806  0.0925  0.0805
  198loPI    C3 3155  13.119   2.939  11.332 -0.0287  0.2000  0.0106
  198loPI   PO4 3156  12.844   2.585  10.751  0.3480  0.1815  0.0219
  198loPI   GL1 3157  12.917   2.464  10.285  0.0669  0.1553 -0.1100
  198loPI   GL2 3158  12.829   2.241  10.417  0.0146 -0.1041 -0.0774
  198loPI   C1A 3159  12.631   2.600   9.952 -0.1864 -0.0371 -0.2446
  198loPI   C2A 3160  12.718   2.545   9.540 -0.0203  0.2325  0.1219
  198loPI   C3A 3161  12.600   2.627   9.121  0.3429 -0.1387  0.1819
  198loPI   C4A 3162  12.256   2.489   8.950  0.0288 -0.1114  0.0328
  198loPI   C5A 3163  12.164   2.424   8.442  0.5997 -0.4020 -0.2196
  198loPI   C6A 3164  12.288   2.173   8.066 -0.1327  0.0628  0.1452
  198loPI   C1B 3165  12.728   2.053   9.992  0.1647  0.2073  0.1563
  198loPI   C2B 3166  12.797   2.026   9.576 -0.1110 -0.3121 -0.0057
  198loPI   C3B 3167  12.840   2.125   9.101  0.1551  0.0767  0.0247
  198loPI   C4B 3168  13.065   2.165   8.764 -0.1979  0.1485  0.0430
  199loPI    C1 3169   8.996   6.806  11.052 -0.0508 -0.1965  0.0428
  199loPI    C2 3170   8.940   6.867  11.443  0.0253 -0.1359  0.0445
  199loPI    C3 3171   9.303   6.917  11.283 -0.0339 -0.0296 -0.0581
  199loPI   PO4 3172   8.876   7.023  10.860  0.1372 -0.0807 -0.2760
  199loPI   GL1 3173   8.664   7.322  10.574  0.0695 -0.1553 -0.0302
  199loPI   GL2 3174   8.363   7.379  10.493  0.2410 -0.0272 -0.0795
  199loPI   C1A 3175   8.868   7.668  10.333  0.4335  0.1025 -0.1704
  199loPI   C2A 3176   9.011   7.557   9.937 -0.1379 -0.0685 -0.2050
  199loPI   C3A 3177   9.115   7.291   9.554  0.1796  0.0567  0.1229
  199loPI   C4A 3178   9.334   7.115   9.240  0.2952 -0.1954  0.2527
  199loPI   C5A 3179   9.385   7.004   8.863 -0.1353  0.3934  0.2555
  199loPI   C6A 3180   9.406   6.624   8.533  0.0248 -0.0901 -0.1760
  199loPI   C1B 3181   8.417   7.238  10.008 -0.0230  0.0951  0.2605
  199loPI   C2B 3182   8.625   7.303   9.671 -0.4568  0.0152 -0.2031
  199loPI   C3B 3183   8.754   7.269   9.255 -0.0052 -0.1533  0.0265
  199loPI   C4B 3184   8.905   7.143   8.821 -0.0823  0.2395  0.1411
  200loPI    C1 3185   0.111  11.093  10.478  0.1971 -0.0373 -0.1304
  200loPI    C2 3186   0.372  11.047  10.777 -0.0208 -0.2972  0.0240
  200loPI    C3 3187  -0.020  10.999  10.844 -0.1484  0.4249 -0.1260
  200loPI   PO4 3188   0.294  10.941  10.250  0.2021 -0.1310  0.1163
  200loPI   GL1 3189   0.362  10.755   9.784 -0.0132  0.0995 -0.1970
  200loPI   GL2 3190   0.150  10.983   9.757 -0.1769  0.1512  0.3260
  200loPI   C1A 3191   0.732  10.961   9.558  0.1228  0.1763  0.3747
  200loPI   C2A 3192   0.771  10.951   9.131 -0.2256  0.1397 -0.1213
  200loPI   C3A 3193   0.604  10.845   8.719  0.0378 -0.1257 -0.1636
  200loPI   C4A 3194   0.538  10.866   8.248 -0.3687  0.1512 -0.0491
  200loPI   C5A 3195   0.395  10.875   7.835  0.0576  0.2220  0.0702
  200loPI   C6A 3196   0.117  11.075   7.422 -0.2015  0.0344  0.3872
  200loPI   C1B 3197   0.387  11.174   9.313  0.2090  0.0074  0.0816
  200loPI   C2B 3198   0.339  11.238   8.835  0.2780 -0.1653  0.0327
  200loPI   C3B 3199   0.216  11.395   8.480  0.5577  0.1032  0.2671
  200loPI   C4B 3200   0.490  11.476   8.119  0.0137  0.3644  0.4236
  201loPI    C1 3201  17.875  11.500  10.411  0.1665  0.1257  0.0208
  201loPI    C2 3202  18.085  11.200  10.570  0.0248 -0.0921 -0.1956
  201loPI    C3 3203  18.112  11.567  10.726  0.2290 -0.2071  0.0481
  201loPI   PO4 3204  17.932  11.437  10.148  0.2280  0.0809 -0.0365
  201loPI   GL1 3205  17.920  11.186   9.831 -0.0557  0.1381  0.1054
  201loPI   GL2 3206  18.250  11.286   9.694  0.3230 -0.0228 -0.3743
  201loPI   C1A 3207  17.903  10.980   9.367 -0.3626 -0.1639  0.1471
  201loPI   C2A 3208  18.075  10.917   8.980  0.1170 -0.0188  0.1938
  201loPI   C3A 3209  18.134  10.751   8.600 -0.1803 -0.0783 -0.3002
  201loPI   C4A 3210  17.945  10.355   8.521 -0.2218 -0.0137  0.0205
  201loPI   C5A 3211  17.962  10.066   8.086 -0.1773  0.0226 -0.1151
  201loPI   C6A 3212  18.007   9.911   7.658  0.1235  0.0013 -0.2170
  201loPI   C1B 3213  18.381  11.030   9.369  0.0004 -0.0180 -0.0374
  201loPI   C2B 3214  18.624  10.839   9.092  0.0164  0.1159 -0.1576
  201loPI   C3B 3215  18.539  10.490   8.828 -0.1641  0.0373  0.0169
  201loPI   C4B 3216  18.419  10.243   8.474  0.1268  0.1425  0.3402
  202loPI    C1 3217  15.464   1.791  10.615 -0.0928 -0.2832 -0.0198
  202loPI    C2 3218  15.853   1.867  10.671 -0.1473  0.0243 -0.0374
  202loPI    C3 3219  15.586   1.980  10.946 -0.2628  0.1691 -0.2073
  202loPI   PO4 3220  15.406   1.884  10.384 -0.2886  0.4027 -0.2240
  202loPI   GL1 3221  15.164   1.803   9.924 -0.2285  0.0914 -0.0806
  202loPI   GL2 3222  14.790   1.745   9.943  0.1278 -0.3493  0.0881
  202loPI   C1A 3223  15.173   2.051   9.645 -0.1864  0.0530 -0.1632
  202loPI   C2A 3224  15.167   2.048   9.285  0.0263 -0.0187  0.1149
  202loPI   C3A 3225  15.400   1.996   8.898 -0.3797  0.2403 -0.2610
  202loPI   C4A 3226  15.182   2.243   8.440  0.2654  0.3854 -0.1239
  202loPI   C5A 3227  15.014   2.095   8.115  0.1783 -0.0344  0.0543
  202loPI   C6A 3228  15.152   1.769   7.846  0.1030  0.0572 -0.1212
  202loPI   C1B 3229  14.556   1.980   9.623 -0.2442 -0.2282 -0.2183
  202loPI   C2B 3230  14.659   2.176   9.211 -0.1012 -0.3718 -0.0013
  202loPI   C3B 3231  14.923   2.055   8.848  0.1627  0.2453 -0.0739
  202loPI   C4B 3232  14.878   1.724   8.459 -0.3103  0.0143 -0.2226
  203loPI    C1 3233  16.864   7.134  10.441  0.0426  0.0257  0.1965
  203loPI    C2 3234  17.090   7.178  10.768  0.2823 -0.2718  0.0754
  203loPI    C3 3235  17.251   7.035  10.431  0.0185 -0.0458 -0.1517
  203loPI   PO4 3236  16.650   7.054  10.468 -0.2846  0.0419 -0.1060
  203loPI   GL1 3237  16.406   7.066  10.196 -0.0315 -0.1026 -0.0301
  203loPI   GL2 3238  16.295   7.379  10.280  0.1511 -0.3076 -0.1009
  203loPI   C1A 3239  16.503   6.972   9.794 -0.1353 -0.1616 -0.1110
  203loPI   C2A 3240  16.494   6.824   9.423 -0.0451 -0.1480  0.4041
  203loPI   C3A 3241  16.705   6.941   9.001 -0.0246  0.3410 -0.0394
  203loPI   C4A 3242  16.899   6.723   8.681 -0.2569 -0.1968  0.0098
  203loPI   C5A 3243  17.107   6.523   8.486  0.3400 -0.1540  0.2068
  203loPI   C6A 3244  17.518   6.425   8.301 -0.2009 -0.0661 -0.1258
  203loPI   C1B 3245  16.222   7.408   9.860 -0.1629 -0.2430 -0.1151
  203loPI   C2B 3246  16.222   7.409   9.332  0.2549  0.1476 -0.0246
  203loPI   C3B 3247  16.226   7.460   8.945 -0.5043 -0.1545 -0.2511
  203loPI   C4B 3248  16.112   7.338   8.546  0.1263  0.0379  0.0526
  204loPI    C1 3249  17.269   9.712  10.725 -0.1029 -0.0593 -0.0823
  204loPI    C2 3250  16.953   9.876  10.907 -0.0854 -0.1653  0.0457
  204loPI    C3 3251  17.244   9.709  11.124 -0.0087 -0.1918 -0.0765
  204loPI   PO4 3252  17.116   9.623  10.354 -0.0958  0.1683 -0.1915
  204loPI   GL1 3253  17.028   9.958   9.981 -0.0529 -0.1128  0.0338
  204loPI   GL2 3254  16.876   9.582   9.871 -0.2483  0.1580 -0.3354
  204loPI   C1A 3255  16.858  10.081   9.571 -0.3286 -0.0003 -0.2194
  204loPI   C2A 3256  16.741  10.201   9.210  0.1149  0.3218 -0.0161
  204loPI   C3A 3257  16.658  10.569   8.854  0.0822  0.0000  0.1063
  204loPI   C4A 3258  16.720  10.618   8.494  0.0078  0.0293 -0.1134
  204loPI   C5A 3259  16.531  10.780   8.212  0.2393  0.1860 -0.4705
  204loPI   C6A 3260  16.595  10.818   7.788  0.0253 -0.0849  0.5733
  204loPI   C1B 3261  16.635   9.664   9.575  0.3169 -0.0456 -0.1059
  204loPI   C2B 3262  16.692   9.558   9.208 -0.2549 -0.0049 -0.1274
  204loPI   C3B 3263  16.807   9.770   8.839 -0.1187 -0.1312  0.4842
  204loPI   C4B 3264  16.806   9.622   8.378 -0.3074 -0.2765 -0.0216
  205loPI    C1 3265   2.922   5.158  10.016 -0.0496  0.0873  0.0172
  205loPI    C2 3266   3.284   5.224   9.859  0.1648 -0.1143  0.4110
  205loPI    C3 3267   3.097   5.515  10.059 -0.0061  0.0685 -0.0021
  205loPI   PO4 3268   2.722   5.090   9.862 -0.1619 -0.0214  0.0228
  205loPI   GL1 3269   2.508   5.246   9.479 -0.0131 -0.0890 -0.0156
  205loPI   GL2 3270   2.370   5.040   9.410 -0.0933  0.0901  0.0029
  205loPI   C1A 3271   2.710   5.471   9.066 -0.0292 -0.0391  0.0311
  205loPI   C2A 3272   2.776   5.649   8.651  0.0897  0.2213 -0.0158
  205loPI   C3A 3273   2.913   5.830   8.169  0.1809 -0.2175  0.0700
  205loPI   C4A 3274   2.643   5.872   7.816 -0.1602  0.1997  0.1235
  205loPI   C5A 3275   2.370   6.194   7.621  0.0903  0.1486  0.1028
  205loPI   C6A 3276   2.061   6.448   7.746 -0.1515  0.1160 -0.3423
  205loPI   C1B 3277   2.295   5.257   9.027 -0.2281  0.0227  0.1140
  205loPI   C2B 3278   2.287   5.335   8.529 -0.0003  0.0264  0.1332
  205loPI   C3B 3279   2.357   5.175   8.194  0.2840  0.1484  0.3043
  205loPI   C4B 3280   2.474   5.425   7.935  0.2956  0.2033 -0.0247
  206loPI    C1 3281  17.630  10.992  10.551  0.2986 -0.0069 -0.0058
  206loPI    C2 3282  17.362  11.287  10.510  0.1817 -0.1264 -0.1107
  206loPI    C3 3283  17.609  11.284  10.825  0.0101 -0.0544  0.0268
  206loPI   PO4 3284  17.768  10.958  10.260 -0.1276 -0.2363  0.0252
  206loPI   GL1 3285  17.959  10.574  10.074 -0.2837 -0.0612 -0.2377
  206loPI   GL2 3286  18.280  10.666   9.801  0.1751  0.0134  0.1714
  206loPI   C1A 3287  17.722  10.581   9.710  0.0833  0.3766 -0.1630
  206loPI   C2A 3288  17.686  10.533   9.276  0.0254 -0.1069 -0.1561
  206loPI   C3A 3289  17.600  10.486   8.849 -0.0610  0.3767 -0.2591
  206loPI   C4A 3290  17.588  10.692   8.376  0.0209  0.1930 -0.1101
  206loPI   C5A 3291  17.376  10.919   8.163 -0.0800  0.2435  0.2206
  206loPI   C6A 3292  16.952  11.101   8.057 -0.1340 -0.0748 -0.0796
  206loPI   C1B 3293  18.252  10.540   9.329 -0.1382 -0.0870 -0.4522
  206loPI   C2B 3294  18.163  10.222   9.152  0.0151  0.2143 -0.2556
  206loPI   C3B 3295  18.191   9.890   8.990  0.2168  0.2497 -0.1581
  206loPI   C4B 3296  18.167   9.834   8.507 -0.0931 -0.1190 -0.0084
  207loPI    C1 3297   5.446   5.673  10.555  0.1529  0.1618 -0.1598
  207loPI    C2 3298   5.401   5.698  10.951  0.1398  0.0134 -0.1516
  207loPI    C3 3299   5.171   5.918  10.710  0.0836  0.0342 -0.0794
  207loPI   PO4 3300   5.624   5.684  10.460  0.2399 -0.1614  0.0927
  207loPI   GL1 3301   5.607   5.547  10.044  0.0715 -0.1592  0.0147
  207loPI   GL2 3302   5.289   5.677   9.988 -0.1008  0.5258  0.2269
  207loPI   C1A 3303   5.547   5.456   9.581  0.0428 -0.3192  0.1560
  207loPI   C2A 3304   5.622   5.220   9.172  0.3581  0.0575 -0.0703
  207loPI   C3A 3305   5.835   5.340   8.772  0.0818 -0.3082 -0.1002
  207loPI   C4A 3306   5.827   5.331   8.388 -0.0294  0.0129 -0.1304
  207loPI   C5A 3307   5.523   5.375   8.131  0.0903  0.2100 -0.1139
  207loPI   C6A 3308   5.456   5.605   7.689  0.0913  0.0017 -0.0347
  207loPI   C1B 3309   5.210   5.883   9.642 -0.1244  0.3393  0.0878
  207loPI   C2B 3310   5.133   5.933   9.213  0.0469  0.2559 -0.1228
  207loPI   C3B 3311   5.583   5.808   8.900 -0.3253 -0.2253  0.2086
  207loPI   C4B 3312   5.725   5.876   8.489  0.3293  0.1424 -0.1956
  208loPI    C1 3313  12.597  16.782   9.930 -0.0476 -0.0108  0.0637
  208loPI    C2 3314  12.924  16.750  10.158  0.0327 -0.2547 -0.0828
  208loPI    C3 3315  12.631  16.480  10.190 -0.2286  0.0502  0.1603
  208loPI   PO4 3316  12.574  17.056   9.982 -0.3398  0.0190  0.1746
  208loPI   GL1 3317  12.646  17.372   9.683  0.0106 -0.0182 -0.0546
  208loPI   GL2 3318  12.814  17.306   9.457 -0.1354  0.0583  0.0995
  208loPI   C1A 3319  12.375  17.604   9.325 -0.1123 -0.0416 -0.3288
  208loPI   C2A 3320  12.247  17.473   8.871  0.1114  0.0785 -0.0218
  208loPI   C3A 3321  11.875  17.467   8.563  0.0778 -0.1755  0.0301
  208loPI   C4A 3322  11.625  17.403   8.282 -0.0971  0.1013  0.0674
  208loPI   C5A 3323  11.797  17.092   8.100 -0.1566 -0.0850 -0.0721
  208loPI   C6A 3324  11.978  16.650   8.215  0.3305 -0.4765  0.0770
  208loPI   C1B 3325  12.718  17.442   8.970  0.0732  0.0193 -0.1752
  208loPI   C2B 3326  13.016  17.706   8.718  0.2062  0.0641 -0.1338
  208loPI   C3B 3327  12.973  18.011   8.528 -0.1647  0.5320 -0.1477
  208loPI   C4B 3328  13.100  18.338   8.157  0.0785 -0.0751 -0.1903
  209loPI    C1 3329   2.244  17.911   9.668  0.1210  0.2827  0.2000
  209loPI    C2 3330   1.875  17.759   9.683  0.2024  0.0426 -0.1147
  209loPI    C3 3331   2.043  17.908  10.014 -0.1191  0.0227  0.0625
  209loPI   PO4 3332   2.208  18.049   9.455  0.1834 -0.0918 -0.0268
  209loPI   GL1 3333   2.185  18.238   9.076 -0.3833 -0.0856 -0.2128
  209loPI   GL2 3334   2.241  17.840   9.004 -0.5657  0.1270 -0.0060
  209loPI   C1A 3335   2.326  18.218   8.684  0.1955  0.3868  0.0843
  209loPI   C2A 3336   2.479  18.443   8.362 -0.1011 -0.2669  0.1212
  209loPI   C3A 3337   2.342  18.289   7.922  0.1455 -0.2250  0.0668
  209loPI   C4A 3338   2.267  17.968   7.560  0.1798 -0.0177 -0.2976
  209loPI   C5A 3339   2.576  17.805   7.272 -0.1927 -0.0839  0.0708
  209loPI   C6A 3340   2.982  17.713   7.044  0.1436  0.4078  0.0528
  209loPI   C1B 3341   2.149  17.740   8.507 -0.1076  0.0995  0.4128
  209loPI   C2B 3342   2.218  17.747   8.044  0.0371  0.0206 -0.0973
  209loPI   C3B 3343   2.196  17.354   7.777  0.2446  0.0245 -0.4488
  209loPI   C4B 3344   1.992  17.303   7.376 -0.0460  0.0796  0.2134
  210loPI    C1 3345  18.240   2.474  10.231 -0.0593 -0.1476  0.1180
  210loPI    C2 3346  18.607   2.620  10.166 -0.0986 -0.1045 -0.0111
  210loPI    C3 3347  18.550   2.338  10.443  0.0180 -0.0498  0.0693
  210loPI   PO4 3348  18.152   2.435   9.922 -0.3551  0.0058  0.0465
  210loPI   GL1 3349  18.275   2.373   9.567  0.3511 -0.1710 -0.2264
  210loPI   GL2 3350  18.609   2.508   9.531  0.3141  0.1302 -0.1206
  210loPI   C1A 3351  17.990   2.497   9.145 -0.1998 -0.0540 -0.0013
  210loPI   C2A 3352  18.018   2.539   8.678 -0.2216 -0.0467  0.0598
  210loPI   C3A 3353  17.874   2.515   8.193  0.0474 -0.1068 -0.0881
  210loPI   C4A 3354  17.721   2.154   7.929  0.1176  0.2713 -0.0938
  210loPI   C5A 3355  17.512   1.842   7.907 -0.0291 -0.0301 -0.0565
  210loPI   C6A 3356  17.489   1.431   7.741  0.0793  0.0317  0.0104
  210loPI   C1B 3357  18.525   2.504   9.122  0.6117 -0.0160 -0.0498
  210loPI   C2B 3358  18.552   2.471   8.682 -0.3015 -0.0775  0.2776
  210loPI   C3B 3359  18.341   2.506   8.308  0.3229  0.1354  0.0801
  210loPI   C4B 3360  18.297   2.296   7.881  0.2372  0.0048  0.0470
  211loPI    C1 3361  10.387   9.452  10.769  0.1536  0.0092 -0.1390
  211loPI    C2 3362  10.350   9.061  10.842  0.0144  0.0892  0.2434
  211loPI    C3 3363  10.654   9.266  11.001  0.1407  0.1213 -0.0335
  211loPI   PO4 3364  10.354   9.527  10.549  0.1463  0.2587 -0.0312
  211loPI   GL1 3365  10.143   9.447  10.163 -0.1285  0.0825 -0.3663
  211loPI   GL2 3366  10.019   9.174  10.086 -0.2001  0.1503  0.3321
  211loPI   C1A 3367  10.185   9.766   9.797 -0.3710 -0.0880 -0.0751
  211loPI   C2A 3368  10.261   9.651   9.414 -0.1242  0.0968 -0.4240
  211loPI   C3A 3369  10.282   9.665   9.010 -0.2251  0.0224 -0.0083
  211loPI   C4A 3370  10.363   9.570   8.740  0.1651  0.2555  0.4356
  211loPI   C5A 3371  10.461   9.479   8.310 -0.0337  0.1952 -0.1421
  211loPI   C6A 3372  10.815   9.485   8.071 -0.1631 -0.3090 -0.0420
  211loPI   C1B 3373   9.891   9.333   9.653  0.1256  0.2810  0.0429
  211loPI   C2B 3374   9.904   9.269   9.148  0.0964  0.0504  0.2200
  211loPI   C3B 3375   9.960   9.262   8.771 -0.0732  0.1456  0.2353
  211loPI   C4B 3376   9.731   9.308   8.421  0.0399  0.1556 -0.0215
  212loPI    C1 3377   2.764   1.820   9.482  0.0363  0.0122 -0.1756
  212loPI    C2 3378   2.828   1.820   9.877  0.2732 -0.0608 -0.2121
  212loPI    C3 3379   2.504   2.001   9.727  0.0891 -0.1844  0.0291
  212loPI   PO4 3380   2.738   1.500   9.440 -0.1463  0.0887  0.2654
  212loPI   GL1 3381   2.515   1.488   9.070 -0.1111  0.2425 -0.2290
  212loPI   GL2 3382   2.680   1.676   8.929  0.0111 -0.2170  0.0478
  212loPI   C1A 3383   2.348   1.291   8.654  0.0475  0.0095 -0.0023
  212loPI   C2A 3384   2.493   1.207   8.205 -0.0808 -0.0375 -0.2204
  212loPI   C3A 3385   2.325   1.333   7.889  0.3923 -0.3386  0.0644
  212loPI   C4A 3386   2.020   1.622   7.732 -0.0470 -0.2349 -0.1386
  212loPI   C5A 3387   1.956   1.819   7.425 -0.0059 -0.2593  0.1112
  212loPI   C6A 3388   2.183   2.139   7.242  0.2660 -0.0295 -0.0896
  212loPI   C1B 3389   2.362   1.794   8.573  0.0305  0.2564 -0.0274
  212loPI   C2B 3390   2.367   1.827   8.097  0.0130 -0.0833  0.0229
  212loPI   C3B 3391   2.384   1.930   7.724 -0.2309  0.2060  0.2931
  212loPI   C4B 3392   2.550   1.766   7.362 -0.0461 -0.1444 -0.2030
  213loPI    C1 3393  10.689   0.367  10.680 -0.0345 -0.1264  0.0987
  213loPI    C2 3394  10.570  -0.005  10.769 -0.0184 -0.1088  0.1956
  213loPI    C3 3395  10.924   0.128  10.898  0.1651 -0.2035 -0.1954
  213loPI   PO4 3396  10.739   0.385  10.419 -0.2074  0.0532 -0.1035
  213loPI   GL1 3397  10.641   0.375   9.964 -0.3004  0.1343  0.1056
  213loPI   GL2 3398  10.485   0.075   9.993 -0.0310  0.0422 -0.2780
  213loPI   C1A 3399  10.860   0.540   9.616  0.1334 -0.3499 -0.0349
  213loPI   C2A 3400  10.972   0.542   9.330  0.0480 -0.1910 -0.1176
  213loPI   C3A 3401  11.182   0.360   8.958  0.0535 -0.0045  0.0408
  213loPI   C4A 3402  11.236   0.332   8.459  0.2016  0.2335  0.2490
  213loPI   C5A 3403  11.611   0.517   8.282  0.2368 -0.1046  0.0993
  213loPI   C6A 3404  12.040   0.326   8.023  0.1686  0.3000 -0.2174
  213loPI   C1B 3405  10.856   0.030   9.734  0.1013  0.1754  0.0724
  213loPI   C2B 3406  10.869   0.029   9.345  0.2659 -0.1884  0.0512
  213loPI   C3B 3407  10.839  -0.020   8.882  0.1054  0.0861  0.1916
  213loPI   C4B 3408  10.634   0.052   8.402 -0.0912 -0.2946  0.1525
  214loPI    C1 3409  13.084   6.401  10.756  0.1999  0.0275  0.0950
  214loPI    C2 3410  13.385   6.212  10.939  0.2578 -0.0290 -0.0566
  214loPI    C3 3411  13.240   6.552  11.092  0.2682 -0.1043  0.1230
  214loPI   PO4 3412  13.188   6.434  10.504 -0.2145 -0.1221 -0.1133
  214loPI   GL1 3413  13.441   6.626  10.217  0.3996 -0.0630  0.0004
  214loPI   GL2 3414  13.412   6.432   9.921 -0.2001 -0.4212  0.0307
  214loPI   C1A 3415  13.426   6.906   9.937  0.1852  0.3017  0.2739
  214loPI   C2A 3416  13.543   6.942   9.525  0.2332  0.0178  0.2415
  214loPI   C3A 3417  13.518   6.936   9.115  0.1447 -0.1018  0.1505
  214loPI   C4A 3418  13.310   6.918   8.814  0.1416 -0.1997  0.1219
  214loPI   C5A 3419  13.040   7.139   8.482 -0.2064 -0.2892  0.2706
  214loPI   C6A 3420  12.744   7.320   8.270  0.3166  0.1200 -0.2606
  214loPI   C1B 3421  13.437   6.465   9.471 -0.1168 -0.0441  0.0344
  214loPI   C2B 3422  13.333   6.436   8.960  0.0406  0.1358  0.0932
  214loPI   C3B 3423  13.375   6.453   8.526  0.1876  0.2414 -0.0562
  214loPI   C4B 3424  13.306   6.697   8.220  0.0226 -0.0910  0.1795
  215loPI    C1 3425  12.550   8.990  10.794 -0.0403 -0.0766  0.1148
  215loPI    C2 3426  12.699   8.692  10.572 -0.1953 -0.1034  0.0458
  215loPI    C3 3427  12.789   8.715  10.961  0.0121 -0.1024 -0.0009
  215loPI   PO4 3428  12.291   8.994  10.590 -0.1484  0.0552 -0.0150
  215loPI   GL1 3429  12.271   8.834  10.207  0.0845 -0.0481 -0.0417
  215loPI   GL2 3430  12.498   8.652  10.094  0.0277 -0.0438  0.5671
  215loPI   C1A 3431  12.013   8.764   9.915 -0.2717  0.0198  0.2410
  215loPI   C2A 3432  12.032   8.715   9.486  0.2001 -0.0343  0.0267
  215loPI   C3A 3433  11.912   8.661   9.131  0.1489  0.0160  0.3902
  215loPI   C4A 3434  11.887   8.528   8.689  0.0372  0.1793  0.0079
  215loPI   C5A 3435  11.708   8.103   8.505 -0.3533  0.0217  0.0820
  215loPI   C6A 3436  11.727   8.065   7.985  0.1133 -0.0648  0.1441
  215loPI   C1B 3437  12.517   8.518   9.681 -0.3374 -0.2850  0.4339
  215loPI   C2B 3438  12.493   8.528   9.304 -0.0160 -0.0368  0.0108
  215loPI   C3B 3439  12.309   8.531   8.898  0.0216  0.1328 -0.0422
  215loPI   C4B 3440  12.238   8.222   8.524 -0.1031 -0.3244  0.0501
  216loPI    C1 3441  15.030   8.183  10.958 -0.3015  0.0896  0.0858
  216loPI    C2 3442  14.843   7.903  10.742  0.1205 -0.1114 -0.0295
  216loPI    C3 3443  14.973   7.817  11.110 -0.2196  0.1018  0.1459
  216loPI   PO4 3444  14.984   8.384  10.990 -0.0224 -0.1039 -0.0678
  216loPI   GL1 3445  14.885   8.713  10.630  0.0950  0.2582  0.2192
  216loPI   GL2 3446  14.952   8.453  10.512 -0.0582  0.0333  0.1272
  216loPI   C1A 3447  14.815   8.838  10.263 -0.2463 -0.1632 -0.0670
  216loPI   C2A 3448  14.667   9.145  10.015 -0.0583 -0.3328 -0.1272
  216loPI   C3A 3449  14.644   9.283   9.542  0.2111  0.2297 -0.0047
  216loPI   C4A 3450  14.513   8.979   9.225 -0.1535  0.3375 -0.1006
  216loPI   C5A 3451  14.214   8.953   8.903  0.0527  0.2530  0.1686
  216loPI   C6A 3452  13.847   9.043   8.457 -0.0381 -0.2710  0.0022
  216loPI   C1B 3453  14.862   8.123  10.170 -0.0020 -0.2676  0.1933
  216loPI   C2B 3454  14.871   7.766   9.905 -0.0465 -0.0062  0.1846
  216loPI   C3B 3455  14.786   7.589   9.549 -0.0699  0.2976  0.3024
  216loPI   C4B 3456  14.835   7.666   9.133 -0.3454  0.2681  0.2448
  217loPI    C1 3457  10.393   7.270  11.142 -0.0041 -0.2350 -0.3600
  217loPI    C2 3458  10.450   6.879  11.208  0.0836 -0.1593  0.0393
  217loPI    C3 3459  10.235   7.096  11.466  0.0510  0.0623 -0.1701
  217loPI   PO4 3460  10.566   7.251  10.851 -0.1629 -0.1436  0.1023
  217loPI   GL1 3461  10.482   7.321  10.482 -0.1668  0.1787 -0.1303
  217loPI   GL2 3462  10.408   7.596  10.348  0.0025 -0.0455 -0.1100
  217loPI   C1A 3463  10.396   7.170  10.085  0.3509 -0.2423 -0.0999
  217loPI   C2A 3464  10.323   6.992   9.697 -0.2796 -0.2559 -0.0940
  217loPI   C3A 3465  10.353   7.110   9.294 -0.0756 -0.0541  0.1038
  217loPI   C4A 3466  10.452   6.897   8.798 -0.1464 -0.0100  0.0194
  217loPI   C5A 3467  10.671   6.587   8.484 -0.2438 -0.1298  0.2448
  217loPI   C6A 3468  11.105   6.494   8.255  0.1557 -0.0276  0.1782
  217loPI   C1B 3469  10.790   7.763  10.199 -0.2681 -0.2431 -0.1926
  217loPI   C2B 3470  11.026   8.008   9.985  0.1292 -0.3355 -0.1081
  217loPI   C3B 3471  10.715   8.229   9.787  0.2782 -0.1244  0.0908
  217loPI   C4B 3472  10.397   8.488   9.460 -0.2467  0.1886 -0.0134
  218loPI    C1 3473   9.087  11.970  10.333 -0.0456 -0.0508  0.0506
  218loPI    C2 3474   9.041  12.177  10.672 -0.0178  0.0124  0.0158
  218loPI    C3 3475   9.140  12.366  10.333 -0.0999 -0.0432 -0.0397
  218loPI   PO4 3476   8.942  11.874  10.218 -0.1937 -0.5595  0.0107
  218loPI   GL1 3477   8.957  11.736   9.843  0.2073  0.4498 -0.0179
  218loPI   GL2 3478   8.713  11.911   9.700 -0.3519 -0.3022  0.0782
  218loPI   C1A 3479   9.146  11.485   9.529  0.1587  0.0211 -0.0739
  218loPI   C2A 3480   9.225  11.512   9.074 -0.1736  0.0856  0.0934
  218loPI   C3A 3481   8.990  11.345   8.710 -0.3316  0.2781 -0.1189
  218loPI   C4A 3482   9.010  11.127   8.413 -0.0813  0.2546  0.1789
  218loPI   C5A 3483   8.859  10.751   8.217  0.0317  0.2043  0.3851
  218loPI   C6A 3484   9.035  10.362   7.915  0.1028  0.1800  0.2118
  218loPI   C1B 3485   8.804  11.866   9.214  0.3233  0.0180 -0.4774
  218loPI   C2B 3486   8.892  11.843   8.809  0.0005  0.0161  0.0482
  218loPI   C3B 3487   9.022  11.787   8.413  0.6075 -0.0450 -0.0833
  218loPI   C4B 3488   9.034  11.925   7.938  0.3116  0.0693 -0.0795
  219loPI    C1 3489   2.293   7.562  10.751 -0.0515 -0.2701  0.0341
  219loPI    C2 3490   1.913   7.629  10.857 -0.0459 -0.2672  0.0526
  219loPI    C3 3491   2.105   7.306  10.994  0.0472 -0.1223  0.2700
  219loPI   PO4 3492   2.286   7.652  10.502  0.1280 -0.3736  0.4227
  219loPI   GL1 3493   2.273   7.355  10.103  0.1822 -0.0773  0.0754
  219loPI   GL2 3494   2.182   7.064  10.019 -0.1430 -0.2521  0.1207
  219loPI   C1A 3495   2.146   7.513   9.797 -0.1186  0.0780  0.1671
  219loPI   C2A 3496   1.864   7.580   9.430 -0.1087  0.2789  0.1402
  219loPI   C3A 3497   1.790   7.555   9.001  0.0612 -0.2523 -0.0586
  219loPI   C4A 3498   1.833   7.734   8.578  0.3573  0.0534 -0.0530
  219loPI   C5A 3499   2.012   7.661   8.152  0.0015  0.0858  0.2392
  219loPI   C6A 3500   2.457   7.606   8.027 -0.2211  0.1812  0.0755
  219loPI   C1B 3501   1.934   7.095   9.627  0.3313 -0.0517  0.2561
  219loPI   C2B 3502   1.864   7.150   9.157 -0.2023 -0.1287 -0.1685
  219loPI   C3B 3503   1.670   7.226   8.658  0.0612  0.1474  0.0552
  219loPI   C4B 3504   1.640   7.259   8.215  0.1250 -0.1378  0.3130
  220loPI    C1 3505   8.655   1.575  10.522  0.1454  0.0063  0.1328
  220loPI    C2 3506   8.345   1.825  10.552  0.2011  0.0809  0.0901
  220loPI    C3 3507   8.438   1.584  10.858 -0.2445 -0.3489 -0.0981
  220loPI   PO4 3508   8.720   1.576  10.262 -0.2617  0.1541 -0.0134
  220loPI   GL1 3509   8.782   1.463   9.883  0.0190  0.0598 -0.0619
  220loPI   GL2 3510   8.681   1.794   9.757  0.1296 -0.0206  0.0268
  220loPI   C1A 3511   8.900   1.343   9.464  0.1406  0.3705 -0.0452
  220loPI   C2A 3512   8.946   1.260   9.104  0.0431 -0.2956 -0.0974
  220loPI   C3A 3513   8.918   1.249   8.752 -0.3618  0.0133 -0.0807
  220loPI   C4A 3514   8.660   1.215   8.427 -0.3196  0.2452 -0.1444
  220loPI   C5A 3515   8.600   1.445   7.946  0.0473 -0.2568 -0.1379
  220loPI   C6A 3516   8.581   1.493   7.473  0.1693  0.2369 -0.2676
  220loPI   C1B 3517   8.599   1.742   9.288 -0.2090  0.1442  0.0476
  220loPI   C2B 3518   8.706   1.699   8.857 -0.0540 -0.0862 -0.1024
  220loPI   C3B 3519   8.893   1.757   8.499 -0.0237 -0.0458  0.3164
  220loPI   C4B 3520   8.781   1.867   8.077 -0.3463 -0.1381  0.0767
  221loPI    C1 3521   6.340  16.917   9.895  0.0488  0.0373 -0.0257
  221loPI    C2 3522   5.997  16.977  10.091  0.0933  0.2598 -0.0139
  221loPI    C3 3523   6.233  16.670  10.191 -0.0826  0.1287  0.0037
  221loPI   PO4 3524   6.317  16.896   9.715 -0.0432 -0.1210  0.2313
  221loPI   GL1 3525   6.445  16.638   9.451  0.0681  0.0030 -0.2948
  221loPI   GL2 3526   6.773  16.905   9.521  0.1888  0.2846 -0.2678
  221loPI   C1A 3527   6.247  16.892   9.081 -0.1609 -0.1068  0.2448
  221loPI   C2A 3528   6.340  16.891   8.616 -0.1196  0.0320  0.2063
  221loPI   C3A 3529   6.314  17.042   8.266  0.2462  0.1372  0.1524
  221loPI   C4A 3530   6.318  16.924   7.886 -0.2493 -0.0655 -0.2122
  221loPI   C5A 3531   6.664  17.098   7.789 -0.0042 -0.0544  0.0971
  221loPI   C6A 3532   6.904  17.361   7.861  0.2764  0.2608  0.0600
  221loPI   C1B 3533   6.861  16.755   9.067  0.0178 -0.1179  0.2682
  221loPI   C2B 3534   6.930  16.832   8.684 -0.3885 -0.0213  0.0149
  221loPI   C3B 3535   7.189  16.738   8.440 -0.0792 -0.0963  0.1898
  221loPI   C4B 3536   7.621  16.680   8.013  0.1606 -0.1952 -0.0909
  222loPI    C1 3537   4.059   8.573  11.020 -0.4094  0.1271  0.0763
  222loPI    C2 3538   4.437   8.705  11.026 -0.5065  0.4375 -0.2383
  222loPI    C3 3539   4.276   8.540  11.354 -0.0058  0.0211 -0.1896
  222loPI   PO4 3540   4.060   8.793  10.744 -0.0520  0.0966  0.1344
  222loPI   GL1 3541   4.020   8.889  10.251 -0.0009  0.1624  0.0452
  222loPI   GL2 3542   3.653   8.816  10.285 -0.0262  0.1657  0.0246
  222loPI   C1A 3543   4.073   8.881   9.808 -0.2552  0.0112 -0.1357
  222loPI   C2A 3544   4.072   8.997   9.357  0.0444 -0.1048  0.0268
  222loPI   C3A 3545   4.050   9.069   9.029  0.0822  0.2766 -0.2644
  222loPI   C4A 3546   4.009   9.173   8.659 -0.2100 -0.0005  0.0359
  222loPI   C5A 3547   3.908   8.882   8.300  0.0466 -0.0629  0.2166
  222loPI   C6A 3548   3.444   8.650   8.143  0.1705  0.0182 -0.1933
  222loPI   C1B 3549   3.554   8.936   9.775 -0.0245 -0.3612 -0.1698
  222loPI   C2B 3550   3.606   9.064   9.317 -0.0519 -0.0647  0.2857
  222loPI   C3B 3551   3.598   8.962   8.747 -0.0235  0.1676  0.0289
  222loPI   C4B 3552   3.291   9.021   8.517 -0.1906  0.0135  0.0873
  223loPI    C1 3553   9.363  14.482  10.190 -0.3271  0.0119 -0.1875
  223loPI    C2 3554   9.140  14.728  10.412 -0.0122 -0.0642  0.2263
  223loPI    C3 3555   9.465  14.867  10.226 -0.1353 -0.0556  0.0145
  223loPI   PO4 3556   9.081  14.282  10.004 -0.2153  0.0184 -0.3759
  223loPI   GL1 3557   9.103  14.092   9.579 -0.3851  0.0558 -0.4085
  223loPI   GL2 3558   8.894  13.993   9.580  0.0109  0.1235  0.1637
  223loPI   C1A 3559   9.227  14.159   9.168 -0.0363  0.0137 -0.1051
  223loPI   C2A 3560   9.355  14.157   8.695 -0.1118 -0.3514 -0.0411
  223loPI   C3A 3561   9.265  14.437   8.443 -0.0204 -0.0134  0.0458
  223loPI   C4A 3562   9.137  14.345   8.112 -0.0268 -0.0932 -0.0126
  223loPI   C5A 3563   9.298  14.104   7.767  0.0889  0.0197  0.1009
  223loPI   C6A 3564   9.321  13.924   7.353 -0.1964  0.0564 -0.2056
  223loPI   C1B 3565   8.825  13.833   9.157  0.1753  0.3299  0.2521
  223loPI   C2B 3566   8.897  14.025   8.766 -0.0830  0.1702  0.1538
  223loPI   C3B 3567   8.890  13.958   8.345 -0.0797 -0.2062 -0.3226
  223loPI   C4B 3568   9.145  13.756   8.163  0.4907  0.1313  0.4780
  224loPI    C1 3569  13.404  15.928   9.982 -0.1202  0.1600  0.1502
  224loPI    C2 3570  13.468  15.600  10.202  0.1884 -0.0519 -0.2412
  224loPI    C3 3571  13.713  15.915  10.235  0.1513 -0.0291 -0.1821
  224loPI   PO4 3572  13.368  15.840   9.764  0.0635  0.1052 -0.1393
  224loPI   GL1 3573  13.559  16.002   9.437  0.0052 -0.0269  0.0295
  224loPI   GL2 3574  13.394  16.332   9.529 -0.2663 -0.3066  0.0165
  224loPI   C1A 3575  13.524  16.014   9.070  0.2151 -0.0981 -0.0922
  224loPI   C2A 3576  13.465  15.900   8.613 -0.3862  0.2105  0.0482
  224loPI   C3A 3577  13.486  15.638   8.111 -0.0628 -0.0588  0.0014
  224loPI   C4A 3578  13.559  15.448   7.681  0.1299 -0.1816 -0.1932
  224loPI   C5A 3579  13.927  15.222   7.628 -0.0791 -0.3032 -0.1925
  224loPI   C6A 3580  14.042  14.797   7.708 -0.2257  0.1816 -0.1323
  224loPI   C1B 3581  13.138  16.314   9.281 -0.0745 -0.0652  0.1051
  224loPI   C2B 3582  13.128  16.231   8.789  0.3590 -0.2333 -0.0717
  224loPI   C3B 3583  13.255  16.302   8.431  0.0391 -0.3567  0.3623
  224loPI   C4B 3584  13.301  16.069   8.051 -0.2903  0.1907  0.0174
  225loPI    C1 3585  13.568   4.033  11.204  0.0651 -0.3276  0.0567
  225loPI    C2 3586  13.663   4.204  11.553 -0.2693  0.0715 -0.0392
  225loPI    C3 3587  13.440   3.872  11.548  0.0789 -0.1715  0.1362
  225loPI   PO4 3588  13.724   4.055  11.040  0.1250 -0.1208 -0.0234
  225loPI   GL1 3589  13.590   4.039  10.529 -0.0900  0.2084 -0.3108
  225loPI   GL2 3590  13.887   4.150  10.607 -0.0635  0.1191  0.3173
  225loPI   C1A 3591  13.531   3.691  10.255 -0.0288 -0.1058  0.0483
  225loPI   C2A 3592  13.533   3.823   9.896 -0.1208 -0.0514 -0.0111
  225loPI   C3A 3593  13.636   3.916   9.561  0.4016 -0.1617 -0.0353
  225loPI   C4A 3594  13.687   4.064   9.164  0.0492  0.3845 -0.0611
  225loPI   C5A 3595  13.700   4.104   8.758 -0.1396  0.1812  0.0123
  225loPI   C6A 3596  13.897   4.003   8.380 -0.0551  0.1030 -0.3268
  225loPI   C1B 3597  14.123   4.290  10.199 -0.1744  0.3092 -0.4792
  225loPI   C2B 3598  14.012   4.227   9.769 -0.0907 -0.1264  0.1025
  225loPI   C3B 3599  14.119   4.150   9.370 -0.1132 -0.2073 -0.0430
  225loPI   C4B 3600  14.184   4.008   9.014 -0.0499  0.4695 -0.0123
  226loPI    C1 3601   7.171  11.547  10.713  0.0319 -0.0839  0.0315
  226loPI    C2 3602   6.901  11.278  10.835  0.0832 -0.0417  0.2419
  226loPI    C3 3603   6.857  11.664  10.931  0.0224  0.0238 -0.0389
  226loPI   PO4 3604   7.206  11.528  10.357  0.1019  0.2742  0.3180
  226loPI   GL1 3605   6.991  11.515   9.889  0.0803  0.2342 -0.0952
  226loPI   GL2 3606   6.767  11.281   9.833 -0.0912 -0.0263 -0.3261
  226loPI   C1A 3607   7.100  11.502   9.359 -0.1567 -0.4880 -0.0634
  226loPI   C2A 3608   6.918  11.385   8.931  0.2663  0.1677 -0.0542
  226loPI   C3A 3609   7.100  11.401   8.461 -0.0729  0.3350  0.0009
  226loPI   C4A 3610   7.116  11.124   8.142  0.0272  0.1883 -0.4748
  226loPI   C5A 3611   7.064  10.983   7.731  0.0500  0.1155  0.0100
  226loPI   C6A 3612   6.971  10.845   7.329  0.0297  0.0754  0.1286
  226loPI   C1B 3613   6.631  11.407   9.428  0.0286 -0.0588  0.0099
  226loPI   C2B 3614   6.386  11.643   9.150  0.1982 -0.0712  0.1025
  226loPI   C3B 3615   6.287  11.832   8.723 -0.0727 -0.0705 -0.2249
  226loPI   C4B 3616   6.202  12.149   8.428  0.1109  0.1028 -0.1805
  227loPI    C1 3617  16.178  11.726  10.707 -0.2024 -0.2600  0.0132
  227loPI    C2 3618  16.104  12.119  10.700  0.2068 -0.1806 -0.1241
  227loPI    C3 3619  16.181  11.936  11.048  0.1053 -0.1228 -0.0705
  227loPI   PO4 3620  16.201  11.624  10.472  0.2907  0.0673 -0.2866
  227loPI   GL1 3621  15.898  11.393  10.152  0.1784 -0.1047  0.0213
  227loPI   GL2 3622  16.093  11.515   9.906 -0.0191  0.0226 -0.0725
  227loPI   C1A 3623  15.721  11.784   9.856 -0.0344  0.0251 -0.1662
  227loPI   C2A 3624  15.495  12.264   9.750  0.2685 -0.0460  0.2688
  227loPI   C3A 3625  15.250  12.635   9.624  0.0145 -0.0451 -0.0849
  227loPI   C4A 3626  15.119  12.848   9.278 -0.1476  0.1098  0.2543
  227loPI   C5A 3627  15.317  12.747   8.890  0.0788 -0.2637 -0.1133
  227loPI   C6A 3628  15.675  12.492   8.780 -0.3716  0.2000  0.4414
  227loPI   C1B 3629  16.077  11.814   9.512 -0.1512 -0.0173  0.1744
  227loPI   C2B 3630  15.714  11.894   9.256 -0.0438  0.1108  0.3331
  227loPI   C3B 3631  15.321  11.869   9.439 -0.0504  0.1895  0.1430
  227loPI   C4B 3632  14.851  11.880   9.359 -0.0823 -0.2722  0.1862
  228loPI    C1 3633   9.476   7.238  10.935  0.2066 -0.0669  0.2955
  228loPI    C2 3634   9.585   7.538  10.694  0.1223 -0.1455  0.1581
  228loPI    C3 3635   9.528   7.605  11.084 -0.3066  0.1115  0.0584
  228loPI   PO4 3636   9.349   7.058  10.769  0.0322 -0.0677 -0.1115
  228loPI   GL1 3637   9.182   6.803  10.475 -0.0069  0.1010 -0.1373
  228loPI   GL2 3638   9.007   6.657  10.574 -0.0660 -0.0409 -0.1945
  228loPI   C1A 3639   8.918   6.946  10.138 -0.1580 -0.1247 -0.1312
  228loPI   C2A 3640   8.866   6.889   9.752 -0.0596  0.0612 -0.0655
  228loPI   C3A 3641   8.903   6.770   9.374  0.0642  0.0904  0.1189
  228loPI   C4A 3642   9.062   6.673   8.862 -0.0482  0.0137  0.3154
  228loPI   C5A 3643   8.998   6.342   8.547 -0.0833 -0.0056  0.3578
  228loPI   C6A 3644   8.728   6.026   8.325  0.3485 -0.0940  0.0965
  228loPI   C1B 3645   8.685   6.444  10.359  0.1367 -0.0720  0.2146
  228loPI   C2B 3646   8.692   6.339   9.912  0.0990  0.2896  0.2114
  228loPI   C3B 3647   8.681   6.274   9.494  0.1562  0.1607 -0.1379
  228loPI   C4B 3648   8.714   6.334   9.070 -0.0507 -0.0446 -0.0674
  229loPI    C1 3649   9.728   5.014  11.038  0.0536  0.1329 -0.3327
  229loPI    C2 3650   9.385   5.043  10.834 -0.1939  0.1905  0.0796
  229loPI    C3 3651   9.554   5.371  10.989 -0.1789  0.1084  0.2387
  229loPI   PO4 3652   9.934   4.878  10.799 -0.1104 -0.0034 -0.0610
  229loPI   GL1 3653   9.866   4.794  10.317 -0.0344  0.1812 -0.0831
  229loPI   GL2 3654   9.956   4.510  10.287 -0.4187 -0.2190 -0.2592
  229loPI   C1A 3655   9.715   5.081  10.072  0.0541  0.4845 -0.2561
  229loPI   C2A 3656   9.549   5.036   9.692 -0.2020  0.0121  0.1248
  229loPI   C3A 3657   9.486   5.216   9.312 -0.0280  0.2136 -0.0951
  229loPI   C4A 3658   9.548   5.225   8.904  0.1914  0.2654  0.0843
  229loPI   C5A 3659   9.820   5.234   8.604  0.2099  0.0891 -0.0151
  229loPI   C6A 3660   9.768   4.907   8.272  0.2375  0.0467  0.3354
  229loPI   C1B 3661   9.756   4.581   9.849 -0.0583  0.0783 -0.1132
  229loPI   C2B 3662   9.728   4.728   9.381  0.1827  0.0489  0.2340
  229loPI   C3B 3663   9.954   4.958   9.054 -0.0614 -0.2413 -0.0136
  229loPI   C4B 3664  10.312   5.227   9.150  0.0886  0.2247 -0.0661
  230loPI    C1 3665   0.168   9.052  10.447  0.1424  0.2434 -0.0077
  230loPI    C2 3666   0.285   9.323  10.717  0.2595  0.1210  0.0658
  230loPI    C3 3667   0.154   8.966  10.838  0.1523  0.1265 -0.0328
  230loPI   PO4 3668   0.014   9.178  10.303 -0.1078  0.2048 -0.1288
  230loPI   GL1 3669  -0.190   9.085  10.005  0.3012 -0.0635 -0.2527
  230loPI   GL2 3670  -0.006   9.397   9.911 -0.0854  0.0901  0.3369
  230loPI   C1A 3671  -0.322   9.078   9.559 -0.0549  0.1087  0.2061
  230loPI   C2A 3672  -0.382   9.189   9.148  0.1834  0.1155 -0.1077
  230loPI   C3A 3673  -0.512   8.980   8.864 -0.0065  0.0758 -0.0275
  230loPI   C4A 3674  -0.523   8.782   8.445  0.2374 -0.0354 -0.3316
  230loPI   C5A 3675  -0.907   8.609   8.178  0.1844  0.2825  0.3238
  230loPI   C6A 3676  -1.105   8.703   7.803  0.0349 -0.1556  0.2062
  230loPI   C1B 3677  -0.012   9.544   9.496 -0.0876 -0.0644  0.0217
  230loPI   C2B 3678   0.078   9.498   8.948  0.2460 -0.1327 -0.0443
  230loPI   C3B 3679  -0.165   9.321   8.578 -0.3955  0.0717 -0.2984
  230loPI   C4B 3680  -0.489   9.314   8.312 -0.2698 -0.2804  0.2444
  231loPI    C1 3681  10.398  14.778  10.297 -0.0327  0.0536  0.1022
  231loPI    C2 3682  10.785  14.691  10.348 -0.0676 -0.0759  0.1495
  231loPI    C3 3683  10.572  14.840  10.652 -0.0703 -0.0639  0.1417
  231loPI   PO4 3684  10.432  14.826   9.950 -0.0080 -0.0978  0.1004
  231loPI   GL1 3685  10.230  14.753   9.500  0.0227 -0.0838  0.0193
  231loPI   GL2 3686  10.614  14.591   9.436  0.0543 -0.2060  0.1192
  231loPI   C1A 3687   9.919  14.849   9.222 -0.2275  0.1582  0.2060
  231loPI   C2A 3688   9.595  14.586   9.169 -0.1660 -0.2831 -0.3887
  231loPI   C3A 3689   9.346  14.637   8.959  0.1276 -0.1991  0.3690
  231loPI   C4A 3690   9.360  14.906   8.507 -0.2764  0.0785 -0.0491
  231loPI   C5A 3691   9.283  14.916   8.093  0.2563 -0.0863 -0.2650
  231loPI   C6A 3692   9.188  15.154   7.789  0.3003 -0.1285 -0.3672
  231loPI   C1B 3693  10.583  14.496   9.014 -0.3359 -0.1263  0.0810
  231loPI   C2B 3694  10.423  14.412   8.570 -0.1150  0.0480 -0.1271
  231loPI   C3B 3695  10.187  14.299   8.239  0.4631  0.0054 -0.2352
  231loPI   C4B 3696  10.020  14.126   7.883 -0.1011 -0.1167 -0.2012
  232loPI    C1 3697   8.575   3.448  10.592 -0.0633  0.1603  0.1515
  232loPI    C2 3698   8.216   3.315  10.710 -0.0900  0.1912  0.1055
  232loPI    C3 3699   8.267   3.702  10.622 -0.1546  0.1127 -0.3004
  232loPI   PO4 3700   8.638   3.285  10.451 -0.0978  0.1431 -0.1972
  232loPI   GL1 3701   8.738   3.118  10.211 -0.0281 -0.2258  0.1289
  232loPI   GL2 3702   8.749   3.423   9.978 -0.4210 -0.2708 -0.0841
  232loPI   C1A 3703   8.778   2.925   9.820  0.2782  0.3522  0.0944
  232loPI   C2A 3704   8.791   3.096   9.479 -0.1507  0.1606 -0.0932
  232loPI   C3A 3705   8.710   3.211   9.072 -0.0078  0.1469 -0.1744
  232loPI   C4A 3706   8.566   3.075   8.649 -0.3178  0.3378  0.1501
  232loPI   C5A 3707   8.548   3.194   8.161  0.0142 -0.1490  0.1678
  232loPI   C6A 3708   8.346   3.223   7.723 -0.2074 -0.4033 -0.4069
  232loPI   C1B 3709   8.691   3.672   9.621 -0.0364  0.0326 -0.1549
  232loPI   C2B 3710   8.930   3.624   9.203 -0.2349 -0.3521 -0.1782
  232loPI   C3B 3711   8.947   3.851   8.842  0.3376 -0.4647 -0.1949
  232loPI   C4B 3712   8.824   3.971   8.487  0.2040  0.0289  0.1344
  233loPI    C1 3713  17.008  14.373   9.979  0.0517 -0.1559 -0.0737
  233loPI    C2 3714  17.391  14.345   9.868  0.0520 -0.0036 -0.1137
  233loPI    C3 3715  17.297  14.501  10.224  0.0334 -0.1669 -0.0461
  233loPI   PO4 3716  16.822  14.234   9.937 -0.1015  0.0799 -0.3274
  233loPI   GL1 3717  16.682  13.999   9.622 -0.3247  0.4269 -0.1754
  233loPI   GL2 3718  16.906  14.079   9.464 -0.0491 -0.1499  0.0529
  233loPI   C1A 3719  16.534  14.191   9.197  0.2848  0.2458 -0.0500
  233loPI   C2A 3720  16.579  14.159   8.666 -0.0550  0.1874 -0.1176
  233loPI   C3A 3721  16.389  14.028   8.365  0.1677 -0.0762 -0.0494
  233loPI   C4A 3722  16.430  13.854   7.980  0.1599 -0.0108  0.0160
  233loPI   C5A 3723  16.672  13.568   7.642 -0.0384  0.0428  0.5876
  233loPI   C6A 3724  16.787  13.245   7.780 -0.2740  0.1760  0.0601
  233loPI   C1B 3725  16.998  13.956   9.157 -0.3085  0.1031 -0.0216
  233loPI   C2B 3726  17.091  13.794   8.764  0.1407 -0.1868  0.2147
  233loPI   C3B 3727  16.829  13.806   8.431 -0.1379 -0.2686 -0.0827
  233loPI   C4B 3728  16.904  14.031   8.144  0.3638 -0.0874 -0.1804
  234loPI    C1 3729  14.180  16.289  10.126 -0.0577  0.0039 -0.0151
  234loPI    C2 3730  13.884  16.490  10.304 -0.1116 -0.1486  0.0682
  234loPI    C3 3731  14.222  16.414  10.503  0.0922  0.2563 -0.1128
  234loPI   PO4 3732  14.234  16.415   9.912  0.0224 -0.0555 -0.3122
  234loPI   GL1 3733  14.063  16.526   9.442 -0.0525 -0.0963  0.3677
  234loPI   GL2 3734  14.071  16.823   9.305 -0.0999 -0.3258 -0.2432
  234loPI   C1A 3735  13.746  16.448   9.128 -0.0265  0.0015 -0.1899
  234loPI   C2A 3736  13.673  16.465   8.717 -0.0864 -0.1218  0.2394
  234loPI   C3A 3737  13.608  16.523   8.247 -0.2025 -0.2896 -0.0614
  234loPI   C4A 3738  13.767  16.802   7.947 -0.0067  0.0021  0.1664
  234loPI   C5A 3739  13.883  16.640   7.533  0.2112 -0.1221 -0.3852
  234loPI   C6A 3740  13.963  16.599   7.106  0.1678 -0.1932  0.1774
  234loPI   C1B 3741  14.152  16.701   8.860 -0.5208 -0.1861  0.0766
  234loPI   C2B 3742  13.937  16.858   8.441 -0.1368  0.3055 -0.3125
  234loPI   C3B 3743  14.051  17.129   8.104 -0.0769 -0.0610  0.1110
  234loPI   C4B 3744  14.048  17.121   7.646  0.1549 -0.2860  0.1928
  235loPI    C1 3745   3.800   6.113  10.680  0.1106 -0.0744  0.2936
  235loPI    C2 3746   4.006   6.284  10.383 -0.3954 -0.1364 -0.1073
  235loPI    C3 3747   3.981   6.464  10.739  0.1133  0.0013 -0.1341
  235loPI   PO4 3748   3.658   5.920  10.574  0.0906  0.2688 -0.0235
  235loPI   GL1 3749   3.382   5.961  10.228  0.1735  0.0389 -0.0885
  235loPI   GL2 3750   3.749   6.058  10.079 -0.1124 -0.2121  0.2749
  235loPI   C1A 3751   3.455   5.720   9.784 -0.0275 -0.0258 -0.2133
  235loPI   C2A 3752   3.498   5.461   9.466 -0.0847  0.2273 -0.2641
  235loPI   C3A 3753   3.756   5.600   9.050  0.0370  0.1233  0.2917
  235loPI   C4A 3754   3.840   5.585   8.599  0.3001  0.0992 -0.0052
  235loPI   C5A 3755   3.916   5.413   8.174  0.1807  0.2051  0.0389
  235loPI   C6A 3756   4.132   5.535   7.764 -0.3495  0.0636  0.0889
  235loPI   C1B 3757   3.810   6.061   9.675  0.0031 -0.1059  0.3404
  235loPI   C2B 3758   3.666   6.086   9.202  0.3616  0.1320 -0.0539
  235loPI   C3B 3759   3.878   6.119   8.797 -0.0946  0.2554 -0.2637
  235loPI   C4B 3760   3.692   5.963   8.369 -0.0931  0.2996 -0.1356
  236loPI    C1 3761  14.169  17.672  10.385  0.1766 -0.1008  0.1128
  236loPI    C2 3762  14.075  18.006  10.584 -0.0364 -0.0192 -0.1190
  236loPI    C3 3763  14.419  17.817  10.661 -0.0316  0.1108  0.1939
  236loPI   PO4 3764  14.133  17.723  10.133  0.0683  0.1662  0.1480
  236loPI   GL1 3765  14.143  17.617   9.703 -0.1311  0.1798  0.2075
  236loPI   GL2 3766  14.097  17.932   9.614 -0.0171  0.0185  0.0943
  236loPI   C1A 3767  14.318  17.415   9.399  0.0065 -0.0560 -0.1619
  236loPI   C2A 3768  14.145  17.267   8.963  0.0308  0.4989  0.1996
  236loPI   C3A 3769  14.094  17.446   8.508 -0.0608  0.1860 -0.1618
  236loPI   C4A 3770  13.922  17.693   8.158  0.1618 -0.1138 -0.1363
  236loPI   C5A 3771  13.657  17.674   7.776 -0.1828 -0.0412 -0.3137
  236loPI   C6A 3772  13.241  17.592   7.748 -0.0008  0.0325 -0.2002
  236loPI   C1B 3773  13.927  18.234   9.294  0.4154 -0.0805 -0.0001
  236loPI   C2B 3774  13.864  18.345   8.920  0.0590  0.1472  0.0419
  236loPI   C3B 3775  13.918  18.409   8.547 -0.0359 -0.0034 -0.1330
  236loPI   C4B 3776  13.595  18.666   8.237 -0.3594  0.1984 -0.1779
  237loPI    C1 3777   6.200   2.278  10.149  0.3603  0.0450  0.3656
  237loPI    C2 3778   6.257   1.950  10.370  0.1696 -0.3527 -0.1529
  237loPI    C3 3779   5.893   2.113  10.345  0.3201  0.0881  0.3391
  237loPI   PO4 3780   6.358   2.193   9.973  0.1808 -0.1852 -0.0630
  237loPI   GL1 3781   6.426   2.101   9.613 -0.0052 -0.2268 -0.1982
  237loPI   GL2 3782   6.179   2.004   9.483 -0.0063 -0.2125  0.2399
  237loPI   C1A 3783   6.633   2.074   9.187  0.0475 -0.2280  0.2061
  237loPI   C2A 3784   6.748   2.164   8.779  0.3181  0.0129  0.0442
  237loPI   C3A 3785   6.811   2.195   8.378  0.0230 -0.1516  0.1167
  237loPI   C4A 3786   6.820   2.108   8.008  0.0729 -0.0615  0.0591
  237loPI   C5A 3787   6.662   2.415   7.725 -0.2548  0.0872 -0.1305
  237loPI   C6A 3788   6.305   2.403   7.515  0.1545 -0.0062 -0.1249
  237loPI   C1B 3789   6.208   1.988   9.029  0.2763 -0.0530  0.1108
  237loPI   C2B 3790   6.246   2.065   8.605  0.2423  0.5333 -0.2654
  237loPI   C3B 3791   6.304   2.077   8.268  0.2869 -0.4682 -0.2205
  237loPI   C4B 3792   6.387   1.936   7.874 -0.0685 -0.1959  0.0780
  238loPI    C1 3793  11.636  14.205  10.083 -0.0371  0.0148  0.0585
  238loPI    C2 3794  11.521  13.930  10.350 -0.0471  0.0848  0.1265
  238loPI    C3 3795  11.864  14.129  10.403  0.1042 -0.1193 -0.0727
  238loPI   PO4 3796  11.421  14.203   9.937  0.0277 -0.1813  0.0345
  238loPI   GL1 3797  11.198  14.196   9.647  0.3033 -0.1048  0.0592
  238loPI   GL2 3798  11.131  13.894   9.557  0.0658 -0.0743  0.1067
  238loPI   C1A 3799  11.113  14.405   9.251 -0.0671  0.1352  0.0690
  238loPI   C2A 3800  11.006  14.287   8.807  0.0226 -0.2755  0.0733
  238loPI   C3A 3801  10.856  14.188   8.425 -0.3560  0.1181  0.0471
  238loPI   C4A 3802  11.011  14.154   7.964 -0.0196 -0.1908  0.1544
  238loPI   C5A 3803  11.481  14.088   7.792  0.1052  0.0896  0.3060
  238loPI   C6A 3804  11.895  14.376   7.746 -0.1266  0.0103 -0.1952
  238loPI   C1B 3805  11.123  13.924   9.149  0.0180 -0.0592 -0.3017
  238loPI   C2B 3806  10.948  13.707   8.732  0.0076  0.1680 -0.0621
  238loPI   C3B 3807  10.880  13.556   8.261  0.0360 -0.1397 -0.3433
  238loPI   C4B 3808  10.635  13.500   7.898 -0.1320 -0.2117 -0.0516
  239loPI    C1 3809  13.908  13.286  10.216 -0.0734 -0.2824  0.3843
  239loPI    C2 3810  14.277  13.131  10.210 -0.0749 -0.2795  0.0897
  239loPI    C3 3811  14.140  13.308  10.542  0.2858 -0.0470  0.1209
  239loPI   PO4 3812  13.811  13.363   9.894  0.0712  0.0577 -0.1222
  239loPI   GL1 3813  13.805  13.121   9.627  0.2620  0.0222  0.0812
  239loPI   GL2 3814  13.532  12.976   9.617  0.5920  0.3079  0.2575
  239loPI   C1A 3815  13.783  12.998   9.148 -0.0449  0.0144 -0.1195
  239loPI   C2A 3816  13.753  12.929   8.785 -0.1317  0.0487 -0.1126
  239loPI   C3A 3817  13.616  13.137   8.415  0.3003 -0.2442  0.5486
  239loPI   C4A 3818  13.491  13.402   8.031 -0.0164  0.2749  0.1799
  239loPI   C5A 3819  13.700  13.531   7.616 -0.0972 -0.3055  0.0429
  239loPI   C6A 3820  13.808  13.683   7.178 -0.4040 -0.0366  0.1034
  239loPI   C1B 3821  13.358  13.105   9.328 -0.1984  0.0520 -0.0912
  239loPI   C2B 3822  13.311  12.927   9.046  0.1040  0.1074  0.0696
  239loPI   C3B 3823  13.238  12.876   8.621 -0.1516  0.0053 -0.0990
  239loPI   C4B 3824  13.266  12.814   8.206 -0.0225 -0.0323 -0.2481
  240loPI    C1 3825   0.021  10.192  10.726 -0.1287  0.0419  0.0265
  240loPI    C2 3826  -0.221  10.116  11.036 -0.1347  0.2826  0.0827
  240loPI    C3 3827  -0.060  10.480  10.991  0.4580  0.0490  0.2125
  240loPI   PO4 3828  -0.128  10.063  10.524  0.4376  0.1282  0.3101
  240loPI   GL1 3829  -0.312  10.093  10.108 -0.0610  0.1484  0.0631
  240loPI   GL2 3830  -0.641  10.086   9.983 -0.3506 -0.0013 -0.0305
  240loPI   C1A 3831  -0.198  10.058   9.609  0.0464  0.1101 -0.3659
  240loPI   C2A 3832   0.156  10.061   9.266  0.4074 -0.0573 -0.0738
  240loPI   C3A 3833   0.267   9.986   8.854 -0.1483 -0.0757 -0.2549
  240loPI   C4A 3834   0.217   9.690   8.523 -0.0096 -0.0179  0.3204
  240loPI   C5A 3835   0.064   9.455   8.092 -0.1057 -0.1582 -0.0519
  240loPI   C6A 3836  -0.263   9.579   7.971  0.0637  0.2795 -0.2704
  240loPI   C1B 3837  -0.756  10.082   9.562  0.0245  0.0657  0.1343
  240loPI   C2B 3838  -0.806  10.023   9.141 -0.1810  0.3110 -0.0688
  240loPI   C3B 3839  -0.782   9.974   8.721  0.0494 -0.1754  0.1654
  240loPI   C4B 3840  -1.037  10.127   8.442 -0.0125 -0.2274 -0.0736
  241loPI    C1 3841   0.999   7.544  10.502 -0.1236 -0.2102 -0.0917
  241loPI    C2 3842   1.185   7.234  10.331  0.0932 -0.1617  0.0517
  241loPI    C3 3843   1.041   7.201  10.703  0.2619 -0.0404  0.1290
  241loPI   PO4 3844   0.765   7.616  10.266  0.1916 -0.0907 -0.2651
  241loPI   GL1 3845   0.639   7.852   9.995 -0.2561  0.2154 -0.0687
  241loPI   GL2 3846   0.397   7.881   9.772  0.1652 -0.0224 -0.1921
  241loPI   C1A 3847   0.914   8.043   9.647  0.2489  0.0500  0.1154
  241loPI   C2A 3848   0.865   8.097   9.193  0.3787  0.0730 -0.0141
  241loPI   C3A 3849   0.994   8.296   8.755  0.1896  0.1671  0.1446
  241loPI   C4A 3850   0.705   8.331   8.348  0.0529 -0.3310 -0.0029
  241loPI   C5A 3851   0.321   8.111   8.084  0.2453 -0.0399  0.1609
  241loPI   C6A 3852   0.246   7.889   7.728  0.0732  0.1074 -0.4254
  241loPI   C1B 3853   0.452   7.813   9.379 -0.2911 -0.0873  0.1096
  241loPI   C2B 3854   0.414   7.902   9.043  0.0066  0.0105  0.0088
  241loPI   C3B 3855   0.621   7.921   8.672 -0.2648  0.1624 -0.1278
  241loPI   C4B 3856   0.968   7.860   8.380  0.2694 -0.2156  0.0217
  242loPI    C1 3857   9.911   7.035  11.098 -0.1761  0.0293  0.0300
  242loPI    C2 3858   9.748   6.699  11.243 -0.0195  0.0004  0.1415
  242loPI    C3 3859   9.709   7.043  11.444 -0.1499  0.0431  0.0449
  242loPI   PO4 3860   9.907   6.992  10.840  0.1443  0.1652  0.1363
  242loPI   GL1 3861   9.738   7.127  10.434 -0.2753  0.0729 -0.1998
  242loPI   GL2 3862   9.930   7.347  10.302  0.0732 -0.0062  0.0414
  242loPI   C1A 3863  10.019   6.864  10.122  0.0007  0.2546 -0.1177
  242loPI   C2A 3864  10.025   6.600   9.821 -0.1095 -0.0132  0.2615
  242loPI   C3A 3865  10.063   6.429   9.466 -0.2018 -0.3835 -0.3827
  242loPI   C4A 3866  10.149   6.606   9.098  0.3491 -0.0466 -0.2513
  242loPI   C5A 3867  10.243   6.431   8.746  0.1519  0.1165  0.0078
  242loPI   C6A 3868  10.310   6.033   8.501  0.2023  0.0066  0.2992
  242loPI   C1B 3869   9.858   7.291   9.881 -0.2316  0.0674 -0.2358
  242loPI   C2B 3870   9.947   7.283   9.509  0.1205  0.2077 -0.2950
  242loPI   C3B 3871   9.858   7.094   9.139 -0.2153 -0.0156  0.2663
  242loPI   C4B 3872   9.973   7.033   8.751  0.2816 -0.1419 -0.0590
  243loPI    C1 3873   9.581  12.055  10.510 -0.2734 -0.0658 -0.2403
  243loPI    C2 3874   9.530  12.391  10.721 -0.0264 -0.1066 -0.1116
  243loPI    C3 3875   9.517  12.036  10.905 -0.2197 -0.1655 -0.2361
  243loPI   PO4 3876   9.609  12.101  10.268 -0.2641 -0.0459 -0.0809
  243loPI   GL1 3877   9.437  11.876  10.028  0.1094  0.0224  0.3881
  243loPI   GL2 3878   9.260  12.111   9.866 -0.0546  0.0614  0.0734
  243loPI   C1A 3879   9.690  11.763   9.679 -0.1109 -0.0913 -0.0715
  243loPI   C2A 3880   9.638  11.584   9.339  0.3435  0.1490  0.0057
  243loPI   C3A 3881   9.776  11.572   9.009 -0.2797 -0.1582 -0.2682
  243loPI   C4A 3882   9.657  11.397   8.654 -0.2275  0.0750  0.3526
  243loPI   C5A 3883   9.693  11.212   8.249 -0.1887  0.0333  0.0192
  243loPI   C6A 3884   9.679  11.048   7.756  0.0380  0.2558  0.1530
  243loPI   C1B 3885   9.331  11.998   9.468 -0.0692 -0.1578 -0.1502
  243loPI   C2B 3886   9.308  11.965   9.043 -0.2178 -0.0306  0.0029
  243loPI   C3B 3887   9.415  11.843   8.683  0.3228 -0.1845 -0.1745
  243loPI   C4B 3888   9.490  11.686   8.234 -0.0693 -0.0800 -0.1712
  244loPI    C1 3889  15.300  10.876  10.540 -0.2425 -0.0634  0.0970
  244loPI    C2 3890  15.411  10.944  10.918  0.2619 -0.0206 -0.0522
  244loPI    C3 3891  15.503  10.597  10.742  0.0472 -0.0322 -0.1446
  244loPI   PO4 3892  14.975  11.002  10.522 -0.0575  0.0893  0.1783
  244loPI   GL1 3893  14.715  11.189  10.104 -0.1556  0.2972 -0.3047
  244loPI   GL2 3894  14.598  11.001  10.015 -0.2968 -0.0060  0.1419
  244loPI   C1A 3895  14.623  11.391   9.696  0.0665 -0.0723 -0.1106
  244loPI   C2A 3896  14.755  11.388   9.290  0.0895  0.1237  0.0476
  244loPI   C3A 3897  15.146  11.602   9.053 -0.0167 -0.0937  0.0387
  244loPI   C4A 3898  15.290  11.732   8.568 -0.2136  0.1535 -0.1604
  244loPI   C5A 3899  15.295  12.050   8.274 -0.1370  0.0024  0.3055
  244loPI   C6A 3900  15.667  12.274   8.228 -0.0219 -0.2005 -0.3221
  244loPI   C1B 3901  14.814  10.928   9.627 -0.2763  0.0163 -0.0150
  244loPI   C2B 3902  14.840  10.852   9.205 -0.1258  0.2011  0.2593
  244loPI   C3B 3903  14.807  10.870   8.773  0.1457  0.1005  0.3696
  244loPI   C4B 3904  14.982  11.228   8.509 -0.1047 -0.2179 -0.1862
  245loPI    C1 3905  11.204  11.956  10.786  0.1224  0.1328  0.0461
  245loPI    C2 3906  11.067  12.207  11.066 -0.1575 -0.0580  0.0843
  245loPI    C3 3907  11.457  12.197  10.981 -0.1366  0.3632  0.1056
  245loPI   PO4 3908  11.092  12.017  10.505 -0.3239  0.1540  0.0632
  245loPI   GL1 3909  10.851  12.044  10.079 -0.1752  0.2219 -0.3692
  245loPI   GL2 3910  10.739  11.829  10.147 -0.1838  0.0735 -0.0015
  245loPI   C1A 3911  10.942  12.256   9.673  0.0265  0.0551 -0.0548
  245loPI   C2A 3912  11.096  12.398   9.368 -0.0022 -0.0363 -0.2095
  245loPI   C3A 3913  11.008  12.449   8.954  0.2898  0.1631 -0.2742
  245loPI   C4A 3914  10.978  12.327   8.601  0.0656  0.0768 -0.1554
  245loPI   C5A 3915  10.942  12.443   8.310 -0.0042  0.0795 -0.1044
  245loPI   C6A 3916  10.641  12.462   8.102  0.3642  0.0713 -0.0460
  245loPI   C1B 3917  10.748  11.652   9.698  0.2680  0.1245 -0.1753
  245loPI   C2B 3918  10.880  11.474   9.385 -0.0930 -0.1595  0.0296
  245loPI   C3B 3919  10.844  11.475   8.919 -0.1646  0.1399 -0.0718
  245loPI   C4B 3920  10.795  11.481   8.496 -0.4585  0.1684 -0.0219
  246loPI    C1 3921  17.697  11.894  10.197 -0.0214  0.1076 -0.0218
  246loPI    C2 3922  17.602  12.209  10.425  0.3155  0.2142 -0.0231
  246loPI    C3 3923  17.938  12.005  10.496  0.1324 -0.1090 -0.0634
  246loPI   PO4 3924  17.599  12.003   9.936  0.0667 -0.0761  0.2963
  246loPI   GL1 3925  17.355  11.937   9.599  0.2363  0.1565 -0.1030
  246loPI   GL2 3926  17.121  11.826   9.797 -0.0577 -0.1556  0.0524
  246loPI   C1A 3927  17.546  11.792   9.207  0.1016  0.0482  0.1813
  246loPI   C2A 3928  17.463  11.718   8.819  0.1534  0.1344  0.0381
  246loPI   C3A 3929  17.436  11.430   8.444  0.1081 -0.0784  0.0240
  246loPI   C4A 3930  17.463  11.569   8.022 -0.1584  0.1429 -0.1024
  246loPI   C5A 3931  17.406  11.887   7.734 -0.0532 -0.2887  0.2155
  246loPI   C6A 3932  17.731  12.286   7.650 -0.2775  0.0116  0.0203
  246loPI   C1B 3933  16.914  11.768   9.448 -0.3428  0.0471  0.0269
  246loPI   C2B 3934  16.965  11.703   9.084 -0.0753  0.1134  0.1179
  246loPI   C3B 3935  17.060  11.266   8.960  0.1635 -0.0286  0.0254
  246loPI   C4B 3936  17.004  11.132   8.593  0.0768  0.0384 -0.0219
  247loPI    C1 3937   4.030  18.298   9.304  0.1328 -0.0639 -0.1421
  247loPI    C2 3938   3.876  18.666   9.266  0.1057 -0.1010 -0.4096
  247loPI    C3 3939   4.273  18.614   9.268  0.1145 -0.0421 -0.0763
  247loPI   PO4 3940   3.749  18.205   9.180 -0.0485  0.4023  0.2340
  247loPI   GL1 3941   3.810  18.054   8.776  0.0980 -0.1283  0.1537
  247loPI   GL2 3942   4.118  17.947   8.971  0.1885  0.1446  0.1098
  247loPI   C1A 3943   3.782  18.026   8.422  0.0482 -0.0280 -0.0978
  247loPI   C2A 3944   3.780  17.881   7.958  0.0204 -0.3717  0.1109
  247loPI   C3A 3945   3.766  17.899   7.526 -0.2564  0.0528 -0.0470
  247loPI   C4A 3946   3.511  17.888   7.195  0.1196  0.0655 -0.1087
  247loPI   C5A 3947   3.370  18.126   6.901  0.0926  0.1039  0.2133
  247loPI   C6A 3948   3.183  18.293   6.505  0.0381  0.1145  0.0456
  247loPI   C1B 3949   4.338  18.021   8.504  0.2560 -0.2931  0.3217
  247loPI   C2B 3950   4.279  17.883   8.034 -0.0263  0.1540  0.3738
  247loPI   C3B 3951   4.217  17.647   7.683 -0.0557 -0.0616  0.2511
  247loPI   C4B 3952   4.062  17.312   7.556  0.1208  0.1082  0.1440
  248loPI    C1 3953  17.438   6.681  10.861  0.0643 -0.1412  0.0647
  248loPI    C2 3954  17.590   7.044  10.935  0.1355 -0.0777 -0.3633
  248loPI    C3 3955  17.677   6.737  11.177  0.1718  0.1617 -0.0660
  248loPI   PO4 3956  17.510   6.650  10.575  0.0983  0.0144 -0.1674
  248loPI   GL1 3957  17.301   6.466  10.358  0.1596 -0.1940  0.1212
  248loPI   GL2 3958  17.286   6.180  10.192 -0.0698 -0.4048  0.0476
  248loPI   C1A 3959  17.196   6.844  10.013 -0.1419 -0.2049 -0.0015
  248loPI   C2A 3960  17.234   6.767   9.639 -0.1380 -0.0621  0.0582
  248loPI   C3A 3961  17.172   6.765   9.161  0.0109 -0.1197 -0.0787
  248loPI   C4A 3962  17.429   6.891   8.768 -0.1280  0.1414  0.0174
  248loPI   C5A 3963  17.646   7.101   8.553 -0.2372 -0.1402  0.1995
  248loPI   C6A 3964  17.837   7.190   8.143 -0.0436 -0.1688  0.1300
  248loPI   C1B 3965  17.467   5.977   9.919  0.0193 -0.0206 -0.0380
  248loPI   C2B 3966  17.740   5.881   9.661  0.2205 -0.1425  0.2370
  248loPI   C3B 3967  17.992   5.618   9.598 -0.2112 -0.2459 -0.0512
  248loPI   C4B 3968  18.213   5.524   9.288  0.1484 -0.0783  0.4388
  249loPI    C1 3969   6.327   5.047  10.889  0.1815  0.0880 -0.0223
  249loPI    C2 3970   6.143   5.376  11.021  0.1088  0.0553 -0.0418
  249loPI    C3 3971   6.043   5.018  11.169  0.1728  0.0398 -0.0360
  249loPI   PO4 3972   6.398   5.149  10.620  0.0482  0.0062 -0.1816
  249loPI   GL1 3973   6.592   5.412  10.279  0.2712  0.0341  0.0778
  249loPI   GL2 3974   6.684   5.566  10.093 -0.1007 -0.0013  0.0129
  249loPI   C1A 3975   6.607   5.199   9.832 -0.2688  0.2380  0.1573
  249loPI   C2A 3976   6.667   5.262   9.450 -0.0704  0.0548 -0.2039
  249loPI   C3A 3977   6.668   5.054   9.102  0.0775 -0.1056  0.3404
  249loPI   C4A 3978   6.841   5.014   8.807  0.2984  0.1241 -0.3104
  249loPI   C5A 3979   6.801   4.970   8.434  0.4966 -0.0334  0.1636
  249loPI   C6A 3980   6.871   5.002   8.027 -0.0936  0.1461 -0.1642
  249loPI   C1B 3981   6.511   5.671   9.762  0.2872 -0.2004  0.0299
  249loPI   C2B 3982   6.319   5.851   9.455 -0.0135  0.1206  0.1557
  249loPI   C3B 3983   6.224   6.157   9.272 -0.2475 -0.1263  0.0698
  249loPI   C4B 3984   6.276   6.565   8.920 -0.0294  0.1815 -0.3747
  250loPI    C1 3985   4.755  10.857  10.210  0.2792  0.1179 -0.0472
  250loPI    C2 3986   4.872  10.715  10.565 -0.2757 -0.0925  0.0602
  250loPI    C3 3987   4.832  11.109  10.511  0.3301 -0.0226  0.0586
  250loPI   PO4 3988   4.832  10.675  10.079 -0.1383  0.1985  0.0869
  250loPI   GL1 3989   5.165  10.532   9.813  0.2008 -0.1445  0.0239
  250loPI   GL2 3990   4.992  10.264   9.680 -0.2405  0.1243  0.2276
  250loPI   C1A 3991   4.940  10.694   9.495 -0.0606  0.2998 -0.0488
  250loPI   C2A 3992   4.991  10.722   8.953  0.0923 -0.6969  0.2945
  250loPI   C3A 3993   5.049  10.734   8.544  0.2831  0.1166 -0.0446
  250loPI   C4A 3994   5.252  10.483   8.344 -0.0766  0.2237 -0.1684
  250loPI   C5A 3995   5.465  10.190   8.017 -0.3846  0.1465  0.1573
  250loPI   C6A 3996   5.529  10.189   7.554 -0.0294 -0.1750  0.2104
  250loPI   C1B 3997   5.069  10.254   9.211  0.1915 -0.1754 -0.3309
  250loPI   C2B 3998   5.272  10.299   8.898  0.1639 -0.2517  0.2485
  250loPI   C3B 3999   5.668  10.255   8.590  0.3093  0.0889  0.0025
  250loPI   C4B 4000   6.044  10.448   8.504  0.1248 -0.2188  0.3826
  251loPI    C1 4001  10.551  12.412  10.556 -0.0202 -0.0473  0.1705
  251loPI    C2 4002  10.611  12.019  10.599  0.1050 -0.0621 -0.1115
  251loPI    C3 4003  10.597  12.257  10.921  0.2115 -0.2704  0.0494
  251loPI   PO4 4004  10.518  12.424  10.303  0.1671  0.0003 -0.0442
  251loPI   GL1 4005  10.257  12.416   9.986  0.0705 -0.3850 -0.1847
  251loPI   GL2 4006  10.327  12.070  10.026  0.1827 -0.0937  0.0840
  251loPI   C1A 4007  10.315  12.579   9.574  0.1866  0.0547  0.1379
  251loPI   C2A 4008  10.393  12.655   9.200 -0.1083  0.3668  0.2048
  251loPI   C3A 4009  10.470  12.414   8.858  0.0485  0.0072  0.1120
  251loPI   C4A 4010  10.302  12.275   8.429  0.0756 -0.1082  0.1066
  251loPI   C5A 4011  10.340  11.944   8.019 -0.0477  0.0006  0.0060
  251loPI   C6A 4012  10.128  11.864   7.667  0.3775 -0.3474  0.1794
  251loPI   C1B 4013  10.479  12.122   9.702 -0.0557 -0.2126  0.0210
  251loPI   C2B 4014  10.628  11.929   9.302 -0.0605 -0.0433 -0.0827
  251loPI   C3B 4015  10.594  11.903   8.864  0.2084  0.1069 -0.2406
  251loPI   C4B 4016  10.728  11.988   8.357 -0.2398 -0.1068 -0.0235
  252loPI    C1 4017   6.681   3.764  11.047 -0.0236  0.0065  0.0989
  252loPI    C2 4018   7.016   3.553  10.989  0.1534  0.2363  0.2638
  252loPI    C3 4019   6.731   3.413  11.233 -0.0036 -0.0972 -0.0993
  252loPI   PO4 4020   6.609   3.873  10.805  0.1370 -0.1467  0.1085
  252loPI   GL1 4021   6.613   4.110  10.388  0.2449  0.1937  0.3505
  252loPI   GL2 4022   6.477   4.373  10.178  0.3269 -0.4843 -0.1180
  252loPI   C1A 4023   6.808   3.933   9.907 -0.0194  0.0630 -0.2272
  252loPI   C2A 4024   6.876   3.850   9.474  0.0000 -0.0912 -0.0371
  252loPI   C3A 4025   6.993   3.988   9.149 -0.2885 -0.2819 -0.2776
  252loPI   C4A 4026   6.997   3.974   8.743  0.2012  0.3071 -0.1976
  252loPI   C5A 4027   7.204   4.091   8.412 -0.1977 -0.3012 -0.2422
  252loPI   C6A 4028   7.517   4.392   8.263  0.2646 -0.0530  0.0078
  252loPI   C1B 4029   6.551   4.320   9.739  0.0580  0.0227 -0.1245
  252loPI   C2B 4030   6.593   4.224   9.381  0.0552  0.1774  0.1084
  252loPI   C3B 4031   6.519   4.156   8.921 -0.2111 -0.1355 -0.2578
  252loPI   C4B 4032   6.264   3.899   8.731 -0.0836  0.1687 -0.0880
  253loPI    C1 4033   7.900   1.111  10.498  0.1951  0.1100 -0.2042
  253loPI    C2 4034   8.275   1.168  10.624  0.1676 -0.0213 -0.0582
  253loPI    C3 4035   7.993   1.441  10.704  0.1840 -0.0294  0.0282
  253loPI   PO4 4036   7.909   1.017  10.302  0.2233  0.2940  0.2792
  253loPI   GL1 4037   7.957   0.953   9.874 -0.0854 -0.1009 -0.1394
  253loPI   GL2 4038   7.711   1.050   9.847 -0.1102 -0.0825 -0.2113
  253loPI   C1A 4039   7.932   0.538   9.801 -0.2548  0.1820 -0.3263
  253loPI   C2A 4040   7.839   0.346   9.350 -0.1509 -0.2118  0.1123
  253loPI   C3A 4041   7.810   0.346   8.918  0.0416 -0.3429  0.1955
  253loPI   C4A 4042   7.388   0.273   8.663  0.2843  0.1040  0.1736
  253loPI   C5A 4043   7.277   0.344   8.267 -0.1312 -0.0310 -0.1199
  253loPI   C6A 4044   7.491   0.462   7.849 -0.1872  0.1160 -0.1122
  253loPI   C1B 4045   7.740   1.305   9.432  0.1162 -0.1155 -0.0128
  253loPI   C2B 4046   7.775   1.427   9.048  0.0169  0.0182 -0.0912
  253loPI   C3B 4047   7.683   1.351   8.629  0.1485  0.0133  0.0528
  253loPI   C4B 4048   7.530   1.518   8.306  0.0912 -0.0187 -0.2260
  254loPI    C1 4049   6.892  14.265  10.311  0.0196  0.1967  0.0034
  254loPI    C2 4050   7.172  14.214  10.592 -0.1366 -0.0791  0.1126
  254loPI    C3 4051   6.873  13.950  10.558 -0.1540 -0.0144 -0.2729
  254loPI   PO4 4052   6.925  14.329  10.097 -0.1402 -0.0384 -0.0078
  254loPI   GL1 4053   6.853  14.258   9.635 -0.0434  0.1201  0.2124
  254loPI   GL2 4054   7.001  14.057   9.638 -0.0200 -0.2873 -0.1516
  254loPI   C1A 4055   6.872  14.246   9.145  0.0805 -0.0615  0.0634
  254loPI   C2A 4056   6.930  14.285   8.721  0.0208 -0.2664 -0.0238
  254loPI   C3A 4057   7.050  14.181   8.258  0.0876  0.0884 -0.0020
  254loPI   C4A 4058   7.029  14.332   7.781 -0.1964  0.1956 -0.1088
  254loPI   C5A 4059   7.078  14.768   7.547  0.2716 -0.2175  0.0658
  254loPI   C6A 4060   7.017  15.166   7.539 -0.0289  0.2923  0.1694
  254loPI   C1B 4061   7.330  13.964   9.354  0.1718 -0.0827 -0.1873
  254loPI   C2B 4062   7.261  13.965   8.916 -0.2079  0.0944 -0.0189
  254loPI   C3B 4063   7.367  13.898   8.526 -0.2082  0.0449 -0.0619
  254loPI   C4B 4064   7.478  13.903   8.116 -0.1582  0.0553 -0.3474
  255loPI    C1 4065  15.999   9.578  10.552 -0.2237  0.1363  0.1174
  255loPI    C2 4066  16.283   9.740  10.784 -0.1265 -0.0218  0.1103
  255loPI    C3 4067  15.963   9.567  10.951 -0.0246 -0.1929  0.1305
  255loPI   PO4 4068  15.847   9.765  10.403 -0.0453  0.0337  0.2026
  255loPI   GL1 4069  15.657   9.875  10.015 -0.2519 -0.3731  0.2008
  255loPI   GL2 4070  15.557  10.213   9.885  0.0951 -0.0518  0.1142
  255loPI   C1A 4071  16.029   9.742   9.777  0.0002 -0.1141  0.0473
  255loPI   C2A 4072  16.163   9.667   9.352 -0.0592 -0.3696 -0.1305
  255loPI   C3A 4073  16.312   9.805   8.975 -0.2088 -0.0665  0.3383
  255loPI   C4A 4074  16.310   9.708   8.539 -0.1289 -0.1909  0.1446
  255loPI   C5A 4075  16.373   9.408   8.214  0.1913  0.0257 -0.0226
  255loPI   C6A 4076  16.582   9.324   7.877 -0.1564 -0.2959 -0.2746
  255loPI   C1B 4077  15.739  10.032   9.502  0.1971 -0.1721 -0.1966
  255loPI   C2B 4078  15.812   9.950   9.098 -0.1241  0.3960  0.1246
  255loPI   C3B 4079  15.858   9.866   8.694 -0.4276 -0.0597  0.1259
  255loPI   C4B 4080  15.843   9.581   8.361  0.1665  0.4737  0.1447
  256loPI    C1 4081   2.344   5.923  10.142 -0.2706 -0.1095  0.1832
  256loPI    C2 4082   2.328   6.315  10.065 -0.0103 -0.0833  0.2545
  256loPI    C3 4083   2.351   6.186  10.443  0.2359 -0.1532  0.2170
  256loPI   PO4 4084   2.148   5.819   9.997 -0.2793  0.1356 -0.1124
  256loPI   GL1 4085   2.296   5.793   9.634 -0.2238 -0.1178  0.1393
  256loPI   GL2 4086   2.564   5.797   9.521 -0.2384 -0.3164 -0.4093
  256loPI   C1A 4087   2.226   5.712   9.109 -0.1752 -0.1561 -0.2486
  256loPI   C2A 4088   2.186   5.815   8.647  0.0688  0.1551  0.0018
  256loPI   C3A 4089   2.294   5.836   8.250  0.0674 -0.1263 -0.0299
  256loPI   C4A 4090   2.091   5.682   7.963 -0.2780 -0.0640  0.0627
  256loPI   C5A 4091   2.238   5.722   7.542 -0.3937 -0.1306  0.0589
  256loPI   C6A 4092   2.387   5.704   7.159 -0.0634  0.1696 -0.1659
  256loPI   C1B 4093   2.648   6.040   9.176  0.1337  0.2742 -0.0107
  256loPI   C2B 4094   2.679   6.135   8.688 -0.0573 -0.1876 -0.0585
  256loPI   C3B 4095   2.549   6.276   8.311 -0.1801  0.3677  0.1195
  256loPI   C4B 4096   2.743   6.374   7.918  0.0705 -0.1257 -0.0973
  257loPI    C1 4097   8.816  12.790  10.255  0.1896 -0.0798  0.1375
  257loPI    C2 4098   8.438  12.843  10.377  0.0922 -0.3780 -0.0220
  257loPI    C3 4099   8.724  13.099  10.491 -0.1903 -0.0410 -0.0525
  257loPI   PO4 4100   8.710  12.808   9.919 -0.1625 -0.1595  0.2120
  257loPI   GL1 4101   8.384  12.810   9.603  0.0295 -0.0690 -0.0217
  257loPI   GL2 4102   8.282  12.985   9.553 -0.0307  0.0877 -0.3622
  257loPI   C1A 4103   8.454  12.617   9.155  0.1151 -0.0991  0.0059
  257loPI   C2A 4104   8.424  12.561   8.744  0.1320  0.1746 -0.0881
  257loPI   C3A 4105   8.226  12.703   8.294 -0.3873 -0.1238  0.0607
  257loPI   C4A 4106   7.814  12.663   8.146  0.2630  0.0187 -0.0048
  257loPI   C5A 4107   7.631  12.660   7.845  0.1640 -0.3606  0.0729
  257loPI   C6A 4108   7.464  12.889   7.454 -0.1865  0.1348  0.0638
  257loPI   C1B 4109   8.428  13.108   9.216  0.1015  0.1870 -0.0122
  257loPI   C2B 4110   8.448  13.034   8.817  0.3404 -0.0454 -0.0195
  257loPI   C3B 4111   8.366  13.176   8.443  0.0920 -0.1469 -0.3610
  257loPI   C4B 4112   8.249  13.358   7.956 -0.1422  0.2168 -0.0044
  258loPI    C1 4113  10.340  10.740  10.732 -0.0701  0.1622 -0.0051
  258loPI    C2 4114  10.723  10.714  10.844 -0.0914 -0.1009  0.0117
  258loPI    C3 4115  10.453  10.877  11.090  0.0358  0.2338 -0.0654
  258loPI   PO4 4116  10.085  10.593  10.574 -0.2048  0.0528 -0.2110
  258loPI   GL1 4117  10.183  10.410  10.236 -0.1930 -0.6195  0.1305
  258loPI   GL2 4118  10.403  10.738  10.131  0.0251  0.1804 -0.0278
  258loPI   C1A 4119   9.955  10.236   9.923 -0.0762  0.0618  0.1058
  258loPI   C2A 4120   9.990  10.258   9.598  0.2002  0.1958 -0.2386
  258loPI   C3A 4121  10.059  10.192   9.118 -0.0055 -0.0840 -0.1675
  258loPI   C4A 4122  10.259  10.100   8.774  0.2261 -0.1327  0.3081
  258loPI   C5A 4123  10.302   9.996   8.487 -0.0078  0.0322  0.1246
  258loPI   C6A 4124  10.539   9.973   8.056  0.0833  0.2462  0.3017
  258loPI   C1B 4125  10.657  10.684   9.717 -0.1505  0.0831  0.1655
  258loPI   C2B 4126  10.787  10.611   9.245 -0.0456  0.1105 -0.1963
  258loPI   C3B 4127  10.776  10.498   8.813  0.7930 -0.0476 -0.1883
  258loPI   C4B 4128  10.655  10.352   8.464 -0.3113 -0.2512  0.0637
  259loPI    C1 4129   1.300  11.957  10.142  0.0290 -0.0751  0.1544
  259loPI    C2 4130   1.655  12.053   9.986 -0.0173  0.1102  0.1600
  259loPI    C3 4131   1.528  12.234  10.319 -0.0839 -0.0107  0.2007
  259loPI   PO4 4132   1.297  11.778  10.088  0.2510 -0.3228 -0.0428
  259loPI   GL1 4133   1.177  11.623   9.693 -0.2784  0.4004 -0.0302
  259loPI   GL2 4134   1.050  12.002   9.696  0.2468 -0.0580 -0.0873
  259loPI   C1A 4135   0.908  11.622   9.325  0.0657 -0.1219 -0.0753
  259loPI   C2A 4136   0.812  11.390   8.904 -0.1621 -0.1875 -0.2243
  259loPI   C3A 4137   0.866  11.228   8.468 -0.2397  0.3061 -0.3830
  259loPI   C4A 4138   1.189  11.374   8.123 -0.2432  0.0091 -0.0982
  259loPI   C5A 4139   1.332  11.784   7.992 -0.1294  0.3101  0.1243
  259loPI   C6A 4140   1.452  12.170   7.893  0.1100 -0.0316 -0.0138
  259loPI   C1B 4141   0.966  12.110   9.300  0.2560 -0.1212 -0.0121
  259loPI   C2B 4142   0.901  11.909   8.858  0.0154  0.0937 -0.0818
  259loPI   C3B 4143   0.941  11.727   8.518 -0.0915 -0.0382  0.0469
  259loPI   C4B 4144   0.851  11.795   8.140 -0.1569  0.3364  0.2326
  260loPI    C1 4145   0.734   3.583   9.801 -0.2931  0.1507  0.1577
  260loPI    C2 4146   0.878   3.747  10.136  0.1382 -0.0143  0.0603
  260loPI    C3 4147   0.924   3.355  10.069  0.2072  0.0474 -0.2688
  260loPI   PO4 4148   0.603   3.824   9.732  0.2789  0.0336  0.2123
  260loPI   GL1 4149   0.506   3.939   9.399  0.1157 -0.0673  0.2110
  260loPI   GL2 4150   0.536   4.231   9.412  0.0743  0.1855  0.2583
  260loPI   C1A 4151   0.452   4.084   8.959  0.1079  0.0149 -0.1738
  260loPI   C2A 4152   0.459   4.328   8.632 -0.0812  0.2696  0.1809
  260loPI   C3A 4153   0.125   4.421   8.327 -0.0624 -0.1566  0.0520
  260loPI   C4A 4154  -0.154   4.334   7.975 -0.4848 -0.0538 -0.2251
  260loPI   C5A 4155  -0.512   4.272   7.807  0.2197 -0.0787 -0.0759
  260loPI   C6A 4156  -0.840   4.391   7.896 -0.1508  0.0166 -0.0245
  260loPI   C1B 4157   0.327   4.585   9.092  0.0246 -0.0342 -0.0312
  260loPI   C2B 4158   0.185   4.712   8.756 -0.0243  0.0586 -0.1812
  260loPI   C3B 4159  -0.030   4.933   8.465  0.1322 -0.0085  0.4421
  260loPI   C4B 4160  -0.239   4.764   8.147  0.2055 -0.3889 -0.2615
  261loPI    C1 4161   3.112   4.511  10.166  0.1059 -0.1088  0.1295
  261loPI    C2 4162   3.307   4.596  10.505 -0.1830 -0.1603  0.3129
  261loPI    C3 4163   2.959   4.399  10.519 -0.3214  0.0545  0.0029
  261loPI   PO4 4164   3.168   4.722  10.057 -0.0134  0.0947  0.2376
  261loPI   GL1 4165   3.250   4.527   9.660 -0.4905  0.2432  0.0349
  261loPI   GL2 4166   3.553   4.797   9.775  0.0354 -0.0658  0.0535
  261loPI   C1A 4167   3.069   4.670   9.313  0.1277 -0.0514  0.1312
  261loPI   C2A 4168   2.728   4.906   9.133 -0.0751  0.2071 -0.0314
  261loPI   C3A 4169   2.621   5.030   8.721 -0.1428 -0.1649  0.0385
  261loPI   C4A 4170   2.836   5.243   8.308  0.1417  0.2396 -0.1221
  261loPI   C5A 4171   3.003   5.317   7.927  0.1242 -0.3581 -0.0831
  261loPI   C6A 4172   3.248   5.178   7.577 -0.2979 -0.0872  0.0944
  261loPI   C1B 4173   3.580   4.891   9.385 -0.1708 -0.2002 -0.3529
  261loPI   C2B 4174   3.582   4.970   8.926 -0.4210 -0.4085 -0.0303
  261loPI   C3B 4175   3.644   5.103   8.521 -0.3192  0.0941 -0.3297
  261loPI   C4B 4176   3.454   5.223   8.129  0.0353  0.0206 -0.0469
  262loPI    C1 4177  14.595   0.853  10.061 -0.0674  0.0118 -0.0764
  262loPI    C2 4178  14.420   0.892  10.419  0.3093 -0.0109  0.1154
  262loPI    C3 4179  14.719   0.630  10.370  0.1241 -0.1576 -0.2717
  262loPI   PO4 4180  14.384   1.110   9.920 -0.0216  0.1832 -0.0625
  262loPI   GL1 4181  14.081   1.097   9.594  0.0624  0.0962 -0.0905
  262loPI   GL2 4182  13.779   1.003   9.721  0.0113 -0.2543  0.1938
  262loPI   C1A 4183  14.308   1.058   9.265  0.1503 -0.2275 -0.4939
  262loPI   C2A 4184  14.339   1.235   8.907 -0.2610  0.0472  0.0138
  262loPI   C3A 4185  14.206   1.353   8.486  0.2018  0.1722  0.1195
  262loPI   C4A 4186  14.368   1.148   8.093  0.5153 -0.1214  0.0166
  262loPI   C5A 4187  14.184   0.766   7.989  0.3333  0.1530  0.1268
  262loPI   C6A 4188  13.643   0.640   8.065  0.3713  0.1401  0.1419
  262loPI   C1B 4189  13.454   1.275   9.499  0.1922  0.1603  0.3361
  262loPI   C2B 4190  13.401   1.329   9.085  0.0788  0.0773  0.0442
  262loPI   C3B 4191  13.337   1.226   8.686  0.1023  0.3391  0.0341
  262loPI   C4B 4192  13.388   1.087   8.289 -0.0529  0.0244  0.1549
  263loPI    C1 4193   5.754  10.819  10.328 -0.1822  0.1603  0.1449
  263loPI    C2 4194   5.999  10.674  10.609  0.0585  0.0939 -0.0954
  263loPI    C3 4195   5.956  11.069  10.566 -0.0202  0.1041  0.0677
  263loPI   PO4 4196   5.841  10.714  10.132 -0.2388  0.0330 -0.1950
  263loPI   GL1 4197   5.588  10.252  10.012  0.3051 -0.2269  0.0026
  263loPI   GL2 4198   5.873  10.262   9.832 -0.0472  0.1613 -0.1776
  263loPI   C1A 4199   5.505  10.261   9.513 -0.1708 -0.0604  0.1837
  263loPI   C2A 4200   5.681  10.269   9.100 -0.0101  0.1231 -0.4362
  263loPI   C3A 4201   6.146  10.286   8.939 -0.0160  0.1266  0.1132
  263loPI   C4A 4202   6.254   9.988   8.650  0.0382 -0.1393  0.3400
  263loPI   C5A 4203   6.341   9.739   8.286  0.1895  0.1644  0.1391
  263loPI   C6A 4204   6.523   9.587   7.874 -0.0609 -0.1025  0.1335
  263loPI   C1B 4205   5.974  10.412   9.510  0.0070  0.1724 -0.1401
  263loPI   C2B 4206   6.099  10.801   9.265  0.0338 -0.1463  0.3996
  263loPI   C3B 4207   6.076  10.761   8.899 -0.0369  0.3526 -0.2608
  263loPI   C4B 4208   6.237  10.960   8.618 -0.1514  0.3472  0.2163
  264loPI    C1 4209   3.243  11.746  10.226  0.0203  0.0470  0.1826
  264loPI    C2 4210   3.641  11.714  10.249  0.0316  0.0220 -0.0255
  264loPI    C3 4211   3.472  12.074  10.212  0.0434  0.0223 -0.0785
  264loPI   PO4 4212   3.111  11.489  10.056  0.1033 -0.0293 -0.1684
  264loPI   GL1 4213   3.125  11.235   9.703 -0.4070  0.2627  0.1928
  264loPI   GL2 4214   3.397  11.393   9.528  0.3510  0.1517 -0.0862
  264loPI   C1A 4215   2.903  11.188   9.345 -0.1035  0.0064 -0.0800
  264loPI   C2A 4216   2.819  11.160   8.938  0.1397  0.1285  0.1458
  264loPI   C3A 4217   2.631  11.275   8.524 -0.0327  0.0319  0.1746
  264loPI   C4A 4218   2.390  11.260   8.091 -0.1123  0.1715  0.3801
  264loPI   C5A 4219   1.965  11.370   7.915  0.4545  0.0058  0.1945
  264loPI   C6A 4220   1.584  11.335   7.609 -0.0472  0.1097 -0.2129
  264loPI   C1B 4221   3.494  11.220   9.194 -0.1728  0.0630 -0.2180
  264loPI   C2B 4222   3.535  11.208   8.732 -0.0223 -0.2622  0.2971
  264loPI   C3B 4223   3.743  10.925   8.369 -0.1263  0.1288 -0.0639
  264loPI   C4B 4224   3.551  10.815   8.029 -0.0007  0.0307 -0.1478
  265loPI    C1 4225  14.045  15.088   9.918 -0.1150  0.0923  0.3095
  265loPI    C2 4226  14.161  14.729   9.783 -0.0814  0.1879  0.0789
  265loPI    C3 4227  13.787  14.782   9.914 -0.1646  0.1324 -0.1321
  265loPI   PO4 4228  14.212  15.286   9.736  0.1308  0.0984 -0.0789
  265loPI   GL1 4229  14.531  15.578   9.626  0.2438  0.2730 -0.1433
  265loPI   GL2 4230  14.794  15.286   9.751 -0.1579  0.0930 -0.0824
  265loPI   C1A 4231  14.371  15.633   9.129 -0.0928  0.0446  0.0805
  265loPI   C2A 4232  14.375  15.733   8.733 -0.0491  0.4131  0.1946
  265loPI   C3A 4233  14.221  15.931   8.337 -0.4972 -0.3055  0.0978
  265loPI   C4A 4234  14.122  15.979   7.905  0.2474 -0.2114  0.3131
  265loPI   C5A 4235  14.252  16.316   7.617  0.1375 -0.2531  0.0894
  265loPI   C6A 4236  14.222  16.161   7.224  0.0654  0.0159  0.1740
  265loPI   C1B 4237  14.758  15.338   9.280 -0.0039 -0.0561 -0.0903
  265loPI   C2B 4238  14.746  15.439   8.885  0.2282  0.2136 -0.2157
  265loPI   C3B 4239  14.819  15.341   8.443  0.0612 -0.0053 -0.0436
  265loPI   C4B 4240  14.844  15.201   7.965 -0.1545 -0.0986 -0.0395
  266loPI    C1 4241   4.463   1.410   9.755  0.0348  0.0485  0.0381
  266loPI    C2 4242   4.700   1.120   9.613  0.0230  0.1183 -0.1269
  266loPI    C3 4243   4.853   1.408   9.844  0.0439  0.0082 -0.0021
  266loPI   PO4 4244   4.233   1.301   9.778 -0.0873 -0.2618 -0.2833
  266loPI   GL1 4245   4.098   1.010   9.506 -0.0064  0.1375 -0.0857
  266loPI   GL2 4246   3.861   1.054   9.150 -0.1582 -0.0280  0.0505
  266loPI   C1A 4247   4.444   0.884   9.249 -0.3057 -0.1025 -0.3458
  266loPI   C2A 4248   4.656   0.817   8.874  0.0782 -0.2331 -0.2581
  266loPI   C3A 4249   4.650   0.956   8.423 -0.0095  0.0672 -0.0439
  266loPI   C4A 4250   4.715   1.028   8.025  0.0890 -0.2731 -0.0788
  266loPI   C5A 4251   4.557   1.196   7.571 -0.0782 -0.1206 -0.1535
  266loPI   C6A 4252   4.231   1.329   7.184  0.3777 -0.0708  0.6002
  266loPI   C1B 4253   4.184   1.019   8.885 -0.0039 -0.4478 -0.1735
  266loPI   C2B 4254   4.352   1.334   8.605 -0.1352 -0.0992 -0.2299
  266loPI   C3B 4255   4.324   1.400   8.167 -0.0893  0.2574 -0.3759
  266loPI   C4B 4256   4.268   1.645   7.749 -0.0336  0.1588 -0.0454
  267loPI    C1 4257   2.957  10.601  10.420  0.1620 -0.1474  0.1912
  267loPI    C2 4258   2.938  10.492  10.805  0.0004 -0.1064  0.1957
  267loPI    C3 4259   2.912  10.878  10.705  0.3523 -0.0877  0.1642
  267loPI   PO4 4260   3.135  10.491  10.332  0.1754 -0.2876 -0.0793
  267loPI   GL1 4261   3.135  10.409   9.871  0.0344 -0.1766  0.0841
  267loPI   GL2 4262   3.160  10.702   9.879 -0.0795 -0.0770  0.0283
  267loPI   C1A 4263   3.135  10.140   9.564 -0.0082 -0.3053 -0.1412
  267loPI   C2A 4264   3.207  10.160   9.156  0.0206  0.1340  0.2261
  267loPI   C3A 4265   3.271  10.062   8.772 -0.1989  0.1384 -0.1561
  267loPI   C4A 4266   3.307  10.024   8.338 -0.3533 -0.2679 -0.3647
  267loPI   C5A 4267   3.482   9.796   8.051 -0.0416 -0.1656 -0.4233
  267loPI   C6A 4268   3.431   9.726   7.660  0.0755 -0.0925  0.2613
  267loPI   C1B 4269   2.749  10.722   9.653 -0.0755 -0.2317  0.3160
  267loPI   C2B 4270   2.844  10.708   9.239 -0.1028 -0.2366 -0.0664
  267loPI   C3B 4271   2.944  10.430   8.857  0.1445  0.0096 -0.1194
  267loPI   C4B 4272   2.872  10.260   8.445 -0.1206  0.0322  0.1218
  268loPI    C1 4273   6.452  10.814  10.463  0.0920  0.0679  0.0705
  268loPI    C2 4274   6.850  10.777  10.474  0.0765 -0.1360 -0.0189
  268loPI    C3 4275   6.644  10.828  10.813  0.1689 -0.1419  0.0383
  268loPI   PO4 4276   6.335  10.662  10.240 -0.0332 -0.1483  0.0702
  268loPI   GL1 4277   6.631  10.805   9.897  0.3008 -0.2019 -0.3571
  268loPI   GL2 4278   6.876  10.620   9.910  0.0989  0.1415 -0.1761
  268loPI   C1A 4279   6.517  10.967   9.498  0.0228 -0.1888 -0.0183
  268loPI   C2A 4280   6.424  11.112   9.070 -0.1638 -0.1537 -0.2448
  268loPI   C3A 4281   6.463  11.391   8.716  0.1449 -0.1778  0.2419
  268loPI   C4A 4282   6.635  11.369   8.268 -0.1749  0.2238 -0.1007
  268loPI   C5A 4283   6.604  10.959   8.091  0.0778 -0.0734 -0.3070
  268loPI   C6A 4284   6.583  10.878   7.733  0.0569 -0.1187  0.1006
  268loPI   C1B 4285   6.801  10.110   9.756 -0.1658 -0.3191  0.0879
  268loPI   C2B 4286   6.848   9.890   9.430  0.0668 -0.2431  0.0324
  268loPI   C3B 4287   6.958  10.093   9.001 -0.0211 -0.0112 -0.2132
  268loPI   C4B 4288   6.745  10.041   8.568 -0.0996 -0.1727  0.2991
  269loPI    C1 4289   8.093   4.612  11.004 -0.0720 -0.0366  0.0530
  269loPI    C2 4290   8.078   4.955  11.209 -0.2260 -0.1166  0.1775
  269loPI    C3 4291   8.236   4.629  11.378  0.0658 -0.0689  0.0023
  269loPI   PO4 4292   8.098   4.759  10.741  0.0484  0.3391 -0.2618
  269loPI   GL1 4293   8.147   4.718  10.346  0.4392  0.0107  0.1695
  269loPI   GL2 4294   8.309   4.986  10.284  0.0086 -0.0017 -0.1535
  269loPI   C1A 4295   8.167   4.503   9.917 -0.0581  0.1187  0.1414
  269loPI   C2A 4296   8.234   4.513   9.392 -0.0533 -0.1486 -0.4629
  269loPI   C3A 4297   8.183   4.385   8.992  0.0835 -0.0264  0.0015
  269loPI   C4A 4298   8.214   4.071   8.614 -0.1671  0.0363  0.0271
  269loPI   C5A 4299   8.151   3.855   8.261 -0.1828 -0.0427 -0.2791
  269loPI   C6A 4300   8.077   3.414   8.041  0.1105  0.0344  0.3589
  269loPI   C1B 4301   8.165   5.051   9.924  0.2337  0.2467 -0.1897
  269loPI   C2B 4302   8.165   5.023   9.503  0.1769 -0.3070  0.1233
  269loPI   C3B 4303   8.129   4.912   9.159  0.0076 -0.1152 -0.1292
  269loPI   C4B 4304   8.270   5.018   8.865 -0.0183 -0.1878 -0.0905
  270loPI    C1 4305  12.609  11.578  10.504 -0.0554  0.1691 -0.0758
  270loPI    C2 4306  12.697  11.801  10.824  0.1824 -0.2460  0.1575
  270loPI    C3 4307  12.679  11.403  10.857 -0.2451 -0.2690 -0.2485
  270loPI   PO4 4308  12.395  11.604  10.358  0.0179 -0.0319  0.1554
  270loPI   GL1 4309  12.237  11.789   9.905  0.0685 -0.1923 -0.3321
  270loPI   GL2 4310  12.541  11.585   9.795  0.5095  0.4383 -0.1271
  270loPI   C1A 4311  12.196  11.779   9.575  0.0686 -0.4018 -0.0095
  270loPI   C2A 4312  12.273  11.695   9.206  0.0137  0.1068  0.2123
  270loPI   C3A 4313  12.284  11.511   8.749  0.4788 -0.1461  0.0966
  270loPI   C4A 4314  12.156  11.590   8.367  0.1605  0.0773 -0.1328
  270loPI   C5A 4315  11.800  11.568   8.079 -0.1070 -0.0021  0.2800
  270loPI   C6A 4316  11.822  11.476   7.687  0.2088 -0.1122 -0.2033
  270loPI   C1B 4317  12.479  11.313   9.458 -0.2752  0.0217 -0.3101
  270loPI   C2B 4318  12.574  11.305   9.117 -0.0750 -0.0861 -0.1888
  270loPI   C3B 4319  12.636  11.157   8.739 -0.0878 -0.0695 -0.0322
  270loPI   C4B 4320  12.560  11.230   8.304  0.1377 -0.0516 -0.1142
  271loPI    C1 4321   7.940  15.838  10.356 -0.3352 -0.4769  0.2205
  271loPI    C2 4322   8.207  15.844  10.654 -0.0837 -0.1451 -0.0041
  271loPI    C3 4323   7.858  16.034  10.694  0.0786  0.1657 -0.0316
  271loPI   PO4 4324   7.989  15.673  10.171 -0.0473 -0.1300  0.1444
  271loPI   GL1 4325   7.690  15.609   9.746 -0.1761 -0.2157  0.2375
  271loPI   GL2 4326   7.337  15.531   9.614  0.0924  0.2769 -0.0939
  271loPI   C1A 4327   7.932  15.767   9.428  0.2971 -0.3524 -0.1747
  271loPI   C2A 4328   8.044  15.767   9.037 -0.0367  0.0031 -0.0645
  271loPI   C3A 4329   7.935  15.775   8.563 -0.0092 -0.2064  0.3051
  271loPI   C4A 4330   7.940  15.801   8.141 -0.2548 -0.0524 -0.1413
  271loPI   C5A 4331   7.866  16.042   7.748 -0.1086 -0.1599 -0.0945
  271loPI   C6A 4332   7.536  16.420   7.567  0.3605  0.3299 -0.1770
  271loPI   C1B 4333   7.526  15.538   9.146  0.6121 -0.0396  0.2753
  271loPI   C2B 4334   7.345  15.588   8.744 -0.4173 -0.1799 -0.0553
  271loPI   C3B 4335   7.363  15.523   8.388  0.1232  0.2289 -0.2642
  271loPI   C4B 4336   7.448  15.651   7.942 -0.0385 -0.1693 -0.4062
  272loPI    C1 4337  12.332   0.348  10.409 -0.0264 -0.2183  0.2211
  272loPI    C2 4338  12.304   0.426  10.800 -0.2490 -0.2100  0.2050
  272loPI    C3 4339  11.987   0.478  10.563  0.0001  0.1955 -0.0527
  272loPI   PO4 4340  12.517   0.145  10.407  0.1275 -0.3174 -0.0268
  272loPI   GL1 4341  12.596   0.198   9.990  0.2120 -0.0921  0.0692
  272loPI   GL2 4342  12.932   0.269  10.049 -0.1810  0.0289  0.1959
  272loPI   C1A 4343  12.507   0.054   9.626 -0.0808  0.1200  0.2639
  272loPI   C2A 4344  12.451  -0.225   9.353  0.1422  0.0338  0.2780
  272loPI   C3A 4345  12.474  -0.138   8.948 -0.0217  0.1222 -0.1333
  272loPI   C4A 4346  12.469  -0.118   8.506  0.0327 -0.1489 -0.0929
  272loPI   C5A 4347  12.436  -0.196   8.168 -0.0800  0.1557  0.0024
  272loPI   C6A 4348  12.459  -0.656   8.136 -0.0767 -0.1616  0.2097
  272loPI   C1B 4349  13.186   0.333   9.735  0.0828  0.3665 -0.1795
  272loPI   C2B 4350  13.151   0.451   9.371  0.2370 -0.3178  0.1089
  272loPI   C3B 4351  13.078   0.567   8.878  0.1580 -0.1288  0.0282
  272loPI   C4B 4352  13.057   0.750   8.437  0.0413  0.0899 -0.0499
  273loPI    C1 4353   8.931   0.725  10.477 -0.0574  0.0731 -0.1299
  273loPI    C2 4354   8.535   0.758  10.523 -0.0416  0.1894 -0.0711
  273loPI    C3 4355   8.771   1.075  10.587  0.0573  0.1323 -0.1485
  273loPI   PO4 4356   8.921   0.655  10.163 -0.2863 -0.0543 -0.3409
  273loPI   GL1 4357   8.661   0.685   9.910 -0.1573 -0.5177 -0.0448
  273loPI   GL2 4358   8.819   0.882   9.702  0.3877 -0.2054  0.0996
  273loPI   C1A 4359   8.348   0.753   9.632  0.1768 -0.0558  0.3003
  273loPI   C2A 4360   8.259   0.590   9.265  0.2689 -0.2427 -0.0095
  273loPI   C3A 4361   8.267   0.567   8.921 -0.0752  0.1210  0.3475
  273loPI   C4A 4362   8.072   0.426   8.470  0.1119  0.2271  0.0961
  273loPI   C5A 4363   8.049   0.336   8.091  0.1903 -0.0309 -0.0513
  273loPI   C6A 4364   8.011   0.038   7.943 -0.0442 -0.0987  0.3455
  273loPI   C1B 4365   8.739   0.855   9.297 -0.0220  0.2295  0.0370
  273loPI   C2B 4366   8.678   0.867   8.871 -0.2159 -0.2023  0.0281
  273loPI   C3B 4367   8.403   0.801   8.546 -0.1317  0.4456  0.0169
  273loPI   C4B 4368   8.341   0.797   8.090 -0.1429 -0.1494  0.1038
  274loPI    C1 4369  13.746   8.512  10.982 -0.4227 -0.0413  0.0401
  274loPI    C2 4370  13.667   8.654  11.347 -0.4612  0.0463 -0.0019
  274loPI    C3 4371  13.744   8.907  11.047  0.1355 -0.0358  0.0708
  274loPI   PO4 4372  13.484   8.349  11.001  0.0115  0.0344 -0.3264
  274loPI   GL1 4373  13.560   8.198  10.594 -0.2201 -0.2588  0.1528
  274loPI   GL2 4374  13.859   8.213  10.374  0.0950 -0.3097 -0.6130
  274loPI   C1A 4375  13.400   8.228  10.162  0.2418  0.1557  0.1200
  274loPI   C2A 4376  13.319   8.380   9.717  0.1047 -0.1541 -0.1664
  274loPI   C3A 4377  13.333   8.381   9.268  0.2337 -0.2417 -0.3170
  274loPI   C4A 4378  13.602   8.247   8.921  0.1126  0.0258 -0.2388
  274loPI   C5A 4379  13.963   7.958   8.724 -0.3756  0.2498 -0.1609
  274loPI   C6A 4380  14.406   8.051   8.792 -0.2706 -0.3326 -0.0943
  274loPI   C1B 4381  13.977   8.349   9.891  0.0525 -0.5585  0.5311
  274loPI   C2B 4382  13.865   8.380   9.525  0.2890 -0.1138  0.0251
  274loPI   C3B 4383  13.854   8.662   9.206  0.0765 -0.4024 -0.1857
  274loPI   C4B 4384  13.799   8.656   8.728  0.0427 -0.1576 -0.1165
  275loPI    C1 4385   6.068   6.227  10.600 -0.0848  0.0403 -0.2113
  275loPI    C2 4386   5.889   6.428  10.896  0.1413  0.0998 -0.1125
  275loPI    C3 4387   5.685   6.155  10.686 -0.0313  0.0846  0.0730
  275loPI   PO4 4388   6.130   6.416  10.401 -0.3699  0.1064 -0.1969
  275loPI   GL1 4389   5.725   6.399   9.989 -0.2007  0.2314 -0.0867
  275loPI   GL2 4390   5.847   6.048  10.172  0.3298 -0.2831  0.0573
  275loPI   C1A 4391   5.757   6.302   9.482 -0.3108 -0.3475  0.1670
  275loPI   C2A 4392   5.740   6.256   9.131  0.2826 -0.2842 -0.0962
  275loPI   C3A 4393   5.894   6.339   8.779 -0.1774  0.0957  0.2658
  275loPI   C4A 4394   6.161   6.209   8.522 -0.1300  0.2533  0.0464
  275loPI   C5A 4395   6.475   6.250   8.275  0.0549 -0.1235 -0.0597
  275loPI   C6A 4396   6.739   6.336   7.982 -0.1144  0.0448 -0.2463
  275loPI   C1B 4397   5.875   5.857   9.735 -0.1861  0.0852 -0.0076
  275loPI   C2B 4398   5.884   5.736   9.279 -0.0928 -0.1636  0.4791
  275loPI   C3B 4399   6.067   5.810   8.943 -0.2336 -0.0296  0.0541
  275loPI   C4B 4400   6.230   5.669   8.593  0.0055 -0.0361  0.2003
  276loPI    C1 4401   2.059   4.732  10.097  0.1257  0.0135 -0.0076
  276loPI    C2 4402   1.792   4.998  10.229 -0.1216 -0.1445 -0.1805
  276loPI    C3 4403   2.039   4.818  10.487 -0.0890  0.1008 -0.0370
  276loPI   PO4 4404   2.163   4.830   9.842  0.2346 -0.0469  0.1930
  276loPI   GL1 4405   1.971   4.868   9.566 -0.1600  0.2579 -0.1934
  276loPI   GL2 4406   1.792   4.582   9.454 -0.2423 -0.1714 -0.3418
  276loPI   C1A 4407   1.749   5.067   9.216  0.0534 -0.2577  0.2300
  276loPI   C2A 4408   1.877   5.348   8.859  0.3443  0.2002  0.1819
  276loPI   C3A 4409   1.849   5.430   8.331 -0.2302 -0.3965  0.1838
  276loPI   C4A 4410   1.656   5.621   8.046 -0.2295 -0.2496  0.0646
  276loPI   C5A 4411   1.374   6.029   8.120  0.1781 -0.1253 -0.0065
  276loPI   C6A 4412   0.984   6.117   7.881  0.0663 -0.1471  0.1022
  276loPI   C1B 4413   1.658   4.534   9.158 -0.1175  0.0189  0.2089
  276loPI   C2B 4414   1.532   4.300   8.712 -0.3873  0.1513 -0.2269
  276loPI   C3B 4415   1.388   4.440   8.268 -0.3394  0.3184 -0.2480
  276loPI   C4B 4416   1.480   4.602   7.885 -0.0716 -0.0937  0.0045
  277loPI    C1 4417   5.791   9.220  10.516  0.1223  0.2956  0.1984
  277loPI    C2 4418   5.478   9.336  10.737  0.1760  0.0053  0.4327
  277loPI    C3 4419   5.743   9.076  10.886  0.1370 -0.3067 -0.0245
  277loPI   PO4 4420   5.733   9.294  10.264  0.2006 -0.2922  0.0705
  277loPI   GL1 4421   5.828   9.220   9.772  0.1715  0.4032 -0.0744
  277loPI   GL2 4422   5.945   9.398   9.735  0.1736 -0.2556 -0.1680
  277loPI   C1A 4423   6.211   9.066   9.558 -0.0009  0.0564 -0.0313
  277loPI   C2A 4424   6.297   9.064   9.125 -0.3113  0.0261 -0.0268
  277loPI   C3A 4425   6.529   8.921   8.674 -0.3177 -0.1539  0.0196
  277loPI   C4A 4426   6.825   8.745   8.301 -0.1209  0.0478  0.0769
  277loPI   C5A 4427   7.018   8.469   8.124 -0.3438 -0.0298 -0.1352
  277loPI   C6A 4428   7.183   7.971   8.104  0.1382  0.1718 -0.1326
  277loPI   C1B 4429   5.819   9.319   9.312 -0.0644  0.0006 -0.0483
  277loPI   C2B 4430   5.663   9.375   8.846  0.3194 -0.0029 -0.0166
  277loPI   C3B 4431   5.676   9.131   8.575  0.1307 -0.3588  0.0849
  277loPI   C4B 4432   5.611   8.790   8.351  0.0308  0.0789  0.0783
  278loPI    C1 4433   9.029   2.867  10.618 -0.0394  0.0475  0.1080
  278loPI    C2 4434   9.139   2.707  10.968  0.1968 -0.0077  0.0101
  278loPI    C3 4435   8.756   2.802  10.903  0.1475 -0.0196  0.2738
  278loPI   PO4 4436   9.118   2.904  10.502  0.0732 -0.0842  0.0848
  278loPI   GL1 4437   9.237   2.937  10.068 -0.0675 -0.0594  0.0694
  278loPI   GL2 4438   9.291   2.578   9.931  0.1114 -0.1403 -0.0168
  278loPI   C1A 4439   9.235   3.120   9.733  0.0931  0.0884  0.1755
  278loPI   C2A 4440   9.243   3.252   9.287  0.0563  0.0253  0.2300
  278loPI   C3A 4441   9.166   3.334   8.796 -0.1975  0.0707  0.0052
  278loPI   C4A 4442   9.349   3.372   8.394 -0.0187  0.1409 -0.0891
  278loPI   C5A 4443   9.503   3.164   8.024 -0.0892 -0.1028 -0.2443
  278loPI   C6A 4444   9.864   3.088   7.955 -0.0261 -0.1134  0.1797
  278loPI   C1B 4445   9.069   2.678   9.544 -0.0555 -0.3631 -0.0828
  278loPI   C2B 4446   9.265   2.732   9.213 -0.0999 -0.0062  0.1001
  278loPI   C3B 4447   9.529   2.757   8.836  0.0812  0.0612  0.2630
  278loPI   C4B 4448   9.830   2.500   8.667  0.2637  0.0494 -0.0156
  279loPI    C1 4449  18.047  12.880  10.153 -0.2791 -0.1275  0.2218
  279loPI    C2 4450  18.351  12.779  10.393 -0.0820 -0.2913 -0.0903
  279loPI    C3 4451  18.138  13.109  10.469  0.0118 -0.3097  0.2739
  279loPI   PO4 4452  18.118  12.805   9.920  0.0774 -0.1862  0.0735
  279loPI   GL1 4453  18.196  12.739   9.541  0.0768 -0.2253  0.1407
  279loPI   GL2 4454  18.209  12.395   9.496 -0.1452  0.0104 -0.1245
  279loPI   C1A 4455  17.897  12.922   9.285  0.3739  0.0962 -0.0248
  279loPI   C2A 4456  17.793  12.689   8.826 -0.1799 -0.3916  0.0235
  279loPI   C3A 4457  17.859  12.747   8.396 -0.1704 -0.1199 -0.2241
  279loPI   C4A 4458  17.796  12.688   7.993  0.1639 -0.3998  0.0244
  279loPI   C5A 4459  17.460  12.800   7.660 -0.0309  0.2687 -0.0894
  279loPI   C6A 4460  17.108  13.023   7.422  0.2606 -0.3042 -0.2179
  279loPI   C1B 4461  18.093  12.514   9.164 -0.1466  0.1718  0.2483
  279loPI   C2B 4462  18.192  12.401   8.765 -0.2138  0.1467 -0.0307
  279loPI   C3B 4463  17.974  12.283   8.421  0.2733 -0.4620 -0.1262
  279loPI   C4B 4464  18.059  12.250   8.023  0.0450 -0.0574 -0.0515
  280loPI    C1 4465  15.182   6.005  10.628  0.0601  0.1763 -0.0083
  280loPI    C2 4466  15.134   5.787  10.960  0.0908 -0.1086 -0.1882
  280loPI    C3 4467  14.985   6.158  10.941  0.0951 -0.0875  0.1447
  280loPI   PO4 4468  15.112   5.865  10.398  0.4080  0.2056  0.1381
  280loPI   GL1 4469  15.294   5.858  10.052 -0.0194  0.1233 -0.1032
  280loPI   GL2 4470  15.399   5.547  10.057 -0.0875 -0.1952 -0.0817
  280loPI   C1A 4471  15.402   5.741   9.590 -0.1775  0.1196  0.0522
  280loPI   C2A 4472  15.414   5.905   9.189  0.3108 -0.0590 -0.0393
  280loPI   C3A 4473  15.218   5.839   8.864 -0.1345 -0.0799  0.2227
  280loPI   C4A 4474  15.381   5.659   8.526  0.2840  0.1974  0.1149
  280loPI   C5A 4475  15.365   5.198   8.356 -0.2729  0.1210 -0.0435
  280loPI   C6A 4476  15.594   4.929   8.280  0.2471 -0.1360  0.1813
  280loPI   C1B 4477  15.262   5.233   9.650  0.0275  0.3154  0.2241
  280loPI   C2B 4478  15.308   5.202   9.309  0.0075  0.2261  0.0392
  280loPI   C3B 4479  15.396   4.881   9.083 -0.0475 -0.1054  0.0170
  280loPI   C4B 4480  15.416   4.826   8.698  0.1400  0.0168  0.2719
  281loPI    C1 4481   0.999   0.744   9.627  0.2640 -0.1850  0.1894
  281loPI    C2 4482   1.320   0.770   9.866  0.2722 -0.1245  0.1719
  281loPI    C3 4483   1.041   0.491   9.935  0.2388 -0.0610  0.2952
  281loPI   PO4 4484   1.091   0.709   9.412  0.0078  0.0001 -0.1104
  281loPI   GL1 4485   0.892   0.918   9.084 -0.0434  0.1116 -0.0280
  281loPI   GL2 4486   0.607   1.080   8.973 -0.1314  0.2565  0.0639
  281loPI   C1A 4487   0.685   0.557   8.759  0.1446 -0.2326 -0.0583
  281loPI   C2A 4488   0.663   0.552   8.252  0.0143 -0.2197  0.2920
  281loPI   C3A 4489   0.303   0.467   7.922 -0.0931  0.0078 -0.2127
  281loPI   C4A 4490   0.028   0.450   7.615 -0.1096  0.1600 -0.0004
  281loPI   C5A 4491  -0.346   0.630   7.497  0.0412 -0.2250 -0.2541
  281loPI   C6A 4492  -0.701   0.499   7.294 -0.0040 -0.0098  0.3830
  281loPI   C1B 4493   0.888   1.031   8.587  0.2627 -0.1519  0.1865
  281loPI   C2B 4494   0.980   0.945   8.188 -0.0337  0.1647 -0.1774
  281loPI   C3B 4495   0.909   1.041   7.685 -0.1239  0.2179 -0.1120
  281loPI   C4B 4496   1.007   1.275   7.342 -0.3013 -0.0538 -0.2370
  282loPI    C1 4497   1.816   3.196   9.822 -0.0279 -0.2467  0.2251
  282loPI    C2 4498   1.599   3.029  10.113 -0.2214 -0.2361  0.0887
  282loPI    C3 4499   1.970   3.159  10.190 -0.2850 -0.1967  0.3396
  282loPI   PO4 4500   1.608   3.048   9.612  0.0312 -0.0774 -0.1434
  282loPI   GL1 4501   1.669   3.004   9.163 -0.3836  0.1797 -0.3835
  282loPI   GL2 4502   1.859   3.106   8.977 -0.1233 -0.1170  0.2834
  282loPI   C1A 4503   1.352   2.923   8.846 -0.5510 -0.0045 -0.0696
  282loPI   C2A 4504   1.046   2.920   8.561 -0.1233  0.2334 -0.1008
  282loPI   C3A 4505   0.876   2.912   8.224 -0.0512  0.2456 -0.0168
  282loPI   C4A 4506   0.919   3.290   7.995  0.1509  0.0992  0.1838
  282loPI   C5A 4507   1.214   3.549   7.900 -0.0453 -0.2443 -0.0996
  282loPI   C6A 4508   1.632   3.682   7.835 -0.1519  0.0830  0.0958
  282loPI   C1B 4509   1.892   3.154   8.552  0.1882 -0.0101  0.2068
  282loPI   C2B 4510   1.992   3.285   8.139  0.1061  0.2237  0.0844
  282loPI   C3B 4511   2.069   3.105   7.807  0.1520 -0.0351 -0.1509
  282loPI   C4B 4512   1.803   3.266   7.528 -0.2587 -0.1402 -0.0244
  283loPI    C1 4513  15.097  14.688  10.150  0.0357  0.0324 -0.2097
  283loPI    C2 4514  14.812  14.708  10.430  0.2905  0.0637  0.0521
  283loPI    C3 4515  14.957  14.353  10.317  0.2540  0.0565  0.0277
  283loPI   PO4 4516  14.949  14.846   9.964  0.0436 -0.0447  0.0966
  283loPI   GL1 4517  15.177  14.824   9.583 -0.0306 -0.3944 -0.1745
  283loPI   GL2 4518  15.094  15.053   9.452  0.0257  0.0993  0.1702
  283loPI   C1A 4519  14.995  14.512   9.273  0.3094 -0.1309 -0.3809
  283loPI   C2A 4520  15.128  14.424   8.810 -0.1091 -0.2732 -0.1393
  283loPI   C3A 4521  15.244  14.511   8.353  0.3389  0.2327  0.1189
  283loPI   C4A 4522  15.391  14.385   7.994  0.1716 -0.0622 -0.0408
  283loPI   C5A 4523  15.715  14.279   7.653  0.2012  0.3305  0.1074
  283loPI   C6A 4524  16.179  14.177   7.588 -0.2050 -0.0871 -0.1620
  283loPI   C1B 4525  14.946  14.916   9.058 -0.1364  0.1016  0.1298
  283loPI   C2B 4526  14.881  14.874   8.731 -0.0505 -0.1423  0.1223
  283loPI   C3B 4527  15.209  14.982   8.413  0.2464 -0.1099 -0.0619
  283loPI   C4B 4528  15.203  14.862   7.953  0.1805  0.0305  0.1203
  284loPI    C1 4529  10.200  14.191  10.110  0.2197  0.0008  0.1873
  284loPI    C2 4530   9.972  13.863  10.080  0.2048  0.0230  0.0520
  284loPI    C3 4531  10.000  14.056  10.429  0.0164  0.0199  0.0698
  284loPI   PO4 4532  10.102  14.264   9.842 -0.1315 -0.0929  0.1926
  284loPI   GL1 4533   9.987  14.293   9.431 -0.0791  0.0687  0.0540
  284loPI   GL2 4534   9.822  14.066   9.394  0.1194 -0.1251 -0.1469
  284loPI   C1A 4535  10.104  14.426   8.945 -0.3042 -0.1149  0.3156
  284loPI   C2A 4536   9.840  14.552   8.587  0.1685  0.3020 -0.2500
  284loPI   C3A 4537   9.674  14.423   8.100  0.1118 -0.2706 -0.0427
  284loPI   C4A 4538   9.639  14.452   7.663 -0.1308 -0.1086 -0.0926
  284loPI   C5A 4539   9.502  14.434   7.271  0.1913 -0.6128 -0.1076
  284loPI   C6A 4540   9.236  14.228   6.940  0.2708  0.1180 -0.3332
  284loPI   C1B 4541   9.755  14.091   8.929 -0.2215  0.1566 -0.1708
  284loPI   C2B 4542   9.850  14.033   8.510 -0.0648 -0.0523 -0.0484
  284loPI   C3B 4543   9.607  13.927   8.087  0.2874  0.0276  0.0309
  284loPI   C4B 4544   9.690  13.740   7.716  0.1082  0.0158  0.3378
  285loPI    C1 4545   1.922  11.854  10.399  0.1330 -0.0440  0.0940
  285loPI    C2 4546   1.975  12.066  10.734  0.0527  0.2079 -0.0500
  285loPI    C3 4547   1.889  11.676  10.755 -0.0982  0.2539  0.2257
  285loPI   PO4 4548   2.153  11.978  10.208 -0.2918  0.0368 -0.3328
  285loPI   GL1 4549   2.332  11.794   9.765 -0.1127 -0.0228 -0.2749
  285loPI   GL2 4550   2.072  12.025   9.709  0.2897 -0.2300  0.0583
  285loPI   C1A 4551   2.098  11.446   9.615 -0.0444  0.2189  0.0798
  285loPI   C2A 4552   1.573  11.340   9.447 -0.1530 -0.0997 -0.2943
  285loPI   C3A 4553   1.173  11.171   9.256  0.0504 -0.2047  0.3379
  285loPI   C4A 4554   1.231  11.067   8.791 -0.2943  0.2991  0.0779
  285loPI   C5A 4555   1.551  10.949   8.480 -0.1491 -0.1685  0.1098
  285loPI   C6A 4556   1.838  10.972   8.151 -0.0600  0.3031 -0.0037
  285loPI   C1B 4557   2.101  11.895   9.313 -0.1689 -0.0717 -0.1350
  285loPI   C2B 4558   1.950  11.525   9.078  0.1328 -0.1653  0.2443
  285loPI   C3B 4559   1.796  11.165   8.870 -0.3617  0.0132  0.0051
  285loPI   C4B 4560   1.683  10.927   9.100  0.0195  0.3080 -0.2294
  286loPI    C1 4561  11.143  13.042  10.293  0.1539  0.0308 -0.1980
  286loPI    C2 4562  11.446  12.985  10.549 -0.1002 -0.1566  0.0676
  286loPI    C3 4563  11.075  13.041  10.687 -0.1973  0.0269 -0.2559
  286loPI   PO4 4564  11.201  13.234  10.141  0.1309  0.0480  0.0973
  286loPI   GL1 4565  11.345  13.339   9.748  0.3907 -0.0516 -0.1441
  286loPI   GL2 4566  11.639  13.268   9.631  0.1929 -0.1417 -0.1583
  286loPI   C1A 4567  11.246  13.376   9.396  0.0886 -0.2738  0.2866
  286loPI   C2A 4568  11.122  13.266   8.977 -0.2819 -0.1415  0.1418
  286loPI   C3A 4569  11.187  13.291   8.558  0.1432 -0.2662 -0.1687
  286loPI   C4A 4570  11.251  13.307   8.119  0.0564  0.0256  0.1790
  286loPI   C5A 4571  11.092  13.593   7.790  0.1527 -0.0077  0.1198
  286loPI   C6A 4572  10.920  13.908   7.492  0.0385 -0.1895  0.2068
  286loPI   C1B 4573  11.464  12.888   9.412  0.0196  0.0306  0.1847
  286loPI   C2B 4574  11.348  12.793   8.954  0.2683 -0.1159 -0.0847
  286loPI   C3B 4575  11.351  12.732   8.564 -0.2003 -0.1021 -0.2499
  286loPI   C4B 4576  11.485  12.561   8.187  0.0488 -0.0033  0.0968
  287loPI    C1 4577   9.685   2.019  10.491  0.0201  0.1636  0.0430
  287loPI    C2 4578   9.992   1.914  10.724 -0.0197  0.1063  0.0702
  287loPI    C3 4579   9.758   2.221  10.828 -0.1622 -0.0496  0.2131
  287loPI   PO4 4580   9.628   1.823  10.382 -0.5445  0.1300 -0.0463
  287loPI   GL1 4581   9.884   1.635  10.052 -0.4301 -0.0573 -0.0441
  287loPI   GL2 4582   9.677   1.617   9.902 -0.1345  0.1253  0.2071
  287loPI   C1A 4583  10.141   1.718   9.729  0.3052 -0.1870 -0.1578
  287loPI   C2A 4584  10.175   1.856   9.281 -0.1389 -0.0778 -0.0465
  287loPI   C3A 4585  10.496   1.818   8.981  0.1711 -0.0561 -0.0121
  287loPI   C4A 4586  10.860   1.788   8.624 -0.1243  0.3102  0.1011
  287loPI   C5A 4587  10.989   1.712   8.291 -0.0399  0.0387  0.2316
  287loPI   C6A 4588  11.082   1.553   7.827  0.0115  0.1449 -0.1210
  287loPI   C1B 4589   9.735   1.553   9.430  0.1103  0.0103  0.1304
  287loPI   C2B 4590   9.782   1.675   9.045  0.0089  0.4224 -0.0620
  287loPI   C3B 4591  10.057   1.951   8.723  0.2745 -0.0429  0.1184
  287loPI   C4B 4592  10.049   2.248   8.344 -0.0094 -0.0631 -0.0643
  288loPI    C1 4593  17.342  17.841  10.050  0.0290  0.1790 -0.0197
  288loPI    C2 4594  17.597  17.540  10.119 -0.0796  0.1164  0.1135
  288loPI    C3 4595  17.509  17.800  10.411  0.0905  0.3384 -0.0293
  288loPI   PO4 4596  17.413  17.905   9.748 -0.2069 -0.0336 -0.1673
  288loPI   GL1 4597  17.442  17.857   9.282  0.0184 -0.0880 -0.2594
  288loPI   GL2 4598  17.705  17.801   9.268  0.1662 -0.2144  0.2204
  288loPI   C1A 4599  17.312  18.078   8.839 -0.1323 -0.0123 -0.0252
  288loPI   C2A 4600  17.256  18.070   8.452 -0.1897 -0.1667 -0.1320
  288loPI   C3A 4601  17.283  17.910   7.986 -0.2267 -0.2015 -0.1701
  288loPI   C4A 4602  17.015  17.999   7.602 -0.1259 -0.1638 -0.1977
  288loPI   C5A 4603  16.688  18.062   7.369  0.0069 -0.2628 -0.2283
  288loPI   C6A 4604  16.582  18.125   6.886 -0.2280 -0.1790 -0.0491
  288loPI   C1B 4605  17.814  17.520   8.837  0.1202  0.0269  0.0988
  288loPI   C2B 4606  17.850  17.351   8.442  0.4195 -0.1732  0.2633
  288loPI   C3B 4607  17.697  17.455   8.037  0.0173  0.0003  0.1102
  288loPI   C4B 4608  17.710  17.625   7.621 -0.2444 -0.1652  0.3090
  289loPI    C1 4609   2.747   5.863  10.660  0.0466 -0.1625 -0.0083
  289loPI    C2 4610   2.767   6.251  10.752 -0.0741 -0.1378 -0.0842
  289loPI    C3 4611   3.016   5.991  10.927 -0.2525 -0.0823  0.2616
  289loPI   PO4 4612   2.876   5.873  10.366  0.1869 -0.3479  0.0386
  289loPI   GL1 4613   2.706   6.136   9.881 -0.0030  0.1410 -0.1903
  289loPI   GL2 4614   3.011   5.997   9.874 -0.0278 -0.2346 -0.0006
  289loPI   C1A 4615   2.653   6.381   9.536  0.0549  0.1188  0.3763
  289loPI   C2A 4616   2.827   6.476   9.078  0.1275  0.3937  0.0448
  289loPI   C3A 4617   2.766   6.669   8.636  0.3110 -0.0069  0.3788
  289loPI   C4A 4618   2.635   6.783   8.204 -0.5574  0.2310 -0.2715
  289loPI   C5A 4619   2.668   7.179   7.884  0.2398 -0.0225 -0.1986
  289loPI   C6A 4620   2.613   7.242   7.432  0.0110 -0.1558 -0.1754
  289loPI   C1B 4621   3.138   6.271   9.518  0.0437 -0.2954  0.2407
  289loPI   C2B 4622   3.306   6.420   9.166 -0.3727 -0.1893 -0.0549
  289loPI   C3B 4623   3.486   6.396   8.734  0.0498 -0.2091  0.0139
  289loPI   C4B 4624   3.553   6.487   8.287  0.0922  0.3030  0.2568
  290loPI    C1 4625  16.132  10.566  10.657  0.0212 -0.0911  0.2367
  290loPI    C2 4626  16.185  10.173  10.601  0.1106 -0.0586  0.0860
  290loPI    C3 4627  15.913  10.303  10.864  0.1902 -0.2219  0.2512
  290loPI   PO4 4628  16.144  10.673  10.431  0.0187  0.0729 -0.0490
  290loPI   GL1 4629  16.346  10.726  10.018  0.0690  0.1210  0.0946
  290loPI   GL2 4630  16.055  10.832   9.866  0.0123 -0.2006 -0.0590
  290loPI   C1A 4631  16.474  11.094   9.788 -0.1991  0.2598 -0.0768
  290loPI   C2A 4632  16.139  11.182   9.517  0.1378 -0.0672  0.0292
  290loPI   C3A 4633  16.056  11.368   9.100  0.0244  0.1138 -0.0698
  290loPI   C4A 4634  16.039  11.361   8.564 -0.2813 -0.0911  0.0546
  290loPI   C5A 4635  16.033  11.101   8.300 -0.0099 -0.0657  0.1050
  290loPI   C6A 4636  15.739  10.746   8.175 -0.5291  0.0502 -0.1256
  290loPI   C1B 4637  15.662  11.214   9.717 -0.1450  0.0622 -0.1123
  290loPI   C2B 4638  15.590  11.443   9.361 -0.2760 -0.0923  0.2737
  290loPI   C3B 4639  15.598  11.526   8.897 -0.0381 -0.4307 -0.1883
  290loPI   C4B 4640  15.573  11.417   8.407 -0.0196 -0.2027  0.0136
  291loPI    C1 4641   4.433   6.529  10.558 -0.0025  0.0239 -0.0111
  291loPI    C2 4642   4.469   6.136  10.621 -0.1373  0.0563  0.2841
  291loPI    C3 4643   4.776   6.380  10.702  0.0790 -0.0247 -0.2509
  291loPI   PO4 4644   4.440   6.541  10.247  0.2073 -0.2886  0.1775
  291loPI   GL1 4645   4.285   6.690   9.842  0.1593 -0.2407 -0.0056
  291loPI   GL2 4646   4.119   6.401   9.890 -0.0692  0.0161 -0.0093
  291loPI   C1A 4647   4.209   6.775   9.423 -0.0966 -0.1002 -0.3191
  291loPI   C2A 4648   4.277   6.850   9.003 -0.1108 -0.1952 -0.1437
  291loPI   C3A 4649   4.224   7.138   8.687 -0.1312  0.0216 -0.0150
  291loPI   C4A 4650   3.982   7.313   8.324 -0.2539  0.0753 -0.0385
  291loPI   C5A 4651   3.780   7.599   8.068 -0.0319 -0.1510  0.0114
  291loPI   C6A 4652   3.565   7.488   7.735  0.2200  0.0107  0.0852
  291loPI   C1B 4653   4.208   6.203   9.418  0.3262 -0.2186  0.0338
  291loPI   C2B 4654   4.293   6.281   8.948 -0.1220 -0.1483 -0.1081
  291loPI   C3B 4655   4.495   6.295   8.590  0.2000  0.0524 -0.1594
  291loPI   C4B 4656   4.625   6.064   8.195  0.1475 -0.0401  0.0377
  292loPI    C1 4657  13.159  12.405  10.161 -0.0640 -0.2357  0.2433
  292loPI    C2 4658  12.801  12.507  10.014  0.0784  0.0076  0.0562
  292loPI    C3 4659  12.874  12.539  10.406 -0.0702  0.0580  0.0802
  292loPI   PO4 4660  13.143  12.181  10.020  0.0805 -0.0325  0.2697
  292loPI   GL1 4661  13.057  12.064   9.619  0.3522 -0.0968 -0.2424
  292loPI   GL2 4662  12.719  12.152   9.696  0.0617 -0.0640  0.1126
  292loPI   C1A 4663  13.197  12.048   9.195  0.1767  0.0477 -0.0498
  292loPI   C2A 4664  13.215  11.976   8.734 -0.1636  0.2114  0.2411
  292loPI   C3A 4665  13.264  11.876   8.356  0.0394 -0.0128  0.3309
  292loPI   C4A 4666  13.490  11.630   8.119 -0.2968  0.1613 -0.0229
  292loPI   C5A 4667  13.273  11.361   7.891  0.2591  0.1876  0.0210
  292loPI   C6A 4668  12.946  11.040   7.884 -0.1550 -0.0732  0.1754
  292loPI   C1B 4669  12.578  12.141   9.344  0.1802 -0.0627  0.1895
  292loPI   C2B 4670  12.576  12.010   8.835  0.0150 -0.0476 -0.3171
  292loPI   C3B 4671  12.591  11.773   8.415  0.2084  0.2301 -0.1013
  292loPI   C4B 4672  12.538  11.933   7.997 -0.0025  0.0791  0.1873
  293loPI    C1 4673   0.022   3.570  10.273 -0.1367 -0.0365 -0.0340
  293loPI    C2 4674   0.191   3.822  10.533 -0.0718  0.0220 -0.1323
  293loPI    C3 4675   0.420   3.597  10.294 -0.1311 -0.0318 -0.1388
  293loPI   PO4 4676  -0.089   3.688  10.048  0.1892  0.0945 -0.1466
  293loPI   GL1 4677  -0.294   3.394   9.781 -0.0679 -0.0610 -0.0282
  293loPI   GL2 4678  -0.633   3.351   9.756  0.0187  0.2707 -0.2221
  293loPI   C1A 4679  -0.283   3.407   9.381 -0.1736  0.2389  0.2273
  293loPI   C2A 4680  -0.466   3.532   8.961 -0.1162 -0.0703 -0.3814
  293loPI   C3A 4681  -0.436   3.536   8.523 -0.1558 -0.0619 -0.3845
  293loPI   C4A 4682  -0.752   3.532   8.180 -0.1031 -0.0952 -0.3375
  293loPI   C5A 4683  -1.171   3.479   8.117 -0.2106  0.1360  0.0177
  293loPI   C6A 4684  -1.466   3.241   8.092  0.0952 -0.3006 -0.2047
  293loPI   C1B 4685  -0.875   3.525   9.351 -0.0513  0.1198  0.1306
  293loPI   C2B 4686  -0.995   3.506   8.929 -0.0866 -0.3300  0.1476
  293loPI   C3B 4687  -1.266   3.742   8.591  0.2544  0.0624 -0.2606
  293loPI   C4B 4688  -1.518   4.197   8.559 -0.0718  0.1337 -0.2770
  294loPI    C1 4689   3.969   2.449  10.026 -0.1107  0.2703 -0.0259
  294loPI    C2 4690   3.999   2.124  10.257 -0.0716 -0.0004 -0.4036
  294loPI    C3 4691   3.912   2.478  10.421  0.0086 -0.1751  0.0293
  294loPI   PO4 4692   4.162   2.413   9.804  0.1069 -0.0204 -0.5142
  294loPI   GL1 4693   4.211   2.260   9.417  0.0547  0.0599 -0.3682
  294loPI   GL2 4694   4.178   2.571   9.210 -0.0215 -0.0410  0.2582
  294loPI   C1A 4695   4.157   2.038   9.002 -0.0838 -0.0587  0.2676
  294loPI   C2A 4696   4.094   1.815   8.541 -0.2375 -0.0280 -0.1676
  294loPI   C3A 4697   4.074   1.861   8.133  0.0389 -0.1709  0.0798
  294loPI   C4A 4698   3.766   1.896   7.830 -0.1989  0.0706 -0.2580
  294loPI   C5A 4699   3.975   1.876   7.353  0.4958  0.3422 -0.0238
  294loPI   C6A 4700   4.071   1.809   7.007  0.1210 -0.1278  0.0504
  294loPI   C1B 4701   4.161   2.472   8.743 -0.0474  0.0569  0.1966
  294loPI   C2B 4702   4.206   2.297   8.257 -0.0625 -0.0631 -0.0323
  294loPI   C3B 4703   4.232   2.143   7.759  0.1672  0.1005  0.1880
  294loPI   C4B 4704   4.361   2.174   7.338  0.0321  0.0864  0.0058
  295loPI    C1 4705   5.943  12.729  10.409  0.0853 -0.1118  0.1981
  295loPI    C2 4706   5.901  13.111  10.299 -0.2493 -0.2275 -0.0945
  295loPI    C3 4707   5.797  12.997  10.668  0.2892  0.0449  0.1541
  295loPI   PO4 4708   6.061  12.669  10.155  0.0870  0.1137  0.0219
  295loPI   GL1 4709   6.313  12.760   9.782  0.0423  0.0327  0.0800
  295loPI   GL2 4710   6.187  12.450   9.612  0.0485  0.1672  0.2220
  295loPI   C1A 4711   6.652  12.560   9.660 -0.3207 -0.3253  0.2088
  295loPI   C2A 4712   6.954  12.580   9.369  0.2001  0.0751 -0.0613
  295loPI   C3A 4713   7.133  12.306   9.073  0.1409 -0.2726 -0.2230
  295loPI   C4A 4714   7.255  12.249   8.754 -0.0134 -0.4123 -0.1550
  295loPI   C5A 4715   6.987  12.265   8.288 -0.0765  0.2319  0.0829
  295loPI   C6A 4716   6.718  12.186   7.836 -0.3882 -0.1831  0.0186
  295loPI   C1B 4717   6.450  12.540   9.214  0.0208  0.1500  0.1231
  295loPI   C2B 4718   6.711  12.614   8.943 -0.2117 -0.1328  0.0258
  295loPI   C3B 4719   6.973  12.647   8.778  0.1058 -0.0819  0.3234
  295loPI   C4B 4720   6.893  12.812   8.299 -0.1202  0.1383  0.1920
  296loPI    C1 4721   4.309  15.429   9.456  0.1933 -0.0127  0.0815
  296loPI    C2 4722   4.342  15.043   9.355  0.0711  0.0128 -0.0598
  296loPI    C3 4723   4.392  15.155   9.736  0.0217 -0.1539 -0.0036
  296loPI   PO4 4724   4.417  15.608   9.302  0.0035 -0.2487 -0.1250
  296loPI   GL1 4725   4.634  15.868   8.862  0.0395 -0.1206 -0.1227
  296loPI   GL2 4726   4.959  16.096   8.926 -0.0692  0.1563  0.1512
  296loPI   C1A 4727   4.839  15.776   8.498  0.1268 -0.0077  0.2228
  296loPI   C2A 4728   4.691  15.643   8.062  0.1370  0.1842 -0.2621
  296loPI   C3A 4729   4.796  15.784   7.613  0.3027  0.0001 -0.2739
  296loPI   C4A 4730   4.693  15.486   7.493 -0.0683 -0.0215  0.4726
  296loPI   C5A 4731   4.367  15.266   7.281 -0.1154  0.2251 -0.1102
  296loPI   C6A 4732   4.010  15.043   7.580  0.1124  0.0396 -0.0920
  296loPI   C1B 4733   5.069  16.212   8.538  0.3618  0.2335  0.0376
  296loPI   C2B 4734   4.998  16.032   8.077 -0.0095  0.0735 -0.1224
  296loPI   C3B 4735   4.883  16.246   7.790 -0.5614 -0.1324  0.1536
  296loPI   C4B 4736   4.541  16.376   7.513 -0.1140  0.2539 -0.3480
  297loPI    C1 4737   8.309  13.674  10.168  0.0758  0.0183  0.0823
  297loPI    C2 4738   8.491  13.958  10.382  0.1514  0.1899 -0.2037
  297loPI    C3 4739   8.606  13.577  10.417  0.1343  0.2094  0.0891
  297loPI   PO4 4740   8.288  13.796   9.912  0.1707 -0.0845  0.0006
  297loPI   GL1 4741   8.339  13.989   9.612 -0.0803 -0.2784 -0.5677
  297loPI   GL2 4742   8.020  14.153   9.556 -0.2993 -0.2818  0.0405
  297loPI   C1A 4743   8.390  14.116   9.192  0.1132  0.1530 -0.2388
  297loPI   C2A 4744   8.306  14.367   8.888  0.2089 -0.2088  0.3388
  297loPI   C3A 4745   8.361  14.415   8.498 -0.3612  0.4133 -0.0655
  297loPI   C4A 4746   8.626  14.355   8.245 -0.0198  0.3321 -0.2849
  297loPI   C5A 4747   8.657  14.394   7.779 -0.2030 -0.1575 -0.0937
  297loPI   C6A 4748   8.501  14.400   7.356  0.0106  0.2769 -0.0002
  297loPI   C1B 4749   7.904  14.185   9.167  0.3770  0.0013 -0.1614
  297loPI   C2B 4750   7.754  14.121   8.739  0.0656  0.2216 -0.4505
  297loPI   C3B 4751   7.903  14.183   8.300 -0.4077  0.0256  0.1687
  297loPI   C4B 4752   8.086  14.347   7.987 -0.0496  0.3179  0.2750
  298loPI    C1 4753   4.113  17.388   9.607 -0.0377  0.0037  0.1018
  298loPI    C2 4754   4.140  16.990   9.624 -0.0571 -0.0004  0.0407
  298loPI    C3 4755   3.987  17.193   9.932 -0.1702 -0.0509  0.0184
  298loPI   PO4 4756   4.251  17.457   9.345  0.0422 -0.0351  0.0891
  298loPI   GL1 4757   4.181  17.455   8.822  0.4223  0.1999 -0.0144
  298loPI   GL2 4758   3.906  17.355   8.676  0.2125 -0.1847 -0.2043
  298loPI   C1A 4759   4.335  17.564   8.406  0.0913 -0.1168  0.4285
  298loPI   C2A 4760   4.667  17.634   8.039  0.1576  0.0440 -0.1815
  298loPI   C3A 4761   4.681  17.782   7.593  0.2677  0.3843  0.1451
  298loPI   C4A 4762   4.638  17.913   7.197  0.2926  0.0429  0.3585
  298loPI   C5A 4763   4.921  17.855   6.773 -0.0499  0.0543  0.1678
  298loPI   C6A 4764   4.900  17.783   6.305 -0.0207 -0.1254 -0.0056
  298loPI   C1B 4765   4.030  17.258   8.234 -0.0230 -0.2658 -0.0449
  298loPI   C2B 4766   4.072  16.952   7.881 -0.3060 -0.2423 -0.0718
  298loPI   C3B 4767   4.245  16.547   7.861  0.0970 -0.1131  0.1206
  298loPI   C4B 4768   4.037  16.202   7.522  0.0208  0.2804 -0.4866
  299loPI    C1 4769   0.272  16.704   9.819  0.2962 -0.1572  0.0373
  299loPI    C2 4770   0.266  16.305   9.842 -0.3349 -0.1612 -0.0113
  299loPI    C3 4771   0.137  16.524  10.150 -0.2612  0.0004 -0.0942
  299loPI   PO4 4772   0.201  16.644   9.473  0.2588  0.2924 -0.1150
  299loPI   GL1 4773   0.275  16.867   9.067  0.4977 -0.1536 -0.2255
  299loPI   GL2 4774   0.492  16.683   9.089 -0.3298  0.1660  0.0324
  299loPI   C1A 4775   0.438  17.095   8.742 -0.0560  0.0842 -0.1598
  299loPI   C2A 4776   0.310  17.105   8.327 -0.2360  0.1087 -0.0876
  299loPI   C3A 4777   0.313  16.989   7.903 -0.2696 -0.0016 -0.0355
  299loPI   C4A 4778   0.210  16.787   7.581 -0.0474 -0.3462  0.0637
  299loPI   C5A 4779   0.087  16.612   7.285  0.1400  0.0767 -0.1225
  299loPI   C6A 4780  -0.270  16.421   7.214  0.1195 -0.2755 -0.4275
  299loPI   C1B 4781   0.507  16.601   8.665  0.0213  0.2081  0.2018
  299loPI   C2B 4782   0.549  16.549   8.238 -0.0017 -0.2655 -0.2294
  299loPI   C3B 4783   0.682  16.561   7.821  0.1457  0.1179  0.1563
  299loPI   C4B 4784   0.579  16.558   7.334  0.2337  0.1108 -0.1694
  300loPI    C1 4785   7.976   5.273  10.753  0.0645  0.3404  0.1412
  300loPI    C2 4786   7.747   5.549  10.930 -0.4480  0.0745 -0.0858
  300loPI    C3 4787   7.685   5.160  11.004 -0.0572 -0.0025 -0.1443
  300loPI   PO4 4788   7.937   5.326  10.481  0.3964  0.0383  0.1548
  300loPI   GL1 4789   8.056   5.620  10.220 -0.3162 -0.0593 -0.2368
  300loPI   GL2 4790   8.316   5.755  10.333  0.3130 -0.0860 -0.0464
  300loPI   C1A 4791   8.036   5.530   9.774  0.1594 -0.3942  0.0313
  300loPI   C2A 4792   8.047   5.535   9.341  0.1055 -0.2776 -0.0326
  300loPI   C3A 4793   7.994   5.473   8.921 -0.0103  0.1308 -0.3337
  300loPI   C4A 4794   8.153   5.592   8.514  0.3291  0.2727  0.2794
  300loPI   C5A 4795   8.305   5.367   8.207 -0.0475  0.1291  0.0037
  300loPI   C6A 4796   8.449   4.961   8.163 -0.0502  0.3183  0.0065
  300loPI   C1B 4797   8.388   5.974  10.006  0.2437  0.1660  0.0316
  300loPI   C2B 4798   8.364   5.897   9.610  0.3224  0.0045  0.0519
  300loPI   C3B 4799   8.315   6.010   9.134 -0.0264  0.4104 -0.0526
  300loPI   C4B 4800   8.399   6.000   8.748  0.0816 -0.0544  0.0029
  301loPI    C1 4801   0.470  12.477  10.227 -0.1334  0.1358  0.1388
  301loPI    C2 4802   0.548  12.226  10.528 -0.1402  0.0533  0.0720
  301loPI    C3 4803   0.680  12.603  10.544 -0.0225  0.0108  0.1158
  301loPI   PO4 4804   0.486  12.359  10.026  0.0189  0.1839 -0.1523
  301loPI   GL1 4805   0.414  12.504   9.595  0.1774 -0.3785 -0.3338
  301loPI   GL2 4806   0.820  12.442   9.651 -0.2761  0.0755 -0.0664
  301loPI   C1A 4807   0.114  12.462   9.227  0.0799 -0.0245  0.1692
  301loPI   C2A 4808   0.049  12.108   8.916 -0.2305 -0.1915  0.1052
  301loPI   C3A 4809  -0.043  11.825   8.558 -0.0613 -0.2075 -0.1634
  301loPI   C4A 4810   0.003  11.812   8.165 -0.3811  0.0459  0.1464
  301loPI   C5A 4811  -0.178  11.856   7.775 -0.1951  0.0248  0.0862
  301loPI   C6A 4812  -0.480  11.880   7.611  0.0993  0.1973 -0.2262
  301loPI   C1B 4813   0.811  12.569   9.196  0.2187  0.1900  0.2262
  301loPI   C2B 4814   1.021  12.724   8.886 -0.0955 -0.1065 -0.0863
  301loPI   C3B 4815   1.290  12.673   8.557  0.0064  0.1745  0.0556
  301loPI   C4B 4816   1.397  12.518   8.275 -0.0512  0.0093  0.1481
  302loPI    C1 4817   8.996  10.345  10.943 -0.1462 -0.1330  0.0743
  302loPI    C2 4818   8.599  10.350  10.895 -0.1320  0.2635 -0.0407
  302loPI    C3 4819   8.775  10.620  11.132  0.0511 -0.0541  0.1930
  302loPI   PO4 4820   9.131  10.342  10.603  0.5421 -0.2234 -0.0100
  302loPI   GL1 4821   9.318  10.144  10.152  0.0343 -0.0275  0.1036
  302loPI   GL2 4822   9.067  10.171  10.087  0.0851  0.2893  0.1161
  302loPI   C1A 4823   9.497  10.232   9.678  0.2076  0.0789 -0.0854
  302loPI   C2A 4824   9.508  10.207   9.235  0.2100  0.2906  0.1794
  302loPI   C3A 4825   9.640  10.171   8.854  0.2113  0.1527  0.0950
  302loPI   C4A 4826   9.752  10.113   8.438  0.0270 -0.0675  0.0921
  302loPI   C5A 4827  10.100  10.246   8.154 -0.1233  0.0985 -0.1368
  302loPI   C6A 4828  10.458  10.488   7.967  0.0423 -0.1567  0.2308
  302loPI   C1B 4829   8.954  10.109   9.693 -0.1760  0.1033 -0.1061
  302loPI   C2B 4830   8.907  10.102   9.222  0.2394 -0.1786  0.2703
  302loPI   C3B 4831   9.132  10.182   8.864 -0.0281 -0.3061 -0.2100
  302loPI   C4B 4832   9.155  10.302   8.429 -0.0393 -0.0937  0.2387
  303loPI    C1 4833   8.557  16.289  10.708  0.1031  0.2402 -0.0186
  303loPI    C2 4834   8.629  16.683  10.717  0.0318  0.2529  0.0035
  303loPI    C3 4835   8.691  16.460  11.044 -0.0092  0.2601  0.0162
  303loPI   PO4 4836   8.364  16.275  10.479 -0.0574  0.2435  0.0979
  303loPI   GL1 4837   8.256  16.053  10.062  0.1208  0.1738 -0.0140
  303loPI   GL2 4838   8.229  16.443  10.019 -0.3480  0.1711 -0.0645
  303loPI   C1A 4839   8.336  15.983   9.595 -0.2370 -0.4349  0.0610
  303loPI   C2A 4840   8.518  15.614   9.468  0.1492 -0.0224  0.0750
  303loPI   C3A 4841   8.474  15.359   9.117 -0.1456 -0.3784  0.0799
  303loPI   C4A 4842   8.480  15.398   8.699  0.5142 -0.0349  0.2527
  303loPI   C5A 4843   8.425  15.496   8.270  0.2259 -0.2327  0.1217
  303loPI   C6A 4844   8.430  15.757   7.980  0.0395 -0.0925  0.1640
  303loPI   C1B 4845   8.506  16.416   9.710  0.1289 -0.1803  0.3776
  303loPI   C2B 4846   8.527  16.432   9.237  0.0640 -0.1370  0.1578
  303loPI   C3B 4847   8.536  16.480   8.917 -0.1637 -0.1268 -0.1084
  303loPI   C4B 4848   8.699  16.696   8.491  0.1225 -0.1552  0.1993
  304loPI    C1 4849   8.975   9.450  10.971  0.1250 -0.1270 -0.2166
  304loPI    C2 4850   8.691   9.190  11.081  0.1086 -0.0360 -0.0394
  304loPI    C3 4851   8.783   9.498  11.319  0.1802  0.0786 -0.2132
  304loPI   PO4 4852   8.907   9.478  10.652  0.0012  0.1586  0.1483
  304loPI   GL1 4853   9.124   9.366  10.285  0.1452  0.1716 -0.1270
  304loPI   GL2 4854   8.964   9.671  10.239 -0.1743 -0.0770  0.0125
  304loPI   C1A 4855   9.207   9.604   9.842  0.0034 -0.4039  0.0253
  304loPI   C2A 4856   9.232   9.797   9.469  0.2145  0.0794  0.3275
  304loPI   C3A 4857   9.297   9.775   8.998  0.1943  0.0624  0.1737
  304loPI   C4A 4858   9.172   9.587   8.540  0.3323  0.1389  0.0341
  304loPI   C5A 4859   8.880   9.831   8.217  0.1121 -0.0523  0.2538
  304loPI   C6A 4860   8.797   9.937   7.747  0.1071  0.0574  0.1033
  304loPI   C1B 4861   8.711   9.640   9.934  0.0645 -0.0621  0.2682
  304loPI   C2B 4862   8.736   9.726   9.483 -0.2395 -0.0792  0.1273
  304loPI   C3B 4863   8.779   9.598   9.080  0.1109  0.3523  0.1106
  304loPI   C4B 4864   8.717   9.700   8.683 -0.1147  0.0794  0.0677
  305loPI    C1 4865  15.861   4.482  10.933 -0.0352  0.2035  0.0284
  305loPI    C2 4866  16.124   4.741  10.781  0.0371  0.1281  0.0245
  305loPI    C3 4867  15.830   4.871  11.019  0.0913  0.2095  0.0475
  305loPI   PO4 4868  15.747   4.393  10.648 -0.2099  0.1113 -0.0722
  305loPI   GL1 4869  15.893   4.372  10.247 -0.0585  0.3986 -0.0193
  305loPI   GL2 4870  15.756   4.067  10.251 -0.1351 -0.1798 -0.1042
  305loPI   C1A 4871  16.029   4.672   9.880 -0.1547 -0.2060 -0.1848
  305loPI   C2A 4872  15.985   4.938   9.561  0.1069 -0.3287  0.3454
  305loPI   C3A 4873  16.235   5.098   9.164  0.4163  0.1415 -0.0009
  305loPI   C4A 4874  16.265   4.962   8.781 -0.3340  0.2698 -0.3535
  305loPI   C5A 4875  16.380   4.785   8.378 -0.1923  0.1713  0.2692
  305loPI   C6A 4876  16.819   4.828   8.241  0.2357 -0.1715  0.0068
  305loPI   C1B 4877  15.631   4.231   9.852  0.0245  0.2667 -0.0697
  305loPI   C2B 4878  15.727   4.091   9.433 -0.0489 -0.0407  0.0007
  305loPI   C3B 4879  15.983   4.184   8.940  0.5868  0.0948  0.0166
  305loPI   C4B 4880  16.025   4.473   8.560 -0.0344  0.0071  0.0199
  306loPI    C1 4881   2.583  13.652  10.107  0.0487  0.1063 -0.0005
  306loPI    C2 4882   2.323  13.905  10.275  0.0157 -0.0338  0.1621
  306loPI    C3 4883   2.708  14.009  10.236 -0.0568  0.1624 -0.0523
  306loPI   PO4 4884   2.453  13.556   9.850 -0.0528 -0.0547  0.3393
  306loPI   GL1 4885   2.383  13.439   9.335  0.1844  0.0461 -0.0827
  306loPI   GL2 4886   2.521  13.285   9.100  0.1593  0.0477 -0.1423
  306loPI   C1A 4887   2.179  13.757   9.138 -0.3734  0.3151  0.2494
  306loPI   C2A 4888   2.188  13.903   8.763  0.0166 -0.0882 -0.2284
  306loPI   C3A 4889   2.031  14.258   8.402 -0.1290  0.2546  0.3206
  306loPI   C4A 4890   2.085  14.521   8.000 -0.0263 -0.1835 -0.0617
  306loPI   C5A 4891   1.912  14.614   7.581 -0.2824 -0.0548  0.0181
  306loPI   C6A 4892   1.670  14.777   7.117  0.1371 -0.1117  0.0858
  306loPI   C1B 4893   2.838  13.182   8.810  0.2305 -0.1613  0.2000
  306loPI   C2B 4894   2.736  13.284   8.424 -0.2735  0.2175  0.1521
  306loPI   C3B 4895   2.630  13.540   8.065  0.0955 -0.0081  0.2219
  306loPI   C4B 4896   2.384  13.551   7.791  0.0757  0.1918 -0.3119
  307loPI    C1 4897   2.066  13.237   9.764  0.3654  0.0234 -0.2502
  307loPI    C2 4898   1.850  13.279   9.429  0.0306 -0.0076 -0.0426
  307loPI    C3 4899   1.950  13.601   9.645  0.1796  0.0052 -0.1302
  307loPI   PO4 4900   2.303  13.029   9.602  0.1738 -0.2421 -0.0324
  307loPI   GL1 4901   2.069  12.804   9.337  0.2728  0.1700 -0.0191
  307loPI   GL2 4902   1.879  12.483   9.393  0.1968  0.0678  0.2639
  307loPI   C1A 4903   2.102  13.096   8.994  0.2205 -0.4384  0.2599
  307loPI   C2A 4904   2.255  13.400   8.596 -0.2869 -0.2152  0.0496
  307loPI   C3A 4905   2.216  13.767   8.315 -0.0067  0.0378 -0.1488
  307loPI   C4A 4906   2.301  14.053   7.921  0.2674  0.3191 -0.2085
  307loPI   C5A 4907   2.350  14.312   7.549 -0.1111 -0.1981 -0.1903
  307loPI   C6A 4908   2.171  14.314   7.144 -0.2631 -0.0226  0.3705
  307loPI   C1B 4909   1.929  12.360   8.998 -0.0970  0.0708  0.3579
  307loPI   C2B 4910   1.830  12.055   8.738  0.0137  0.1090  0.0618
  307loPI   C3B 4911   1.950  11.714   8.598  0.0387 -0.0642  0.1509
  307loPI   C4B 4912   2.140  11.263   8.498 -0.2732 -0.2542 -0.2620
  308loPI    C1 4913  13.606   3.009  10.911  0.1967  0.0788 -0.0522
  308loPI    C2 4914  13.871   2.720  10.985  0.1288  0.0934  0.2602
  308loPI    C3 4915  13.661   2.880  11.285 -0.3080  0.0118  0.0066
  308loPI   PO4 4916  13.711   3.009  10.576  0.0053  0.0180  0.1254
  308loPI   GL1 4917  13.490   3.225  10.346  0.2446 -0.1771  0.1627
  308loPI   GL2 4918  13.155   3.355  10.210  0.0907 -0.2926  0.2447
  308loPI   C1A 4919  13.651   3.262   9.925 -0.0532  0.2510 -0.0131
  308loPI   C2A 4920  13.510   3.398   9.555  0.1728  0.1003 -0.0335
  308loPI   C3A 4921  13.341   3.709   9.233 -0.1411  0.0104  0.0900
  308loPI   C4A 4922  13.166   3.684   8.844  0.0921 -0.2169  0.4809
  308loPI   C5A 4923  13.439   3.731   8.459 -0.0581  0.0633  0.1000
  308loPI   C6A 4924  13.291   3.487   8.086 -0.1708  0.0476 -0.0116
  308loPI   C1B 4925  13.102   3.459   9.790 -0.0849 -0.2890 -0.2745
  308loPI   C2B 4926  13.011   3.400   9.373  0.4136  0.0381  0.3826
  308loPI   C3B 4927  12.793   3.245   9.045  0.0404 -0.1676  0.2181
  308loPI   C4B 4928  12.572   3.172   8.615  0.4588 -0.1241 -0.0012
  309loPI    C1 4929   2.994   0.967   9.579 -0.1929 -0.2316  0.0137
  309loPI    C2 4930   3.066   1.315   9.762 -0.0089 -0.1315 -0.2434
  309loPI    C3 4931   2.731   1.112   9.843  0.1011 -0.1260  0.2537
  309loPI   PO4 4932   3.067   1.026   9.364  0.1279 -0.2900  0.0373
  309loPI   GL1 4933   3.333   0.883   9.120 -0.2245 -0.0013  0.2332
  309loPI   GL2 4934   3.415   1.311   9.078  0.2011 -0.3266 -0.1606
  309loPI   C1A 4935   3.354   0.879   8.674  0.0790  0.0230  0.2427
  309loPI   C2A 4936   3.500   0.929   8.250 -0.1720 -0.1262 -0.2162
  309loPI   C3A 4937   3.717   0.962   7.833  0.2190  0.2263 -0.1425
  309loPI   C4A 4938   3.927   0.957   7.427  0.1098  0.2117  0.0806
  309loPI   C5A 4939   3.781   0.783   7.199 -0.2561  0.3110 -0.1829
  309loPI   C6A 4940   3.438   0.631   6.954 -0.0838 -0.2753 -0.0347
  309loPI   C1B 4941   3.771   1.162   8.607  0.0378  0.2432  0.1938
  309loPI   C2B 4942   4.110   0.948   8.385  0.3233  0.0124 -0.0426
  309loPI   C3B 4943   4.168   0.999   7.903  0.0509  0.0155  0.0372
  309loPI   C4B 4944   4.376   0.708   7.570  0.0138  0.0715  0.1941
  310loPI    C1 4945   9.672   3.408  10.685 -0.1853  0.1306  0.0573
  310loPI    C2 4946   9.586   3.092  10.455  0.0144  0.0893  0.0376
  310loPI    C3 4947   9.427   3.122  10.821 -0.1571  0.0627 -0.0338
  310loPI   PO4 4948   9.614   3.649  10.443 -0.1184  0.1008  0.0607
  310loPI   GL1 4949   9.478   3.421  10.088 -0.0873  0.1254  0.2939
  310loPI   GL2 4950   9.746   3.189   9.996 -0.0695  0.0969  0.1945
  310loPI   C1A 4951   9.462   3.650   9.768 -0.0042 -0.1420 -0.1602
  310loPI   C2A 4952   9.432   3.745   9.393  0.2284 -0.1956  0.0817
  310loPI   C3A 4953   9.408   3.740   8.973  0.0019  0.2528 -0.0131
  310loPI   C4A 4954   9.342   3.826   8.467 -0.0398  0.0925 -0.0743
  310loPI   C5A 4955   9.256   3.712   8.026 -0.0558 -0.1760  0.0901
  310loPI   C6A 4956   9.025   3.661   7.699 -0.3588 -0.0600  0.0198
  310loPI   C1B 4957   9.782   3.329   9.625 -0.0034 -0.0600  0.0405
  310loPI   C2B 4958   9.846   3.446   9.264  0.0673 -0.2094  0.0685
  310loPI   C3B 4959   9.651   3.291   8.864 -0.1020 -0.1871 -0.0348
  310loPI   C4B 4960   9.843   3.104   8.521 -0.0672  0.4150  0.0430
  311loPI    C1 4961  10.433   2.425  10.676 -0.1790  0.0234  0.1060
  311loPI    C2 4962  10.432   2.097  10.906 -0.1220  0.0192  0.1006
  311loPI    C3 4963  10.220   2.419  11.014 -0.0137  0.0538  0.2119
  311loPI   PO4 4964  10.703   2.377  10.589 -0.1204 -0.0604 -0.1867
  311loPI   GL1 4965  10.911   2.187  10.311  0.1425  0.4254 -0.0176
  311loPI   GL2 4966  10.918   1.935  10.238 -0.4773  0.2269  0.3467
  311loPI   C1A 4967  11.098   2.313   9.900 -0.0663 -0.1148 -0.0648
  311loPI   C2A 4968  11.422   2.337   9.632  0.4247  0.0172 -0.1392
  311loPI   C3A 4969  11.644   2.563   9.299  0.3236 -0.1159  0.0243
  311loPI   C4A 4970  11.811   2.721   8.972  0.3036  0.0122 -0.2553
  311loPI   C5A 4971  12.000   2.922   8.590  0.0669  0.3647 -0.0889
  311loPI   C6A 4972  12.121   3.352   8.522  0.1594  0.2074 -0.1365
  311loPI   C1B 4973  11.008   1.867   9.748  0.1126 -0.0737  0.1027
  311loPI   C2B 4974  11.222   1.962   9.346  0.0171  0.1472 -0.2901
  311loPI   C3B 4975  11.358   2.049   9.004 -0.0028 -0.0581 -0.2771
  311loPI   C4B 4976  11.450   1.941   8.619 -0.0435  0.1520 -0.0128
  312loPI    C1 4977   3.724  11.293  10.451 -0.2720  0.2850 -0.0365
  312loPI    C2 4978   3.977  11.546  10.628 -0.0640  0.0728 -0.0256
  312loPI    C3 4979   3.680  11.380  10.839 -0.0674  0.1380  0.0213
  312loPI   PO4 4980   3.934  11.116  10.303  0.2482  0.0615  0.0492
  312loPI   GL1 4981   3.856  10.949   9.862  0.2014  0.1587  0.1313
  312loPI   GL2 4982   3.620  10.921   9.697 -0.0805 -0.0628  0.1903
  312loPI   C1A 4983   4.022  11.025   9.353  0.0122  0.2296  0.0658
  312loPI   C2A 4984   4.072  11.072   8.924 -0.0525  0.1435 -0.1668
  312loPI   C3A 4985   4.096  11.322   8.545  0.0928  0.2880 -0.1414
  312loPI   C4A 4986   3.812  11.571   8.312  0.1468  0.0339  0.1460
  312loPI   C5A 4987   3.734  11.755   8.036 -0.3152  0.2761 -0.1457
  312loPI   C6A 4988   3.386  11.841   7.877  0.1255 -0.1410  0.0242
  312loPI   C1B 4989   3.265  10.848   9.461  0.0798  0.0151 -0.7482
  312loPI   C2B 4990   3.189  10.865   8.975  0.0312 -0.1296  0.1374
  312loPI   C3B 4991   3.260  10.823   8.583  0.0466 -0.0256 -0.2922
  312loPI   C4B 4992   3.210  10.560   8.278  0.3190 -0.0145 -0.0868
  313loPI    C1 4993   1.529  13.534   9.963  0.0675  0.1109 -0.1095
  313loPI    C2 4994   1.197  13.672  10.137  0.1358  0.4766 -0.2599
  313loPI    C3 4995   1.481  13.498  10.359 -0.1429  0.1780 -0.1280
  313loPI   PO4 4996   1.433  13.538   9.710  0.3182  0.1729 -0.2310
  313loPI   GL1 4997   1.439  13.753   9.295  0.2745  0.0852 -0.0110
  313loPI   GL2 4998   1.680  13.734   9.223  0.0897  0.2578 -0.0135
  313loPI   C1A 4999   1.345  13.784   8.861 -0.0131  0.0877 -0.0408
  313loPI   C2A 5000   1.198  13.836   8.484  0.1100 -0.1962 -0.0977
  313loPI   C3A 5001   1.318  13.702   7.977  0.1851 -0.0743  0.0614
  313loPI   C4A 5002   1.460  13.655   7.627 -0.0165 -0.1620  0.1117
  313loPI   C5A 5003   1.351  13.981   7.487 -0.0213 -0.2748  0.2070
  313loPI   C6A 5004   1.425  14.406   7.594 -0.1631 -0.1167  0.1418
  313loPI   C1B 5005   1.826  13.551   8.846 -0.2073  0.2560 -0.1082
  313loPI   C2B 5006   1.756  13.163   8.634 -0.2051  0.2262  0.0273
  313loPI   C3B 5007   1.591  13.030   8.296  0.3272  0.1482  0.0541
  313loPI   C4B 5008   1.515  13.219   7.899 -0.2094 -0.1683 -0.1447
  314loPI    C1 5009  18.108   6.396  10.635 -0.1090 -0.1211 -0.2857
  314loPI    C2 5010  18.320   6.060  10.585  0.0006 -0.1178  0.1194
  314loPI    C3 5011  18.281   6.220  10.949 -0.0789  0.2937 -0.0631
  314loPI   PO4 5012  17.937   6.363  10.606 -0.0624  0.1890 -0.0180
  314loPI   GL1 5013  17.792   6.526  10.180 -0.0333  0.2931 -0.1188
  314loPI   GL2 5014  17.858   6.084  10.223  0.1564  0.2306 -0.2004
  314loPI   C1A 5015  17.570   6.438   9.860  0.0134  0.0014  0.0940
  314loPI   C2A 5016  17.455   6.404   9.396  0.0081  0.2699  0.0726
  314loPI   C3A 5017  17.371   6.431   8.905  0.3462 -0.2526 -0.1030
  314loPI   C4A 5018  17.481   5.995   8.762 -0.1466  0.2907 -0.0577
  314loPI   C5A 5019  17.434   5.945   8.289  0.0820  0.2666  0.4356
  314loPI   C6A 5020  17.219   5.665   8.055 -0.0707  0.0288  0.2601
  314loPI   C1B 5021  18.034   6.272   9.854  0.4319  0.1536 -0.1919
  314loPI   C2B 5022  17.932   6.214   9.401  0.0908 -0.0492 -0.1890
  314loPI   C3B 5023  17.912   6.264   8.930 -0.1175  0.0257 -0.0853
  314loPI   C4B 5024  17.924   6.127   8.479  0.0472 -0.1208 -0.1291
  315loPI    C1 5025   1.137   6.500  10.407 -0.0596  0.1384  0.2685
  315loPI    C2 5026   1.033   6.653  10.762 -0.0139 -0.0193  0.3506
  315loPI    C3 5027   1.091   6.259  10.723 -0.2115 -0.0278  0.1216
  315loPI   PO4 5028   0.996   6.702  10.197  0.2670 -0.0320  0.0961
  315loPI   GL1 5029   1.003   7.015   9.900  0.2447  0.2475  0.0680
  315loPI   GL2 5030   0.910   7.367   9.880  0.0437  0.3993 -0.1807
  315loPI   C1A 5031   0.946   7.109   9.430 -0.0115 -0.0201 -0.0782
  315loPI   C2A 5032   0.821   6.998   9.032 -0.2435  0.1078 -0.0735
  315loPI   C3A 5033   0.797   6.874   8.561 -0.1232  0.0556 -0.2011
  315loPI   C4A 5034   0.806   6.576   8.154 -0.1446 -0.1496 -0.0379
  315loPI   C5A 5035   0.545   6.279   8.046  0.0276 -0.0349  0.0561
  315loPI   C6A 5036   0.511   5.819   8.042  0.1719 -0.1515 -0.2195
  315loPI   C1B 5037   1.012   7.605   9.556 -0.0260 -0.0987  0.1973
  315loPI   C2B 5038   0.946   7.612   9.138 -0.0020  0.1137 -0.1327
  315loPI   C3B 5039   0.720   7.394   8.723  0.0387  0.1610 -0.4329
  315loPI   C4B 5040   0.800   7.329   8.249 -0.1282  0.0833  0.3243
  316loPI    C1 5041   3.631  13.327  10.274 -0.0251 -0.1761  0.0556
  316loPI    C2 5042   3.849  13.050  10.462 -0.0740 -0.1514  0.1492
  316loPI    C3 5043   4.025  13.305  10.209 -0.0002 -0.1547  0.1965
  316loPI   PO4 5044   3.447  13.208  10.150  0.3214  0.2952  0.0070
  316loPI   GL1 5045   3.288  13.053   9.771 -0.1174 -0.1102 -0.1398
  316loPI   GL2 5046   3.386  13.300   9.540  0.0507 -0.0226  0.0051
  316loPI   C1A 5047   3.500  12.786   9.462  0.0559 -0.0827  0.1784
  316loPI   C2A 5048   3.812  12.818   9.244  0.1504  0.2306  0.0143
  316loPI   C3A 5049   4.126  12.441   9.214  0.2900  0.0679 -0.1496
  316loPI   C4A 5050   4.209  12.420   8.738  0.0946 -0.0826 -0.2081
  316loPI   C5A 5051   4.370  12.363   8.343  0.1605 -0.2942  0.2457
  316loPI   C6A 5052   4.540  12.338   7.835 -0.1153  0.0263  0.0021
  316loPI   C1B 5053   3.472  13.171   9.140 -0.1836  0.0774  0.0868
  316loPI   C2B 5054   3.460  12.873   8.891  0.0069 -0.3241  0.1220
  316loPI   C3B 5055   3.795  12.688   8.696  0.1418 -0.1236 -0.2666
  316loPI   C4B 5056   3.911  12.703   8.238  0.0355 -0.0156 -0.1006
  317loPI    C1 5057   7.447  10.718  10.692 -0.0140  0.0106 -0.0641
  317loPI    C2 5058   7.271  11.064  10.596 -0.1266 -0.1093 -0.2968
  317loPI    C3 5059   7.475  11.032  10.938 -0.1582  0.1712 -0.2495
  317loPI   PO4 5060   7.334  10.587  10.358  0.0681  0.0848  0.0388
  317loPI   GL1 5061   7.495  10.404   9.984  0.1415  0.3622 -0.2754
  317loPI   GL2 5062   7.202  10.272   9.995 -0.1201  0.0758 -0.0935
  317loPI   C1A 5063   7.597  10.390   9.522 -0.1547 -0.2815  0.2850
  317loPI   C2A 5064   7.683  10.633   9.266 -0.3213  0.2564  0.0258
  317loPI   C3A 5065   7.697  10.574   8.863  0.1727  0.1234 -0.3127
  317loPI   C4A 5066   7.559  10.409   8.421  0.0859  0.0761 -0.1503
  317loPI   C5A 5067   7.556  10.102   8.185  0.1910 -0.2237 -0.2213
  317loPI   C6A 5068   7.984  10.122   7.951 -0.3937 -0.3789  0.1747
  317loPI   C1B 5069   7.102  10.358   9.512  0.0940  0.0150 -0.0540
  317loPI   C2B 5070   7.301  10.389   9.116 -0.2592 -0.0935 -0.2082
  317loPI   C3B 5071   7.102  10.447   8.697  0.0834  0.1687  0.1522
  317loPI   C4B 5072   6.978  10.624   8.347  0.1008  0.1132 -0.1807
  318loPI    C1 5073   9.873  11.696  10.818 -0.0018  0.3482  0.3327
  318loPI    C2 5074   9.938  11.439  11.117 -0.0922  0.0577  0.1076
  318loPI    C3 5075   9.564  11.549  11.025 -0.0714  0.0742  0.0424
  318loPI   PO4 5076   9.936  11.558  10.605 -0.1324  0.1376  0.2062
  318loPI   GL1 5077   9.850  11.591  10.192 -0.1160 -0.0341  0.2497
  318loPI   GL2 5078  10.100  11.593  10.014  0.2422  0.1084 -0.0574
  318loPI   C1A 5079   9.880  11.302   9.701 -0.1305  0.3111  0.2229
  318loPI   C2A 5080   9.990  11.048   9.414  0.1225 -0.2771  0.0186
  318loPI   C3A 5081  10.050  11.136   8.967  0.1189 -0.1656 -0.0344
  318loPI   C4A 5082  10.096  11.025   8.572 -0.1154 -0.2074 -0.0502
  318loPI   C5A 5083  10.201  10.880   8.146  0.0157  0.0605  0.2190
  318loPI   C6A 5084  10.338  10.992   7.691  0.0582  0.1377 -0.1086
  318loPI   C1B 5085  10.226  11.671   9.588  0.4210 -0.1166 -0.3633
  318loPI   C2B 5086  10.218  11.592   9.204 -0.0340 -0.1143 -0.0612
  318loPI   C3B 5087  10.323  11.481   8.802  0.1363 -0.0455  0.1376
  318loPI   C4B 5088  10.390  11.326   8.330 -0.0355  0.2963  0.1667
  319loPI    C1 5089  17.189  15.462   9.733 -0.1183  0.0196  0.1301
  319loPI    C2 5090  16.889  15.208   9.804 -0.1698  0.0630  0.0679
  319loPI    C3 5091  16.933  15.534  10.031  0.0502 -0.1341  0.3158
  319loPI   PO4 5092  17.427  15.284   9.724 -0.0335  0.1400 -0.2659
  319loPI   GL1 5093  17.484  14.900   9.358  0.0922  0.2351  0.1602
  319loPI   GL2 5094  17.119  15.016   9.371 -0.2683  0.0614 -0.1772
  319loPI   C1A 5095  17.384  14.640   8.982  0.2171  0.1315  0.2565
  319loPI   C2A 5096  17.556  14.792   8.611 -0.0725 -0.1429  0.3494
  319loPI   C3A 5097  17.678  14.901   8.213 -0.2238 -0.2028  0.1487
  319loPI   C4A 5098  17.669  14.579   7.813  0.1203 -0.1547  0.0263
  319loPI   C5A 5099  18.029  14.517   7.527 -0.0655 -0.1050  0.1618
  319loPI   C6A 5100  17.901  14.800   7.198  0.2016  0.0865 -0.0478
  319loPI   C1B 5101  17.057  15.060   8.934  0.2423  0.3350 -0.0113
  319loPI   C2B 5102  17.033  15.077   8.453  0.0894 -0.0144 -0.5654
  319loPI   C3B 5103  17.233  15.077   7.964  0.0879 -0.0818 -0.3345
  319loPI   C4B 5104  17.145  15.392   7.616  0.2642 -0.1656 -0.2909
  320loPI    C1 5105   9.183  12.950  10.611  0.0800 -0.2115 -0.1162
  320loPI    C2 5106   8.943  12.656  10.738 -0.0628 -0.0442  0.0064
  320loPI    C3 5107   9.265  12.757  10.952 -0.1594  0.0632  0.1024
  320loPI   PO4 5108   9.281  12.843  10.384 -0.1762 -0.1910 -0.2250
  320loPI   GL1 5109   9.194  12.698   9.950 -0.0880 -0.3151 -0.0528
  320loPI   GL2 5110   9.231  12.845   9.652  0.0572 -0.0175  0.2408
  320loPI   C1A 5111   9.487  12.499   9.488 -0.0111 -0.1264 -0.1702
  320loPI   C2A 5112   9.532  12.386   9.050 -0.1830 -0.1325  0.1690
  320loPI   C3A 5113   9.603  12.249   8.706 -0.0076  0.1470 -0.1181
  320loPI   C4A 5114   9.779  12.201   8.293 -0.2630  0.2072  0.1482
  320loPI   C5A 5115   9.731  12.496   7.901 -0.2490 -0.0908  0.1522
  320loPI   C6A 5116   9.885  12.721   7.488  0.4310  0.2913  0.0122
  320loPI   C1B 5117   9.297  12.839   9.195 -0.4532  0.1658  0.2122
  320loPI   C2B 5118   9.462  12.788   8.647  0.1358 -0.0915 -0.1955
  320loPI   C3B 5119   9.594  12.878   8.209 -0.3561  0.2295 -0.2911
  320loPI   C4B 5120   9.606  13.114   7.778 -0.2458 -0.0196 -0.0753
  321loPI    C1 5121   8.206  10.617  10.700  0.0071  0.1879  0.1502
  321loPI    C2 5122   7.920  10.853  10.850  0.1655  0.3490  0.2018
  321loPI    C3 5123   8.184  10.679  11.095  0.3778  0.5511  0.1197
  321loPI   PO4 5124   8.240  10.696  10.472 -0.0881 -0.0590 -0.0375
  321loPI   GL1 5125   8.157  10.690  10.050 -0.2168 -0.0006 -0.2003
  321loPI   GL2 5126   7.919  10.623   9.915 -0.2807  0.1115  0.2222
  321loPI   C1A 5127   8.445  10.943   9.748 -0.1965 -0.1393  0.0545
  321loPI   C2A 5128   8.485  10.993   9.265 -0.1219  0.0352 -0.0286
  321loPI   C3A 5129   8.591  10.988   8.858 -0.1426  0.2469  0.0397
  321loPI   C4A 5130   8.455  11.039   8.422  0.0491  0.1082  0.0791
  321loPI   C5A 5131   8.101  11.219   8.084 -0.2728  0.0011  0.2233
  321loPI   C6A 5132   7.887  11.645   7.969 -0.0094 -0.0077 -0.4091
  321loPI   C1B 5133   8.180  10.510   9.562  0.1870 -0.3048 -0.4341
  321loPI   C2B 5134   8.185  10.503   9.094  0.0537 -0.1173 -0.3071
  321loPI   C3B 5135   8.298  10.518   8.665  0.0377  0.1628  0.1778
  321loPI   C4B 5136   8.113  10.456   8.365 -0.0235  0.2408  0.4332
  322loPI    C1 5137   3.096   6.700  10.302  0.0763 -0.2781 -0.1165
  322loPI    C2 5138   2.814   6.421  10.246  0.2142 -0.4694  0.1189
  322loPI    C3 5139   3.157   6.404  10.040  0.0447 -0.2163 -0.1939
  322loPI   PO4 5140   2.983   6.986  10.240  0.0160 -0.1432  0.0493
  322loPI   GL1 5141   3.007   7.284  10.042 -0.0928  0.3087 -0.2103
  322loPI   GL2 5142   2.918   7.560   9.945  0.1636  0.0967  0.2196
  322loPI   C1A 5143   3.059   7.266   9.629 -0.2093  0.1305  0.1455
  322loPI   C2A 5144   3.128   7.319   9.301 -0.2190 -0.1679  0.0681
  322loPI   C3A 5145   3.289   7.329   8.868  0.3821  0.0176  0.1448
  322loPI   C4A 5146   3.443   7.394   8.385 -0.2237 -0.0834  0.2541
  322loPI   C5A 5147   3.144   7.307   8.007  0.4218 -0.2630 -0.1196
  322loPI   C6A 5148   2.948   7.589   7.694 -0.1577  0.0070 -0.1136
  322loPI   C1B 5149   3.172   7.781   9.505  0.0998 -0.1871  0.7037
  322loPI   C2B 5150   2.991   7.745   9.053  0.2457  0.0257 -0.0147
  322loPI   C3B 5151   2.824   7.609   8.759  0.0227  0.0277  0.1429
  322loPI   C4B 5152   2.878   7.550   8.312 -0.0019 -0.1309 -0.3518
  323loPI    C1 5153  15.610   9.908  10.833  0.3531 -0.0477 -0.1409
  323loPI    C2 5154  15.470   9.627  11.080 -0.0813  0.1885 -0.1088
  323loPI    C3 5155  15.688   9.929  11.225  0.0294  0.0957 -0.0806
  323loPI   PO4 5156  15.363  10.102  10.764 -0.0182 -0.1411 -0.0316
  323loPI   GL1 5157  14.999  10.137  10.501  0.3175  0.2069  0.2108
  323loPI   GL2 5158  14.798   9.875  10.322 -0.2066 -0.0635 -0.0375
  323loPI   C1A 5159  15.071  10.103   9.988  0.0637 -0.0050  0.0412
  323loPI   C2A 5160  15.205   9.983   9.565  0.1866 -0.1440  0.1420
  323loPI   C3A 5161  15.344   9.855   9.195  0.0661  0.0150  0.1861
  323loPI   C4A 5162  15.316   9.602   8.875  0.2904 -0.2415 -0.1062
  323loPI   C5A 5163  15.219   9.315   8.487 -0.0870  0.0800 -0.1704
  323loPI   C6A 5164  15.217   9.086   8.173  0.0810  0.1796  0.1108
  323loPI   C1B 5165  15.055   9.527  10.039  0.1313  0.5172 -0.0940
  323loPI   C2B 5166  15.111   9.367   9.554 -0.2429  0.1394  0.1052
  323loPI   C3B 5167  14.960   9.332   9.131  0.0409 -0.0507 -0.2244
  323loPI   C4B 5168  14.774   9.176   8.799 -0.0259 -0.0050 -0.0121
  324loPI    C1 5169  10.611   5.094  11.176 -0.1535 -0.0942  0.1806
  324loPI    C2 5170  10.925   4.849  11.210 -0.0581  0.0065  0.0368
  324loPI    C3 5171  10.967   5.240  11.287 -0.1778  0.0007  0.1349
  324loPI   PO4 5172  10.518   5.075  10.969  0.1541 -0.1500  0.2438
  324loPI   GL1 5173  10.443   5.157  10.575 -0.0713 -0.2467  0.0510
  324loPI   GL2 5174  10.646   5.125  10.392  0.0382 -0.4000  0.0781
  324loPI   C1A 5175  10.133   5.280  10.210  0.0601  0.4387 -0.0782
  324loPI   C2A 5176  10.088   5.269   9.764 -0.1822  0.0437 -0.0142
  324loPI   C3A 5177  10.086   5.563   9.464  0.0675  0.1399  0.2360
  324loPI   C4A 5178   9.865   5.593   9.121  0.0701  0.3008  0.1505
  324loPI   C5A 5179   9.601   5.674   8.682  0.1463 -0.0804 -0.1323
  324loPI   C6A 5180   9.405   6.005   8.411  0.0884  0.0793 -0.0217
  324loPI   C1B 5181  10.657   5.238   9.997  0.1842  0.0826  0.3818
  324loPI   C2B 5182  10.697   5.187   9.497 -0.1119 -0.0168 -0.1063
  324loPI   C3B 5183  10.815   5.163   9.073 -0.0790  0.0431  0.0392
  324loPI   C4B 5184  10.925   4.952   8.664  0.1910  0.1029  0.1121
  325loPI    C1 5185  14.562  14.112  10.084  0.0471 -0.1261  0.1855
  325loPI    C2 5186  14.685  14.282   9.743  0.0691 -0.3618  0.0741
  325loPI    C3 5187  14.520  14.506  10.030  0.1246 -0.1492 -0.0580
  325loPI   PO4 5188  14.833  13.878  10.058 -0.0288 -0.2193 -0.2619
  325loPI   GL1 5189  15.059  13.817   9.699 -0.0074 -0.3669  0.0410
  325loPI   GL2 5190  15.020  13.472   9.602  0.0286 -0.1664 -0.2430
  325loPI   C1A 5191  15.172  13.625   9.159 -0.2906  0.1140  0.1750
  325loPI   C2A 5192  15.026  13.443   8.755  0.0006 -0.3317  0.0754
  325loPI   C3A 5193  14.999  13.458   8.222  0.0871  0.0970 -0.2755
  325loPI   C4A 5194  15.018  13.705   7.926 -0.0094 -0.2986 -0.1607
  325loPI   C5A 5195  14.894  14.077   7.796  0.0109  0.0001 -0.2171
  325loPI   C6A 5196  14.935  14.509   7.659 -0.1346  0.0061 -0.1729
  325loPI   C1B 5197  14.733  13.355   9.242  0.0177 -0.0096  0.0291
  325loPI   C2B 5198  14.775  13.077   8.956 -0.2394  0.0765  0.1442
  325loPI   C3B 5199  14.890  12.976   8.573 -0.0684 -0.2054 -0.0316
  325loPI   C4B 5200  14.903  12.945   8.137 -0.1099 -0.3689 -0.0804
  326loPI    C1 5201   4.008   8.125  10.673  0.0847  0.0334  0.2564
  326loPI    C2 5202   3.731   8.382  10.541  0.0858 -0.1543 -0.1235
  326loPI    C3 5203   3.674   8.186  10.885 -0.0042  0.2047  0.0704
  326loPI   PO4 5204   4.258   8.369  10.511 -0.1865 -0.1760  0.2524
  326loPI   GL1 5205   4.190   8.389  10.128 -0.0270 -0.1422  0.3635
  326loPI   GL2 5206   4.347   8.508   9.947 -0.0770 -0.0335  0.1820
  326loPI   C1A 5207   3.834   8.449   9.910  0.3262  0.0343  0.2346
  326loPI   C2A 5208   3.762   8.538   9.414  0.0191  0.0998  0.0093
  326loPI   C3A 5209   3.733   8.588   9.051  0.0195  0.2162  0.0085
  326loPI   C4A 5210   3.723   8.429   8.610 -0.0145  0.1581 -0.0974
  326loPI   C5A 5211   3.580   8.170   8.305 -0.1628 -0.3893  0.2685
  326loPI   C6A 5212   3.714   8.041   7.897 -0.0948 -0.2475  0.0495
  326loPI   C1B 5213   4.262   8.483   9.498  0.3089  0.2014 -0.1192
  326loPI   C2B 5214   4.221   8.538   9.123  0.0902  0.1088  0.0812
  326loPI   C3B 5215   4.152   8.661   8.723 -0.1830  0.2560  0.0926
  326loPI   C4B 5216   4.363   8.931   8.512  0.0517  0.1630 -0.0509
  327loPI    C1 5217  15.156  13.491  10.097  0.0303 -0.0071  0.1324
  327loPI    C2 5218  15.118  13.646  10.463 -0.0880 -0.0496  0.1387
  327loPI    C3 5219  15.339  13.835  10.188 -0.1297  0.0656  0.1833
  327loPI   PO4 5220  14.951  13.238  10.103  0.2705 -0.0260 -0.0954
  327loPI   GL1 5221  14.590  13.220   9.810 -0.3914 -0.2912  0.2196
  327loPI   GL2 5222  14.254  13.319   9.743 -0.0127  0.1308 -0.2924
  327loPI   C1A 5223  14.642  12.892   9.620  0.0886  0.1856 -0.3197
  327loPI   C2A 5224  14.544  12.716   9.227  0.4661 -0.0877  0.2234
  327loPI   C3A 5225  14.468  12.612   8.804  0.2805 -0.1947  0.3296
  327loPI   C4A 5226  14.578  12.616   8.369 -0.1296  0.1532  0.2363
  327loPI   C5A 5227  14.384  12.418   8.104 -0.1969 -0.0158  0.1785
  327loPI   C6A 5228  14.000  12.284   7.939 -0.0966  0.2618  0.0015
  327loPI   C1B 5229  14.202  13.244   9.360 -0.0113  0.1295  0.1396
  327loPI   C2B 5230  14.226  13.049   8.933  0.1851  0.0233 -0.2077
  327loPI   C3B 5231  14.311  13.014   8.536 -0.3982  0.0187 -0.5089
  327loPI   C4B 5232  14.275  12.980   7.984 -0.0672  0.0999 -0.0651
  328loPI    C1 5233   7.660  11.779  10.635 -0.2338 -0.0948 -0.0561
  328loPI    C2 5234   7.660  11.380  10.666  0.1751 -0.1102 -0.2087
  328loPI    C3 5235   7.573  11.605  10.985 -0.1595 -0.3199 -0.1479
  328loPI   PO4 5236   7.526  11.915  10.444  0.0385  0.2431 -0.0438
  328loPI   GL1 5237   7.354  11.858   9.990  0.0206 -0.1093  0.0909
  328loPI   GL2 5238   7.584  12.095   9.841 -0.1601 -0.0113 -0.0459
  328loPI   C1A 5239   7.495  11.491   9.620 -0.0404 -0.2298 -0.0208
  328loPI   C2A 5240   7.563  11.141   9.418 -0.1268 -0.3498  0.0688
  328loPI   C3A 5241   7.440  10.995   8.991 -0.0912  0.1031  0.1786
  328loPI   C4A 5242   7.297  10.961   8.531  0.0015  0.3074  0.0093
  328loPI   C5A 5243   7.499  10.848   8.068 -0.4226  0.2717 -0.2235
  328loPI   C6A 5244   7.871  10.685   7.974  0.2677 -0.1776  0.2207
  328loPI   C1B 5245   7.854  11.865   9.529 -0.1711 -0.0268  0.0908
  328loPI   C2B 5246   7.591  11.617   9.126 -0.0355  0.1502 -0.0466
  328loPI   C3B 5247   7.561  11.403   8.708  0.1450  0.3880  0.1211
  328loPI   C4B 5248   7.618  11.271   8.282  0.2156 -0.2749 -0.1134
  329loPI    C1 5249  11.440   5.270  10.682 -0.1026 -0.0026 -0.0346
  329loPI    C2 5250  11.370   5.030  10.994 -0.1975 -0.0216 -0.0703
  329loPI    C3 5251  11.383   5.427  11.045 -0.0422 -0.0336 -0.0116
  329loPI   PO4 5252  11.280   5.189  10.456  0.0020  0.0482 -0.0788
  329loPI   GL1 5253  11.315   4.918  10.056  0.2584 -0.1313  0.0258
  329loPI   GL2 5254  11.148   5.116   9.915 -0.1081  0.0424  0.0057
  329loPI   C1A 5255  11.560   4.801   9.663  0.0461  0.1478 -0.0436
  329loPI   C2A 5256  11.572   4.545   9.224 -0.2990 -0.0907 -0.4111
  329loPI   C3A 5257  11.566   4.521   8.801 -0.1041 -0.2867  0.0053
  329loPI   C4A 5258  11.644   4.210   8.415 -0.1559  0.0602 -0.0988
  329loPI   C5A 5259  12.065   4.150   8.148  0.1010 -0.1887 -0.0483
  329loPI   C6A 5260  12.497   4.033   8.322 -0.0556 -0.0397 -0.4098
  329loPI   C1B 5261  11.228   5.155   9.494 -0.1432 -0.0239  0.1071
  329loPI   C2B 5262  11.491   5.250   9.189  0.1274  0.2648 -0.0564
  329loPI   C3B 5263  11.776   5.435   8.911  0.1928 -0.0884  0.2733
  329loPI   C4B 5264  11.800   5.465   8.566 -0.1393 -0.0031  0.1328
  330loPI    C1 5265  17.594   4.799  10.581  0.1575  0.0923 -0.1871
  330loPI    C2 5266  17.773   5.143  10.484  0.0468  0.2937  0.2977
  330loPI    C3 5267  17.961   4.879  10.719  0.0442  0.1187  0.1055
  330loPI   PO4 5268  17.519   4.665  10.361  0.3997 -0.0402  0.0741
  330loPI   GL1 5269  17.487   4.916  10.014  0.1816  0.2222  0.5866
  330loPI   GL2 5270  17.798   4.937   9.955  0.2045 -0.0776 -0.2028
  330loPI   C1A 5271  17.087   4.871   9.805 -0.0720  0.2411 -0.0714
  330loPI   C2A 5272  16.842   4.954   9.418  0.1459 -0.0764  0.0100
  330loPI   C3A 5273  16.782   4.976   9.049  0.1650 -0.2418 -0.2810
  330loPI   C4A 5274  16.790   5.191   8.646 -0.3366 -0.1057  0.2432
  330loPI   C5A 5275  16.402   5.335   8.253  0.1311  0.0970 -0.4656
  330loPI   C6A 5276  16.144   5.742   7.952 -0.1023  0.2471  0.1430
  330loPI   C1B 5277  17.510   4.916   9.538 -0.2149 -0.1854 -0.0085
  330loPI   C2B 5278  17.363   4.879   9.085  0.1908 -0.0911 -0.3035
  330loPI   C3B 5279  17.364   5.088   8.663 -0.2481 -0.1543 -0.0206
  330loPI   C4B 5280  17.106   5.234   8.206  0.1041 -0.3174  0.1466
  331loPI    C1 5281   0.141  13.207  10.209  0.0251 -0.0898 -0.0271
  331loPI    C2 5282   0.332  12.910  10.397 -0.0754  0.0591  0.3192
  331loPI    C3 5283   0.141  13.190  10.609 -0.0382  0.3359 -0.0041
  331loPI   PO4 5284  -0.015  13.157  10.063 -0.1423  0.3933 -0.1116
  331loPI   GL1 5285  -0.063  13.277   9.656  0.0724  0.1053  0.2739
  331loPI   GL2 5286   0.083  13.012   9.654 -0.1786 -0.0425  0.3199
  331loPI   C1A 5287  -0.069  13.129   9.144 -0.0813 -0.3775 -0.2850
  331loPI   C2A 5288  -0.131  12.807   8.865  0.1266  0.4168 -0.0941
  331loPI   C3A 5289  -0.143  12.771   8.488  0.0801 -0.3188 -0.0005
  331loPI   C4A 5290  -0.108  12.800   8.014 -0.0221  0.0047  0.1872
  331loPI   C5A 5291  -0.088  13.123   7.696  0.1122  0.2728 -0.1015
  331loPI   C6A 5292   0.050  13.491   7.449  0.4401  0.1884  0.0355
  331loPI   C1B 5293   0.377  12.921   9.337  0.3096  0.3539  0.1849
  331loPI   C2B 5294   0.379  12.797   8.894  0.0047  0.2959 -0.0984
  331loPI   C3B 5295   0.304  12.541   8.583  0.1874  0.4056 -0.2738
  331loPI   C4B 5296   0.064  12.269   8.337 -0.0577 -0.2753  0.0024
  332loPI    C1 5297   7.839   4.288  10.527 -0.1824  0.1171  0.1853
  332loPI    C2 5298   7.715   4.129  10.873 -0.1498 -0.0021  0.1429
  332loPI    C3 5299   8.106   4.169  10.800 -0.1566  0.0180  0.1175
  332loPI   PO4 5300   7.677   4.438  10.482 -0.1491  0.0137  0.4272
  332loPI   GL1 5301   7.638   4.593  10.091 -0.2192 -0.1739 -0.2998
  332loPI   GL2 5302   7.690   4.258  10.044 -0.1726  0.1978 -0.0357
  332loPI   C1A 5303   7.792   4.700   9.660 -0.0015  0.2577 -0.1827
  332loPI   C2A 5304   7.795   4.513   9.233  0.2188  0.0584 -0.0590
  332loPI   C3A 5305   7.775   4.596   8.865 -0.1699 -0.0525 -0.2580
  332loPI   C4A 5306   8.114   4.641   8.575 -0.0299  0.0877  0.0277
  332loPI   C5A 5307   8.578   4.599   8.591  0.0529  0.1257  0.0908
  332loPI   C6A 5308   8.931   4.763   8.354 -0.1125  0.4017  0.2458
  332loPI   C1B 5309   7.838   4.004   9.751 -0.2172 -0.3212  0.3953
  332loPI   C2B 5310   7.923   4.082   9.385  0.1107  0.4453 -0.1989
  332loPI   C3B 5311   7.851   4.069   8.936  0.1184  0.1756 -0.0069
  332loPI   C4B 5312   7.693   4.070   8.576  0.2332  0.3105 -0.1511
  333loPI    C1 5313  10.986  10.476  10.447  0.0294  0.0074  0.1021
  333loPI    C2 5314  11.022  10.230  10.761  0.0145  0.0979  0.1754
  333loPI    C3 5315  11.187  10.594  10.772  0.0116  0.1025  0.0788
  333loPI   PO4 5316  10.935  10.297  10.270 -0.0060 -0.1269  0.1371
  333loPI   GL1 5317  11.097  10.237   9.905  0.2201  0.0827 -0.3397
  333loPI   GL2 5318  11.368  10.044   9.924  0.2849  0.3407  0.0452
  333loPI   C1A 5319  11.155  10.537   9.606  0.0013 -0.1642 -0.0451
  333loPI   C2A 5320  11.241  10.359   9.236  0.0736  0.3973 -0.1149
  333loPI   C3A 5321  11.417  10.221   8.756 -0.0940  0.0823  0.1035
  333loPI   C4A 5322  11.146  10.267   8.487  0.1030 -0.3508  0.0747
  333loPI   C5A 5323  10.956  10.655   8.202 -0.2411  0.2473  0.2029
  333loPI   C6A 5324  10.725  10.974   7.970  0.1891 -0.2455 -0.0893
  333loPI   C1B 5325  11.217  10.002   9.542 -0.3772  0.0909  0.2292
  333loPI   C2B 5326  11.255   9.877   9.158 -0.4751 -0.0166 -0.0838
  333loPI   C3B 5327  11.311   9.732   8.815 -0.3441  0.3685 -0.0034
  333loPI   C4B 5328  11.564   9.475   8.606  0.1975 -0.0104  0.0886
  334loPI    C1 5329  15.159  17.726  10.207 -0.1420 -0.1543 -0.0658
  334loPI    C2 5330  15.041  17.357  10.305 -0.1802 -0.1639 -0.1475
  334loPI    C3 5331  14.947  17.666  10.540  0.0976 -0.2432  0.0730
  334loPI   PO4 5332  15.084  17.725   9.928 -0.0041  0.1833 -0.0532
  334loPI   GL1 5333  15.115  17.954   9.518 -0.1700  0.1596  0.1250
  334loPI   GL2 5334  15.044  18.186   9.316 -0.0480  0.0009 -0.2395
  334loPI   C1A 5335  15.224  17.821   9.044 -0.1049  0.0407  0.2660
  334loPI   C2A 5336  15.144  17.879   8.620 -0.1334 -0.2775  0.1570
  334loPI   C3A 5337  15.037  17.585   8.243 -0.0384  0.1410  0.2863
  334loPI   C4A 5338  15.212  17.201   7.931  0.1184 -0.0591  0.1991
  334loPI   C5A 5339  15.394  16.981   7.601 -0.0596  0.1720  0.1795
  334loPI   C6A 5340  15.287  16.668   7.380  0.1526  0.2867  0.0033
  334loPI   C1B 5341  14.852  18.193   8.943  0.3123  0.2282 -0.2063
  334loPI   C2B 5342  14.744  18.198   8.554  0.0898  0.0920  0.1378
  334loPI   C3B 5343  15.045  18.363   8.169  0.0711  0.0444 -0.0345
  334loPI   C4B 5344  15.436  18.418   7.922  0.1148  0.1188 -0.2662
  335loPI    C1 5345  14.460   3.383  10.680  0.0453 -0.1001 -0.1939
  335loPI    C2 5346  14.810   3.419  10.871 -0.0549 -0.0397 -0.0193
  335loPI    C3 5347  14.610   3.072  10.882 -0.1540  0.0220  0.1500
  335loPI   PO4 5348  14.504   3.447  10.441  0.2156  0.1687 -0.2074
  335loPI   GL1 5349  14.569   3.365  10.098  0.1102  0.1501  0.0933
  335loPI   GL2 5350  14.407   3.046  10.040  0.3644  0.2455  0.0733
  335loPI   C1A 5351  14.854   3.338   9.748 -0.0039  0.0920 -0.0629
  335loPI   C2A 5352  15.005   3.407   9.341 -0.2846  0.1479  0.0195
  335loPI   C3A 5353  15.305   3.587   9.139  0.0327  0.2523  0.0584
  335loPI   C4A 5354  15.718   3.712   8.915  0.0069  0.1445  0.0965
  335loPI   C5A 5355  16.026   3.980   8.505  0.3632 -0.2460 -0.0100
  335loPI   C6A 5356  16.368   3.718   8.252 -0.2455  0.1205 -0.2587
  335loPI   C1B 5357  14.418   3.106   9.686 -0.3245  0.3789 -0.2168
  335loPI   C2B 5358  14.533   3.233   9.349 -0.1852 -0.0572  0.1013
  335loPI   C3B 5359  14.612   3.080   8.894  0.0564 -0.0025 -0.0048
  335loPI   C4B 5360  14.526   2.960   8.422  0.0386  0.4622 -0.1566
  336loPI    C1 5361  14.780   9.090  10.918 -0.0149 -0.1935 -0.0285
  336loPI    C2 5362  15.145   9.245  10.964 -0.1652  0.1150  0.1584
  336loPI    C3 5363  15.067   8.876  11.095 -0.0083  0.1730  0.4237
  336loPI   PO4 5364  14.669   9.410  10.895 -0.1793 -0.0685  0.1210
  336loPI   GL1 5365  14.482   9.435  10.476 -0.0886 -0.2430 -0.1279
  336loPI   GL2 5366  14.433   9.122  10.514  0.1934 -0.1665 -0.1789
  336loPI   C1A 5367  14.349   9.612  10.117 -0.0826 -0.1145  0.1631
  336loPI   C2A 5368  14.285   9.520   9.759  0.0205 -0.3877  0.2359
  336loPI   C3A 5369  14.245   9.552   9.286 -0.1138  0.1774  0.0919
  336loPI   C4A 5370  14.532   9.608   8.991 -0.2599 -0.0150 -0.1084
  336loPI   C5A 5371  14.592   9.675   8.616  0.3731  0.0237 -0.0067
  336loPI   C6A 5372  14.626   9.931   8.356  0.1077 -0.2395 -0.3375
  336loPI   C1B 5373  14.160   9.114  10.114  0.0271  0.2376  0.0516
  336loPI   C2B 5374  14.202   9.056   9.630 -0.2024 -0.1659 -0.0675
  336loPI   C3B 5375  13.855   9.194   9.355  0.1273  0.0740 -0.0530
  336loPI   C4B 5376  13.715   9.158   8.971  0.0464 -0.1635  0.0339
  337loPI    C1 5377  18.403  13.774   9.909  0.0588 -0.1094 -0.2507
  337loPI    C2 5378  18.097  13.521   9.959 -0.0183 -0.0064 -0.1983
  337loPI    C3 5379  18.088  13.883  10.129  0.1640 -0.0284 -0.1388
  337loPI   PO4 5380  18.458  13.760   9.701  0.2016 -0.3117  0.0102
  337loPI   GL1 5381  18.391  13.834   9.241 -0.1778 -0.1458  0.2925
  337loPI   GL2 5382  18.475  13.599   9.177 -0.2583 -0.2111 -0.1586
  337loPI   C1A 5383  18.291  14.088   8.802  0.5573  0.2560 -0.0443
  337loPI   C2A 5384  18.234  14.166   8.351 -0.1374 -0.2164  0.2196
  337loPI   C3A 5385  18.243  14.102   7.869 -0.0823 -0.3664 -0.2618
  337loPI   C4A 5386  18.288  14.043   7.490  0.1171 -0.4512  0.1098
  337loPI   C5A 5387  18.606  14.276   7.370 -0.2073  0.1399 -0.0378
  337loPI   C6A 5388  19.014  14.126   7.298 -0.1438  0.1932  0.0462
  337loPI   C1B 5389  18.472  13.634   8.667  0.1424 -0.0416 -0.3390
  337loPI   C2B 5390  18.560  13.788   8.303 -0.1261 -0.1437 -0.1908
  337loPI   C3B 5391  18.617  13.768   7.852 -0.2318 -0.0234  0.0883
  337loPI   C4B 5392  18.931  13.841   7.694  0.0149 -0.2326  0.1656
  338loPI    C1 5393  14.184   8.135  10.939 -0.0265 -0.2425 -0.0615
  338loPI    C2 5394  14.196   7.929  11.282 -0.2419  0.0653  0.1369
  338loPI    C3 5395  14.530   8.092  11.134 -0.2187  0.2842  0.4239
  338loPI   PO4 5396  14.013   7.977  10.817 -0.2702  0.0695 -0.1638
  338loPI   GL1 5397  14.238   7.821  10.504 -0.0576 -0.2088  0.3254
  338loPI   GL2 5398  14.204   7.496  10.566  0.0008  0.4014 -0.4080
  338loPI   C1A 5399  14.304   8.092  10.208  0.0416 -0.2596 -0.3251
  338loPI   C2A 5400  14.450   8.163   9.802  0.2021  0.0443  0.0626
  338loPI   C3A 5401  14.787   8.273   9.612  0.2501  0.3863  0.2571
  338loPI   C4A 5402  14.914   8.119   9.303 -0.2526 -0.2576  0.0046
  338loPI   C5A 5403  14.917   8.243   8.850 -0.2414  0.1544  0.3553
  338loPI   C6A 5404  14.750   8.323   8.486  0.0232  0.3027 -0.1254
  338loPI   C1B 5405  14.152   7.357  10.163  0.0325  0.1094 -0.1421
  338loPI   C2B 5406  14.406   7.386   9.722 -0.0582 -0.4290 -0.2872
  338loPI   C3B 5407  14.397   7.374   9.243 -0.1241 -0.1655  0.2307
  338loPI   C4B 5408  14.089   7.027   8.905 -0.0242 -0.1690 -0.1130
  339POPI    C1 5409   2.762  17.637   9.172 -0.0291 -0.1852 -0.1161
  339POPI    C2 5410   2.428  17.445   9.278  0.0234 -0.1971  0.0316
  339POPI    C3 5411   2.637  17.646   9.552  0.0510 -0.0551 -0.0922
  339POPI   PO4 5412   2.926  17.573   9.064 -0.0457  0.3518 -0.2796
  339POPI   GL1 5413   3.002  17.450   8.632 -0.1635 -0.1806 -0.0780
  339POPI   GL2 5414   3.239  17.147   8.682  0.0819  0.0651  0.1684
  339POPI   C1A 5415   3.132  17.523   8.199  0.1616 -0.2529  0.0574
  339POPI   D2A 5416   3.272  17.678   7.845 -0.2529 -0.2598 -0.1075
  339POPI   C3A 5417   3.009  17.718   7.526 -0.0090  0.3034 -0.1939
  339POPI   C4A 5418   2.777  17.381   7.463 -0.0309 -0.0630 -0.1572
  339POPI   C1B 5419   3.127  17.036   8.340 -0.1229 -0.1740  0.1105
  339POPI   C2B 5420   3.113  17.127   7.910 -0.0078  0.0161 -0.4031
  339POPI   C3B 5421   3.125  16.873   7.458 -0.2095 -0.1877 -0.1393
  339POPI   C4B 5422   3.475  16.868   7.229 -0.3081  0.0143  0.3827
  340POPI    C1 5423  14.865  18.238  10.228  0.0222  0.0576 -0.3617
  340POPI    C2 5424  15.045  18.541  10.418  0.0031 -0.0691 -0.1375
  340POPI    C3 5425  15.243  18.200  10.354 -0.0972 -0.1436 -0.0536
  340POPI   PO4 5426  14.871  18.295   9.886 -0.0384 -0.0342  0.0169
  340POPI   GL1 5427  14.505  18.320   9.491  0.0183  0.0938 -0.0079
  340POPI   GL2 5428  14.523  18.641   9.529  0.2034 -0.4827  0.3744
  340POPI   C1A 5429  14.436  18.060   9.273 -0.0804  0.3982 -0.1408
  340POPI   D2A 5430  14.208  17.901   9.002  0.2390  0.2519  0.2021
  340POPI   C3A 5431  14.304  17.965   8.626  0.3865 -0.0620 -0.0511
  340POPI   C4A 5432  14.237  18.077   8.188 -0.0409  0.1749  0.0119
  340POPI   C1B 5433  14.350  18.672   9.164  0.3520  0.0239 -0.0584
  340POPI   C2B 5434  14.348  18.390   8.890 -0.0465 -0.2722  0.2471
  340POPI   C3B 5435  14.390  18.552   8.444  0.1714  0.2929  0.1355
  340POPI   C4B 5436  14.208  18.656   8.114  0.0574  0.1087 -0.2161
  341POPI    C1 5437  10.792  15.176  10.153 -0.0713  0.0070 -0.1884
  341POPI    C2 5438  10.868  15.459  10.425  0.1982 -0.1979 -0.0453
  341POPI    C3 5439  11.123  15.156  10.376 -0.1323 -0.4689 -0.1300
  341POPI   PO4 5440  10.757  15.297   9.937 -0.1626 -0.3091 -0.0645
  341POPI   GL1 5441  10.966  15.413   9.536  0.2840 -0.2341  0.2771
  341POPI   GL2 5442  11.064  15.029   9.369  0.3719  0.4479 -0.1030
  341POPI   C1A 5443  10.983  15.569   9.144 -0.1589 -0.0656 -0.0566
  341POPI   D2A 5444  10.948  15.284   8.759  0.0586  0.0041 -0.1493
  341POPI   C3A 5445  11.177  15.118   8.511 -0.2034  0.1807  0.0421
  341POPI   C4A 5446  11.414  14.933   8.227  0.1607 -0.1099  0.2361
  341POPI   C1B 5447  10.995  14.789   8.954  0.2634  0.2446 -0.3790
  341POPI   C2B 5448  10.857  14.680   8.502  0.1339  0.4155  0.1684
  341POPI   C3B 5449  11.019  14.658   8.141 -0.0165  0.4611  0.1201
  341POPI   C4B 5450  11.350  14.552   7.890 -0.3509 -0.2244  0.0250
  342POPI    C1 5451   9.190  16.552  10.256 -0.1268  0.1506 -0.1905
  342POPI    C2 5452   9.002  16.391  10.570  0.3178 -0.1260 -0.0570
  342POPI    C3 5453   9.122  16.772  10.583 -0.0833  0.0048 -0.0821
  342POPI   PO4 5454   9.271  16.381  10.164  0.0606  0.3214  0.0541
  342POPI   GL1 5455   9.160  16.245   9.706 -0.0030 -0.0084 -0.0548
  342POPI   GL2 5456   9.494  16.407   9.677  0.0774 -0.0606 -0.0599
  342POPI   C1A 5457   8.808  16.029   9.526  0.4417 -0.1547 -0.1070
  342POPI   D2A 5458   8.501  15.945   9.104  0.0500 -0.1642  0.0277
  342POPI   C3A 5459   8.563  15.971   8.718  0.0907 -0.1425 -0.0042
  342POPI   C4A 5460   8.792  15.840   8.322  0.0719 -0.2463 -0.0209
  342POPI   C1B 5461   9.513  16.376   9.139  0.1178  0.1531  0.0598
  342POPI   C2B 5462   9.657  16.160   8.781 -0.0146  0.1786 -0.0136
  342POPI   C3B 5463   9.566  16.412   8.352 -0.0102 -0.0994  0.4742
  342POPI   C4B 5464   9.655  16.157   7.966 -0.3639  0.1937  0.0152
  343POPI    C1 5465   6.619  13.381  10.279 -0.2944  0.2690 -0.0927
  343POPI    C2 5466   6.498  13.257  10.640 -0.1444  0.0876 -0.1037
  343POPI    C3 5467   6.839  13.463  10.602 -0.1911  0.1596 -0.1346
  343POPI   PO4 5468   6.517  13.195  10.101  0.1447 -0.0823  0.2052
  343POPI   GL1 5469   6.315  13.303   9.754 -0.2380  0.0221  0.0650
  343POPI   GL2 5470   6.266  13.682   9.679 -0.0619  0.0424 -0.0041
  343POPI   C1A 5471   6.399  13.104   9.299 -0.2980  0.1595  0.1010
  343POPI   D2A 5472   6.507  13.053   8.891 -0.1242  0.1499 -0.1713
  343POPI   C3A 5473   6.489  13.060   8.443  0.0809  0.1569  0.0353
  343POPI   C4A 5474   6.454  12.996   8.055  0.1107  0.3393 -0.1919
  343POPI   C1B 5475   6.098  13.623   9.412  0.0503  0.1451  0.4004
  343POPI   C2B 5476   6.233  13.476   9.048 -0.2386 -0.4106 -0.2179
  343POPI   C3B 5477   6.374  13.507   8.592 -0.1803  0.0444 -0.0582
  343POPI   C4B 5478   6.354  13.668   8.189 -0.1324 -0.1373  0.2567
  344POPI    C1 5479   6.219   1.174  10.095 -0.0754 -0.0067  0.1461
  344POPI    C2 5480   6.545   1.320  10.274  0.0195 -0.1008  0.0521
  344POPI    C3 5481   6.293   1.086  10.478  0.0978 -0.1625  0.0785
  344POPI   PO4 5482   6.093   1.406   9.935  0.0792  0.0239  0.2899
  344POPI   GL1 5483   5.901   1.460   9.547 -0.0240  0.0946 -0.1164
  344POPI   GL2 5484   5.569   1.652   9.598  0.1162  0.1681  0.2105
  344POPI   C1A 5485   5.992   1.448   9.174  0.1657  0.2488 -0.1484
  344POPI   D2A 5486   5.941   1.441   8.808 -0.0474 -0.1527  0.1464
  344POPI   C3A 5487   6.150   1.582   8.457 -0.0207  0.0868 -0.0021
  344POPI   C4A 5488   5.995   1.578   8.074  0.1118 -0.1593 -0.0609
  344POPI   C1B 5489   5.644   1.820   9.171  0.1115 -0.2349 -0.1906
  344POPI   C2B 5490   5.803   1.872   8.691  0.0278 -0.1078 -0.0798
  344POPI   C3B 5491   5.829   1.946   8.362  0.3942  0.0975  0.0708
  344POPI   C4B 5492   5.611   2.214   8.013 -0.0866 -0.1666 -0.2366
  345POPI    C1 5493  16.950  12.524  10.189  0.1142  0.0087 -0.1600
  345POPI    C2 5494  17.255  12.521  10.447 -0.0413 -0.4690  0.0295
  345POPI    C3 5495  16.952  12.778  10.498  0.0967 -0.3214  0.1171
  345POPI   PO4 5496  16.817  12.228  10.191 -0.1068 -0.0429  0.2187
  345POPI   GL1 5497  16.715  12.080   9.845 -0.1874  0.2848 -0.0356
  345POPI   GL2 5498  16.741  12.423   9.719  0.0236 -0.0113  0.2223
  345POPI   C1A 5499  16.490  12.109   9.506 -0.0573 -0.1370  0.1609
  345POPI   D2A 5500  16.563  12.277   9.184 -0.2313  0.0822 -0.3734
  345POPI   C3A 5501  16.594  12.045   8.826 -0.1553  0.0309  0.0028
  345POPI   C4A 5502  16.557  11.588   8.701  0.0785  0.2386 -0.1393
  345POPI   C1B 5503  17.030  12.243   9.457  0.0540 -0.0198 -0.1235
  345POPI   C2B 5504  17.104  12.152   9.078 -0.1154 -0.4911  0.4133
  345POPI   C3B 5505  17.049  12.015   8.618 -0.0725  0.0086 -0.1923
  345POPI   C4B 5506  17.171  12.059   8.206 -0.0172  0.1387  0.2090
  346POPI    C1 5507  16.374   5.231  10.946  0.0317  0.1769  0.0920
  346POPI    C2 5508  16.655   5.510  11.002  0.0075  0.1990  0.1027
  346POPI    C3 5509  16.532   5.285  11.309 -0.0425  0.2426  0.1148
  346POPI   PO4 5510  16.458   5.222  10.616 -0.1918  0.0324 -0.0172
  346POPI   GL1 5511  16.168   4.975  10.278 -0.0016 -0.3636 -0.1458
  346POPI   GL2 5512  15.837   5.142  10.136 -0.0387  0.0781  0.2161
  346POPI   C1A 5513  16.315   5.146   9.884 -0.2050  0.0827 -0.5750
  346POPI   D2A 5514  16.724   5.231   9.843  0.2353 -0.2380 -0.0592
  346POPI   C3A 5515  16.754   5.503   9.683 -0.2660 -0.1014 -0.2293
  346POPI   C4A 5516  16.779   5.613   9.284 -0.1008  0.3852 -0.0394
  346POPI   C1B 5517  15.776   5.325   9.819  0.2133  0.0917  0.0412
  346POPI   C2B 5518  15.733   5.413   9.377  0.1740  0.2045  0.1086
  346POPI   C3B 5519  15.757   5.222   8.960  0.3600 -0.0150 -0.1383
  346POPI   C4B 5520  15.930   5.198   8.496 -0.1400  0.0228 -0.0357
  347POPI    C1 5521  11.335   2.695  11.005  0.1700  0.0275 -0.1160
  347POPI    C2 5522  11.319   2.371  11.240 -0.0001  0.0356 -0.1152
  347POPI    C3 5523  11.498   2.705  11.371  0.2275 -0.0755 -0.1385
  347POPI   PO4 5524  11.119   2.762  10.864  0.0429 -0.1489  0.0144
  347POPI   GL1 5525  10.977   2.727  10.446 -0.0958 -0.3029  0.3246
  347POPI   GL2 5526  10.716   2.652  10.215 -0.0352  0.1182 -0.3090
  347POPI   C1A 5527  11.247   2.825  10.040 -0.0494  0.1102 -0.0009
  347POPI   D2A 5528  11.328   2.844   9.622 -0.4298  0.1427 -0.0049
  347POPI   C3A 5529  11.345   3.003   9.118  0.1873  0.1495  0.2644
  347POPI   C4A 5530  11.492   3.028   8.773 -0.0715 -0.1076  0.0191
  347POPI   C1B 5531  10.693   2.648   9.775  0.0192  0.1989 -0.1526
  347POPI   C2B 5532  10.851   2.642   9.462 -0.2695  0.1159 -0.2116
  347POPI   C3B 5533  11.113   2.551   9.159 -0.2345 -0.0806  0.1116
  347POPI   C4B 5534  11.400   2.540   8.844  0.2677  0.1347  0.1203
  348POPI    C1 5535   5.972  16.500   9.460 -0.0208  0.0211 -0.1748
  348POPI    C2 5536   5.788  16.542   9.813  0.1215  0.0058 -0.0980
  348POPI    C3 5537   5.623  16.694   9.481  0.1570  0.3249  0.0277
  348POPI   PO4 5538   6.034  16.206   9.458 -0.1220 -0.0586  0.0294
  348POPI   GL1 5539   6.040  15.946   9.156  0.3262  0.0427  0.1179
  348POPI   GL2 5540   5.729  15.930   9.082 -0.0832 -0.0999  0.2768
  348POPI   C1A 5541   6.245  16.040   8.790  0.0571  0.1635 -0.0034
  348POPI   D2A 5542   6.525  16.071   8.488  0.0348 -0.1737  0.2166
  348POPI   C3A 5543   6.482  16.122   8.161 -0.2191 -0.0983 -0.2251
  348POPI   C4A 5544   6.520  16.433   7.891  0.0732 -0.1175 -0.0419
  348POPI   C1B 5545   5.859  15.787   8.723  0.2291  0.1054  0.1398
  348POPI   C2B 5546   6.006  16.003   8.354  0.2783 -0.2639 -0.1530
  348POPI   C3B 5547   5.813  16.065   7.895  0.0096  0.2754 -0.0583
  348POPI   C4B 5548   5.809  16.209   7.431  0.2746  0.0481 -0.0545
  349POPI    C1 5549  12.592  14.437  10.338  0.0653  0.0639 -0.2852
  349POPI    C2 5550  12.982  14.387  10.412 -0.0040 -0.0779 -0.0020
  349POPI    C3 5551  12.728  14.453  10.714 -0.1986  0.0299 -0.1863
  349POPI   PO4 5552  12.510  14.217  10.153  0.0228  0.4083 -0.1233
  349POPI   GL1 5553  12.406  14.278   9.717 -0.2774 -0.3009 -0.0252
  349POPI   GL2 5554  12.727  14.116   9.516  0.3352 -0.2780 -0.2607
  349POPI   C1A 5555  12.352  14.377   9.284  0.2123  0.3449  0.1039
  349POPI   D2A 5556  12.372  14.051   8.974  0.0688  0.0985 -0.2697
  349POPI   C3A 5557  12.143  14.148   8.618 -0.0805 -0.3355  0.4093
  349POPI   C4A 5558  12.164  14.288   8.228  0.1725 -0.1274 -0.0233
  349POPI   C1B 5559  12.903  14.062   9.120 -0.2219  0.0010  0.0400
  349POPI   C2B 5560  13.163  13.907   8.789  0.1197 -0.0222 -0.1372
  349POPI   C3B 5561  13.474  13.823   8.339  0.1970 -0.0345  0.1058
  349POPI   C4B 5562  13.580  13.882   7.881 -0.0307 -0.1806  0.4130
  350POPI    C1 5563  12.591   8.255  11.032 -0.0991  0.2810  0.2486
  350POPI    C2 5564  12.375   7.925  11.102  0.0194  0.2111  0.2878
  350POPI    C3 5565  12.748   7.953  11.243  0.0639  0.2988  0.1540
  350POPI   PO4 5566  12.474   8.276  10.718 -0.1162 -0.1763 -0.3263
  350POPI   GL1 5567  12.291   8.254  10.324 -0.0883 -0.1139 -0.0373
  350POPI   GL2 5568  12.008   8.328  10.179  0.0649 -0.1364  0.1102
  350POPI   C1A 5569  12.525   7.972   9.974  0.0603 -0.1622 -0.2806
  350POPI   D2A 5570  12.837   8.119   9.746  0.0004  0.1149  0.1177
  350POPI   C3A 5571  12.763   8.102   9.322  0.1969  0.0530  0.1010
  350POPI   C4A 5572  12.478   8.088   8.996 -0.0939  0.2122 -0.1710
  350POPI   C1B 5573  12.144   8.226   9.787  0.3468  0.2725  0.2390
  350POPI   C2B 5574  12.317   8.003   9.470 -0.2196 -0.1949 -0.0954
  350POPI   C3B 5575  12.276   7.627   9.279  0.1276  0.0607  0.1536
  350POPI   C4B 5576  12.079   7.364   8.928 -0.0468  0.1855 -0.1123
  351POPI    C1 5577  15.732   3.668  10.512  0.0834 -0.1548  0.1572
  351POPI    C2 5578  15.954   3.356  10.395  0.2029  0.0559 -0.1924
  351POPI    C3 5579  16.101   3.618  10.659  0.1211 -0.1527  0.0643
  351POPI   PO4 5580  15.505   3.667  10.336  0.1813  0.1513  0.0043
  351POPI   GL1 5581  15.624   3.700   9.946 -0.0667  0.1439 -0.2100
  351POPI   GL2 5582  15.406   3.516   9.805  0.0174 -0.2041 -0.1835
  351POPI   C1A 5583  15.966   3.851   9.807 -0.3299 -0.0023 -0.2384
  351POPI   D2A 5584  16.262   4.199   9.722 -0.3069  0.0237  0.0131
  351POPI   C3A 5585  16.081   4.469   9.353  0.1349  0.0510 -0.2650
  351POPI   C4A 5586  15.883   4.683   9.043 -0.0766  0.0022  0.2225
  351POPI   C1B 5587  15.792   3.403   9.576  0.0367  0.2482 -0.0258
  351POPI   C2B 5588  16.101   3.662   9.333  0.2874 -0.0997 -0.4472
  351POPI   C3B 5589  16.234   3.778   8.911 -0.0121 -0.3254  0.3722
  351POPI   C4B 5590  16.635   3.806   8.661 -0.2008 -0.1008  0.0500
  352POPI    C1 5591  13.398  18.475  10.365  0.0610  0.0523 -0.2199
  352POPI    C2 5592  13.216  18.809  10.490 -0.1071 -0.0453 -0.2005
  352POPI    C3 5593  13.420  18.582  10.750 -0.1233 -0.0396 -0.1827
  352POPI   PO4 5594  13.502  18.493  10.180  0.1579 -0.0785 -0.1799
  352POPI   GL1 5595  13.576  18.549   9.822  0.0249 -0.1522 -0.3389
  352POPI   GL2 5596  13.619  18.189   9.716  0.1150 -0.1467  0.3407
  352POPI   C1A 5597  13.499  18.543   9.413  0.3171 -0.0852  0.0899
  352POPI   D2A 5598  13.796  18.732   9.166  0.1072 -0.1150 -0.1855
  352POPI   C3A 5599  14.010  18.795   8.797  0.1202 -0.4509 -0.0494
  352POPI   C4A 5600  14.057  18.904   8.513  0.0285 -0.1896  0.0670
  352POPI   C1B 5601  13.469  18.023   9.312 -0.2429  0.1893  0.2196
  352POPI   C2B 5602  13.402  18.045   8.946  0.1512 -0.0738  0.0517
  352POPI   C3B 5603  13.380  18.294   8.676  0.0661  0.1836 -0.3408
  352POPI   C4B 5604  13.497  18.711   8.815  0.0033  0.0120 -0.1561
  353POPI    C1 5605   4.891   7.512  10.603  0.0695 -0.0282  0.2053
  353POPI    C2 5606   5.174   7.395  10.346 -0.0276  0.0746  0.0500
  353POPI    C3 5607   5.263   7.444  10.733  0.1547  0.0605  0.0104
  353POPI   PO4 5608   4.707   7.501  10.419  0.1099 -0.1307  0.1023
  353POPI   GL1 5609   4.722   7.523  10.032 -0.3805  0.2072 -0.0198
  353POPI   GL2 5610   4.986   7.359   9.905 -0.2715 -0.1613 -0.2423
  353POPI   C1A 5611   4.574   7.665   9.758  0.0667  0.0514  0.1129
  353POPI   D2A 5612   4.452   7.695   9.328  0.1836  0.1004 -0.4641
  353POPI   C3A 5613   4.400   7.614   8.897  0.0528  0.1693 -0.0853
  353POPI   C4A 5614   4.376   7.527   8.486 -0.2462  0.1546  0.1544
  353POPI   C1B 5615   5.210   7.723   9.782  0.0456  0.1706 -0.0315
  353POPI   C2B 5616   5.061   7.910   9.401 -0.1046 -0.0421  0.3705
  353POPI   C3B 5617   4.875   7.818   9.045 -0.0823  0.3702 -0.0559
  353POPI   C4B 5618   4.859   7.598   8.677  0.3250  0.0702  0.2000
  354POPI    C1 5619   7.667  10.004  10.412  0.2405 -0.1371  0.0713
  354POPI    C2 5620   7.514   9.740  10.672  0.0887 -0.2627 -0.1424
  354POPI    C3 5621   7.443  10.131  10.718 -0.4282 -0.3281 -0.3174
  354POPI   PO4 5622   7.558   9.912  10.167 -0.0671 -0.1933  0.2068
  354POPI   GL1 5623   7.348   9.935   9.699 -0.2437 -0.0389  0.1605
  354POPI   GL2 5624   7.245   9.670   9.852  0.1411 -0.1279  0.0005
  354POPI   C1A 5625   7.336   9.813   9.293  0.2413  0.0086  0.1548
  354POPI   D2A 5626   7.102   9.598   8.917  0.2170  0.2052  0.1677
  354POPI   C3A 5627   7.251   9.648   8.406 -0.0904  0.2481  0.2043
  354POPI   C4A 5628   7.424   9.388   8.007 -0.2201 -0.0409  0.0911
  354POPI   C1B 5629   7.100   9.439   9.487  0.2288  0.1081  0.2064
  354POPI   C2B 5630   6.852   9.261   9.162  0.0803 -0.0737 -0.4132
  354POPI   C3B 5631   6.973   9.187   8.714  0.1681 -0.1962  0.0661
  354POPI   C4B 5632   7.324   9.195   8.637 -0.0054  0.1435 -0.0621
  355POPI    C1 5633   1.579  10.925  10.737  0.0340  0.1059 -0.0520
  355POPI    C2 5634   1.710  11.262  10.909 -0.0867  0.1268 -0.0001
  355POPI    C3 5635   1.619  10.944  11.135 -0.0703  0.0933 -0.0406
  355POPI   PO4 5636   1.395  11.013  10.567 -0.1572  0.0549  0.2140
  355POPI   GL1 5637   1.275  10.825  10.114 -0.0258 -0.0200 -0.0403
  355POPI   GL2 5638   1.393  11.124   9.964  0.0473  0.0951  0.2837
  355POPI   C1A 5639   0.979  10.646   9.874 -0.0704  0.2540  0.0686
  355POPI   D2A 5640   0.898  10.424   9.580  0.1853 -0.1617 -0.0722
  355POPI   C3A 5641   0.531  10.276   9.632  0.2365 -0.1762  0.0995
  355POPI   C4A 5642   0.440  10.450   9.204 -0.2490 -0.0163 -0.1061
  355POPI   C1B 5643   1.409  10.848   9.558 -0.2682 -0.1766  0.2353
  355POPI   C2B 5644   1.151  10.606   9.192  0.1924  0.0376 -0.1924
  355POPI   C3B 5645   1.051  10.614   8.662  0.0982 -0.0293  0.1337
  355POPI   C4B 5646   1.090  10.825   8.326  0.1661 -0.2177  0.1851
  356POPI    C1 5647   0.937   5.470  10.400 -0.1211 -0.3307  0.2176
  356POPI    C2 5648   0.976   5.687  10.733  0.1635  0.2871 -0.1998
  356POPI    C3 5649   0.672   5.757  10.483  0.0049 -0.1091 -0.1256
  356POPI   PO4 5650   1.176   5.443  10.285  0.0474 -0.0455 -0.1044
  356POPI   GL1 5651   1.268   5.425   9.919  0.1733 -0.4654 -0.1285
  356POPI   GL2 5652   1.500   5.145   9.840  0.0256 -0.2872 -0.1259
  356POPI   C1A 5653   1.082   5.608   9.461 -0.1049  0.3991 -0.0053
  356POPI   D2A 5654   0.703   5.670   9.259 -0.0469  0.1554  0.2201
  356POPI   C3A 5655   0.721   5.948   8.960 -0.4214 -0.0222 -0.0030
  356POPI   C4A 5656   0.818   5.719   8.627  0.1870 -0.0610 -0.2658
  356POPI   C1B 5657   1.509   5.406   9.506  0.0369  0.2008 -0.0371
  356POPI   C2B 5658   1.411   5.457   8.933  0.0377 -0.0850  0.0735
  356POPI   C3B 5659   1.331   5.525   8.408  0.0296  0.0634 -0.2827
  356POPI   C4B 5660   1.004   5.663   8.141  0.3052  0.0694  0.1591
  357POPI    C1 5661  17.060   5.775  10.746  0.0889 -0.0150 -0.2376
  357POPI    C2 5662  16.902   5.436  10.606  0.0669 -0.0076 -0.2310
  357POPI    C3 5663  17.235   5.425  10.827  0.0709 -0.0239 -0.2378
  357POPI   PO4 5664  17.056   5.935  10.620  0.1807 -0.2431  0.0300
  357POPI   GL1 5665  16.752   6.075  10.283  0.0480  0.2163 -0.3829
  357POPI   GL2 5666  16.460   6.239  10.354  0.1800 -0.0427  0.2337
  357POPI   C1A 5667  16.920   5.942   9.899  0.1981  0.3497 -0.0003
  357POPI   D2A 5668  17.151   5.898   9.540 -0.1904  0.1830 -0.3516
  357POPI   C3A 5669  17.399   5.956   9.276  0.0996 -0.1003  0.2630
  357POPI   C4A 5670  17.800   5.794   9.174  0.0470 -0.0725  0.1406
  357POPI   C1B 5671  16.344   6.390   9.868 -0.1274  0.2374 -0.0355
  357POPI   C2B 5672  16.245   6.339   9.342 -0.0827 -0.1098  0.0333
  357POPI   C3B 5673  16.517   6.486   9.035  0.0555  0.0890 -0.0501
  357POPI   C4B 5674  16.599   6.316   8.719  0.0239  0.0929  0.3889
  358POPI    C1 5675  15.378   6.663  11.009  0.0378 -0.2063 -0.0036
  358POPI    C2 5676  15.016   6.686  11.177  0.0318 -0.0429 -0.0368
  358POPI    C3 5677  15.301   6.461  11.345 -0.0846 -0.1718 -0.0104
  358POPI   PO4 5678  15.273   6.505  10.729  0.0423  0.0485 -0.2953
  358POPI   GL1 5679  15.226   6.489  10.357 -0.3289 -0.0640  0.0081
  358POPI   GL2 5680  14.939   6.364  10.255 -0.0424 -0.0572 -0.0707
  358POPI   C1A 5681  15.370   6.384   9.950  0.3337 -0.1333  0.2032
  358POPI   D2A 5682  15.257   6.345   9.511  0.0858  0.0269 -0.3676
  358POPI   C3A 5683  15.426   6.399   9.030 -0.4512  0.0650  0.3237
  358POPI   C4A 5684  15.639   6.111   8.785 -0.1708 -0.0032  0.2919
  358POPI   C1B 5685  14.830   6.568   9.860 -0.0277  0.0311 -0.1719
  358POPI   C2B 5686  14.826   6.615   9.441  0.0313 -0.1561 -0.0961
  358POPI   C3B 5687  15.014   6.646   9.063 -0.0295 -0.1626  0.3633
  358POPI   C4B 5688  15.132   6.311   8.651 -0.1265  0.1217 -0.1624
  359POPI    C1 5689   1.254  18.408   9.813 -0.0613  0.0162  0.0263
  359POPI    C2 5690   1.463  18.708   9.976  0.0137 -0.0307  0.0169
  359POPI    C3 5691   1.221  18.487  10.204  0.0603 -0.0476  0.0500
  359POPI   PO4 5692   1.398  18.420   9.496 -0.0091 -0.1368  0.1693
  359POPI   GL1 5693   1.213  18.468   9.113  0.1775 -0.0208 -0.0449
  359POPI   GL2 5694   1.340  18.162   8.972 -0.3346 -0.0116  0.3970
  359POPI   C1A 5695   1.262  18.561   8.693  0.0015  0.0509  0.1338
  359POPI   D2A 5696   1.215  18.342   8.294 -0.3899  0.1054 -0.3585
  359POPI   C3A 5697   1.355  17.992   8.071 -0.1223  0.1415  0.1926
  359POPI   C4A 5698   1.309  17.906   7.792  0.1371 -0.0775  0.0466
  359POPI   C1B 5699   1.336  18.019   8.675  0.0730 -0.1977  0.1869
  359POPI   C2B 5700   1.600  17.769   8.418 -0.2815  0.1407 -0.3136
  359POPI   C3B 5701   1.730  17.679   7.980 -0.0413  0.1500  0.0497
  359POPI   C4B 5702   1.664  17.618   7.449  0.2249 -0.0277  0.1444
  360POPI    C1 5703   2.257   2.392   9.862 -0.0321  0.0421 -0.1302
  360POPI    C2 5704   1.982   2.666   9.957  0.1073  0.1136  0.0722
  360POPI    C3 5705   2.253   2.552  10.228  0.2626  0.0260 -0.1179
  360POPI   PO4 5706   2.364   2.479   9.699  0.1030 -0.0995 -0.2927
  360POPI   GL1 5707   2.471   2.345   9.222  0.0459  0.1851 -0.0369
  360POPI   GL2 5708   2.702   2.171   9.140  0.0619  0.0985 -0.0900
  360POPI   C1A 5709   2.261   2.331   8.813 -0.2120 -0.0224  0.1021
  360POPI   D2A 5710   2.036   2.313   8.468  0.0024 -0.1356 -0.1834
  360POPI   C3A 5711   2.025   2.178   8.057  0.1846  0.1578  0.0649
  360POPI   C4A 5712   1.679   2.105   7.768 -0.0832  0.3674  0.1658
  360POPI   C1B 5713   2.730   2.155   8.785  0.1349  0.1684  0.2106
  360POPI   C2B 5714   2.520   2.252   8.376 -0.1318  0.2400  0.1386
  360POPI   C3B 5715   2.626   2.303   7.983  0.4356  0.0190 -0.1632
  360POPI   C4B 5716   2.772   2.207   7.563 -0.3261 -0.0905 -0.2779
  361POPI    C1 5717   5.792  18.342  10.073  0.2614  0.1127  0.0677
  361POPI    C2 5718   5.506  18.552  10.257 -0.0500 -0.1172 -0.1430
  361POPI    C3 5719   5.886  18.586  10.375 -0.1659  0.1655  0.1652
  361POPI   PO4 5720   5.733  18.315   9.834 -0.1963  0.0432  0.0122
  361POPI   GL1 5721   5.656  18.479   9.524 -0.1964 -0.0493  0.1757
  361POPI   GL2 5722   5.486  18.655   9.220 -0.1819 -0.0615 -0.0613
  361POPI   C1A 5723   6.002  18.696   9.214  0.0563 -0.0641  0.2128
  361POPI   D2A 5724   5.780  18.913   8.804  0.2126 -0.0064 -0.0248
  361POPI   C3A 5725   5.686  19.340   8.686  0.1755  0.1123 -0.2647
  361POPI   C4A 5726   5.849  19.627   8.368 -0.2921  0.1498  0.1806
  361POPI   C1B 5727   5.526  18.445   8.785  0.3139  0.0509  0.1781
  361POPI   C2B 5728   5.463  17.988   8.731  0.0660  0.0916 -0.0100
  361POPI   C3B 5729   5.511  17.725   8.362 -0.0399  0.1712 -0.0063
  361POPI   C4B 5730   5.521  17.434   7.996  0.1729 -0.1757  0.1960
  362POPI    C1 5731   7.234   9.379  10.322  0.0649  0.1474  0.2183
  362POPI    C2 5732   7.362   9.093  10.571  0.0410  0.2971  0.4049
  362POPI    C3 5733   7.051   9.023  10.328  0.2511  0.0503  0.2015
  362POPI   PO4 5734   7.514   9.402  10.259  0.2842 -0.2382 -0.0080
  362POPI   GL1 5735   7.802   9.377   9.926 -0.0039  0.3559 -0.3835
  362POPI   GL2 5736   7.883   8.998   9.903  0.1472  0.0100 -0.0280
  362POPI   C1A 5737   7.620   9.470   9.535  0.4739  0.2662  0.2258
  362POPI   D2A 5738   7.558   9.404   9.145 -0.3291 -0.0338  0.2260
  362POPI   C3A 5739   7.655   9.537   8.789  0.2713 -0.1474 -0.0243
  362POPI   C4A 5740   7.734   9.372   8.358 -0.1379 -0.1872  0.1363
  362POPI   C1B 5741   7.946   9.058   9.564  0.1032  0.3130 -0.0707
  362POPI   C2B 5742   7.926   9.061   9.174 -0.0123 -0.0541 -0.2596
  362POPI   C3B 5743   8.015   9.210   8.714  0.3628  0.3140  0.0399
  362POPI   C4B 5744   8.255   9.430   8.392  0.1571 -0.1102  0.0776
  363POPI    C1 5745  13.167   3.781  10.623 -0.0384  0.2003 -0.0418
  363POPI    C2 5746  13.203   3.734  11.018 -0.0047  0.0574 -0.0611
  363POPI    C3 5747  13.234   4.099  10.856  0.3501  0.0717  0.0292
  363POPI   PO4 5748  12.942   3.609  10.584  0.0018 -0.1848  0.1606
  363POPI   GL1 5749  12.670   3.453  10.223 -0.1760  0.1127 -0.2725
  363POPI   GL2 5750  12.464   3.723  10.110  0.2496  0.0305  0.1329
  363POPI   C1A 5751  12.678   3.191   9.911 -0.2477 -0.1297  0.0766
  363POPI   D2A 5752  12.582   3.066   9.484 -0.0237 -0.1460  0.0424
  363POPI   C3A 5753  12.210   3.293   9.488  0.0470 -0.2594 -0.0115
  363POPI   C4A 5754  12.012   3.389   9.906  0.2475  0.0608  0.3256
  363POPI   C1B 5755  12.590   3.689   9.601  0.1152 -0.2461  0.1406
  363POPI   C2B 5756  12.714   3.763   9.152  0.1039 -0.2989  0.1388
  363POPI   C3B 5757  12.613   3.693   8.737 -0.0920 -0.0553  0.0568
  363POPI   C4B 5758  12.970   3.589   8.443 -0.0874  0.1222  0.1635
  364POPI    C1 5759   7.213   7.049  10.565 -0.0349  0.2544  0.0652
  364POPI    C2 5760   7.546   6.846  10.478 -0.0577  0.1904  0.1256
  364POPI    C3 5761   7.477   6.965  10.854 -0.2637 -0.0928  0.1807
  364POPI   PO4 5762   7.024   6.947  10.432 -0.0446 -0.3200  0.1687
  364POPI   GL1 5763   6.676   6.868  10.141  0.0683 -0.1936 -0.0600
  364POPI   GL2 5764   6.459   6.672  10.136  0.3011  0.0929 -0.4133
  364POPI   C1A 5765   6.921   7.017   9.830 -0.1093 -0.1640  0.2055
  364POPI   D2A 5766   7.025   7.310   9.412  0.0561  0.2974 -0.4435
  364POPI   C3A 5767   7.170   7.639   9.281 -0.0012 -0.0985 -0.1757
  364POPI   C4A 5768   7.013   7.896   8.917  0.0232 -0.2680  0.1568
  364POPI   C1B 5769   6.707   6.614   9.730 -0.0253  0.1050 -0.0988
  364POPI   C2B 5770   6.710   6.612   9.269 -0.0384  0.2907 -0.1934
  364POPI   C3B 5771   6.767   6.427   8.807  0.0406  0.0075 -0.2016
  364POPI   C4B 5772   7.023   6.296   8.399  0.0972  0.1222 -0.0473
  365POPI    C1 5773  18.166   7.532  10.455  0.0346 -0.3031  0.0184
  365POPI    C2 5774  18.037   7.368  10.796  0.1593 -0.0583  0.1865
  365POPI    C3 5775  18.003   7.762  10.739  0.2004 -0.0887 -0.0579
  365POPI   PO4 5776  18.153   7.304  10.262  0.0860  0.0987 -0.1643
  365POPI   GL1 5777  17.926   7.242   9.919  0.0361  0.1273 -0.2384
  365POPI   GL2 5778  18.025   6.888   9.891 -0.1567 -0.0718 -0.1754
  365POPI   C1A 5779  17.982   7.248   9.511  0.1193  0.3062  0.2895
  365POPI   D2A 5780  17.883   7.210   8.995 -0.1398  0.1726 -0.0311
  365POPI   C3A 5781  18.005   7.500   8.739 -0.1047 -0.3283 -0.1552
  365POPI   C4A 5782  17.853   7.662   8.325  0.0648 -0.1106 -0.2055
  365POPI   C1B 5783  17.747   6.818   9.536  0.1352  0.1943 -0.0797
  365POPI   C2B 5784  17.737   6.691   9.119  0.0259  0.4825 -0.0950
  365POPI   C3B 5785  17.814   6.663   8.643  0.0896 -0.0224 -0.0961
  365POPI   C4B 5786  18.023   6.747   8.195 -0.1096  0.1573 -0.1186
  366POPI    C1 5787   2.824   4.342   9.756 -0.1373 -0.0133 -0.0865
  366POPI    C2 5788   2.661   4.660   9.576 -0.5928 -0.2329 -0.0763
  366POPI    C3 5789   2.623   4.613   9.972 -0.0570 -0.0277  0.0070
  366POPI   PO4 5790   2.785   4.077   9.618 -0.0373  0.5183  0.2028
  366POPI   GL1 5791   2.754   3.972   9.246 -0.2704 -0.1248  0.3061
  366POPI   GL2 5792   2.545   4.244   9.211 -0.3107  0.0596  0.1393
  366POPI   C1A 5793   2.879   4.230   8.865 -0.0328 -0.0092  0.1457
  366POPI   D2A 5794   3.036   4.674   8.741  0.0436 -0.0656  0.2014
  366POPI   C3A 5795   3.268   4.824   8.434 -0.2291  0.0512 -0.0721
  366POPI   C4A 5796   3.209   4.793   8.001  0.0976  0.1153 -0.0595
  366POPI   C1B 5797   2.503   4.543   8.783  0.0035 -0.0070  0.0574
  366POPI   C2B 5798   2.477   4.721   8.361  0.0676  0.1199  0.1845
  366POPI   C3B 5799   2.448   4.716   7.912 -0.0244  0.3442  0.3517
  366POPI   C4B 5800   2.661   4.994   7.643  0.0746  0.1381 -0.0562
  367POPI    C1 5801   4.711  12.387  10.520  0.1996  0.1629  0.1922
  367POPI    C2 5802   4.606  12.699  10.747  0.0785  0.0711  0.2641
  367POPI    C3 5803   4.412  12.352  10.784 -0.1213  0.1298 -0.1668
  367POPI   PO4 5804   4.719  12.492  10.292 -0.1205  0.1695  0.2166
  367POPI   GL1 5805   5.034  12.601   9.925  0.1610  0.0064  0.0788
  367POPI   GL2 5806   4.751  12.712   9.744  0.1972  0.5195 -0.0408
  367POPI   C1A 5807   5.281  12.666   9.594 -0.0881 -0.0086 -0.2090
  367POPI   D2A 5808   5.358  12.702   9.204 -0.0849 -0.0188  0.0785
  367POPI   C3A 5809   5.443  13.096   8.970 -0.0466  0.4160  0.0947
  367POPI   C4A 5810   5.338  13.221   8.672 -0.0770 -0.0617 -0.2762
  367POPI   C1B 5811   4.903  12.826   9.342 -0.3022 -0.0237 -0.3132
  367POPI   C2B 5812   5.038  12.818   8.858 -0.0190  0.2222  0.0518
  367POPI   C3B 5813   5.356  12.728   8.582  0.1785  0.3859 -0.1034
  367POPI   C4B 5814   5.535  12.948   8.176  0.4876  0.3764 -0.0319
  368POPI    C1 5815  12.556  10.146  10.422  0.0887 -0.1432 -0.0413
  368POPI    C2 5816  12.255  10.295  10.639  0.0857 -0.1012 -0.0740
  368POPI    C3 5817  12.534  10.066  10.813 -0.0080 -0.2053 -0.0590
  368POPI   PO4 5818  12.512  10.193  10.169 -0.2517  0.0551 -0.1353
  368POPI   GL1 5819  12.758  10.207   9.914  0.0945 -0.2009 -0.1985
  368POPI   GL2 5820  13.140  10.271   9.902 -0.1868 -0.3385 -0.1916
  368POPI   C1A 5821  12.741  10.295   9.434  0.0012  0.0349 -0.1411
  368POPI   D2A 5822  12.863  10.266   9.014  0.3008 -0.1195 -0.1865
  368POPI   C3A 5823  12.915   9.871   8.803 -0.1552  0.2470  0.0195
  368POPI   C4A 5824  13.032   9.695   8.418  0.0911 -0.1478  0.0550
  368POPI   C1B 5825  13.244   9.980   9.533  0.4408 -0.0815 -0.3751
  368POPI   C2B 5826  13.308  10.003   9.144 -0.0755 -0.0837 -0.0332
  368POPI   C3B 5827  13.416   9.685   8.725 -0.0526  0.1005  0.0496
  368POPI   C4B 5828  13.587   9.482   8.388 -0.1585  0.1461  0.0360
  369POPI    C1 5829   9.078   3.841  10.678  0.1120 -0.0664 -0.0882
  369POPI    C2 5830   8.709   3.982  10.744  0.0865 -0.0790 -0.2006
  369POPI    C3 5831   8.922   3.828  11.046  0.0097 -0.0484 -0.1304
  369POPI   PO4 5832   9.205   4.038  10.527 -0.3039  0.0323  0.1364
  369POPI   GL1 5833   9.295   4.023  10.137  0.0516  0.2376 -0.1371
  369POPI   GL2 5834   9.115   3.760  10.079 -0.2938  0.0400  0.0687
  369POPI   C1A 5835   9.570   4.117   9.809  0.1393 -0.1988 -0.1090
  369POPI   D2A 5836   9.547   4.276   9.463 -0.0502 -0.0701 -0.2836
  369POPI   C3A 5837   9.773   4.493   8.988 -0.1818 -0.0542 -0.1883
  369POPI   C4A 5838   9.955   4.596   8.619 -0.3027  0.1303 -0.0694
  369POPI   C1B 5839   9.050   4.095   9.662  0.0267  0.0192 -0.1820
  369POPI   C2B 5840   9.125   4.112   9.283  0.3482  0.0650  0.2266
  369POPI   C3B 5841   9.407   4.186   8.976 -0.0974 -0.0432  0.2707
  369POPI   C4B 5842   9.492   4.389   8.602 -0.3139  0.0271  0.0069
  370POPI    C1 5843  11.746   1.195  10.752 -0.1573  0.0586  0.0616
  370POPI    C2 5844  11.474   1.000  10.971  0.0295 -0.0257  0.2217
  370POPI    C3 5845  11.769   1.201  11.151  0.2307 -0.1617  0.0473
  370POPI   PO4 5846  11.774   1.021  10.539  0.2110  0.1725  0.2485
  370POPI   GL1 5847  11.891   0.889  10.178  0.0239 -0.1281  0.0390
  370POPI   GL2 5848  12.185   1.070  10.183  0.2467  0.3998  0.2521
  370POPI   C1A 5849  11.789   0.899   9.764  0.0595 -0.2017  0.0224
  370POPI   D2A 5850  11.869   0.918   9.428  0.0350 -0.0542  0.2425
  370POPI   C3A 5851  11.633   0.836   9.043 -0.1830 -0.2693  0.0699
  370POPI   C4A 5852  11.520   0.856   8.671  0.3438  0.0098 -0.0078
  370POPI   C1B 5853  12.199   1.206   9.701 -0.0109  0.1123 -0.3369
  370POPI   C2B 5854  12.282   1.208   9.317  0.0137  0.0297  0.1754
  370POPI   C3B 5855  12.105   1.127   8.977 -0.1620 -0.1142 -0.1044
  370POPI   C4B 5856  12.260   1.149   8.506 -0.0781 -0.3322 -0.0508
  371POPI    C1 5857  11.072   1.004  10.593  0.0128 -0.0081  0.0137
  371POPI    C2 5858  10.926   1.275  10.337 -0.0375 -0.1888 -0.1507
  371POPI    C3 5859  11.255   1.357  10.549 -0.1560  0.0714 -0.0634
  371POPI   PO4 5860  11.062   0.768  10.424  0.4200 -0.0268  0.0332
  371POPI   GL1 5861  10.974   0.838  10.021 -0.1516 -0.1315 -0.0879
  371POPI   GL2 5862  10.703   1.004   9.854 -0.0677 -0.3140  0.3090
  371POPI   C1A 5863  11.293   0.957   9.704  0.0972 -0.3916 -0.0325
  371POPI   D2A 5864  11.260   0.972   9.343 -0.1172  0.2166 -0.1902
  371POPI   C3A 5865  11.037   0.891   9.000  0.1771 -0.3088 -0.1091
  371POPI   C4A 5866  11.013   0.734   8.575  0.4062 -0.1183 -0.1949
  371POPI   C1B 5867  10.669   1.025   9.415  0.0418  0.0472 -0.2408
  371POPI   C2B 5868  10.490   0.843   9.057 -0.0830 -0.0182 -0.0448
  371POPI   C3B 5869  10.408   0.874   8.605  0.0320  0.0978  0.1001
  371POPI   C4B 5870  10.591   0.561   8.327 -0.3212 -0.0422 -0.1197
  372POPI    C1 5871   0.103  18.323   9.661  0.0705  0.2877 -0.1065
  372POPI    C2 5872  -0.198  18.401   9.914 -0.0214 -0.2338 -0.0434
  372POPI    C3 5873   0.175  18.516  10.004 -0.1567  0.1887 -0.0009
  372POPI   PO4 5874  -0.069  18.380   9.367  0.5335 -0.2875  0.1959
  372POPI   GL1 5875  -0.344  18.690   9.132 -0.0981  0.0141 -0.1802
  372POPI   GL2 5876  -0.283  19.014   9.086 -0.1032 -0.1784  0.2988
  372POPI   C1A 5877  -0.376  18.614   8.703 -0.0919  0.2117 -0.1019
  372POPI   D2A 5878  -0.345  18.707   8.335 -0.2477  0.0520 -0.0184
  372POPI   C3A 5879  -0.275  18.648   7.986  0.1102  0.5782 -0.1216
  372POPI   C4A 5880  -0.487  18.599   7.665 -0.1879 -0.0042 -0.2921
  372POPI   C1B 5881  -0.193  19.101   8.612 -0.1393  0.2861 -0.0374
  372POPI   C2B 5882  -0.101  19.069   8.189  0.0985 -0.1367 -0.0872
  372POPI   C3B 5883  -0.111  19.385   7.895 -0.1867 -0.1486  0.0913
  372POPI   C4B 5884   0.119  19.417   7.457  0.2609 -0.2637 -0.0927
  373POPI    C1 5885  11.899  11.640  10.532  0.0028 -0.1870  0.1642
  373POPI    C2 5886  12.162  11.409  10.725  0.1984 -0.0104  0.1123
  373POPI    C3 5887  12.169  11.805  10.776  0.1853  0.0293 -0.1764
  373POPI   PO4 5888  11.908  11.640  10.269 -0.0814 -0.2052  0.1313
  373POPI   GL1 5889  11.633  11.572   9.932  0.1782 -0.0415  0.2546
  373POPI   GL2 5890  11.885  11.465   9.749  0.2904  0.4251  0.1552
  373POPI   C1A 5891  11.412  11.369   9.477 -0.0856  0.1134 -0.0577
  373POPI   D2A 5892  11.314  11.428   8.997 -0.3711  0.0368  0.3250
  373POPI   C3A 5893  11.179  11.195   8.690  0.0124  0.1314 -0.4536
  373POPI   C4A 5894  11.140  11.102   8.334  0.2225  0.0871  0.1740
  373POPI   C1B 5895  11.888  11.390   9.274  0.0757  0.0190 -0.1635
  373POPI   C2B 5896  11.795  11.310   8.855 -0.0105  0.0716 -0.1077
  373POPI   C3B 5897  11.606  11.223   8.517  0.0238  0.3010 -0.0296
  373POPI   C4B 5898  11.536  11.195   8.015 -0.0572  0.0035 -0.4075
  374POPI    C1 5899   7.493  18.095  10.199  0.1352  0.0234 -0.0178
  374POPI    C2 5900   7.697  18.335  10.446 -0.0504  0.0962  0.0664
  374POPI    C3 5901   7.614  17.960  10.555 -0.0820  0.1103  0.0910
  374POPI   PO4 5902   7.665  18.075   9.937  0.0435 -0.0587 -0.1103
  374POPI   GL1 5903   7.894  18.283   9.605  0.1309  0.0512 -0.2424
  374POPI   GL2 5904   8.043  18.262   9.703  0.0464  0.1614  0.2222
  374POPI   C1A 5905   7.927  18.316   9.155 -0.1585  0.0517  0.3256
  374POPI   D2A 5906   7.587  18.332   8.959 -0.2445  0.0157 -0.0798
  374POPI   C3A 5907   7.530  18.033   8.653  0.0022  0.6817 -0.0473
  374POPI   C4A 5908   7.292  18.097   8.242 -0.2081 -0.0870 -0.1891
  374POPI   C1B 5909   8.330  18.072   9.384 -0.0177 -0.1078  0.0649
  374POPI   C2B 5910   8.472  17.922   8.906  0.1405  0.1328 -0.1345
  374POPI   C3B 5911   8.431  17.993   8.501 -0.1292 -0.1615 -0.0090
  374POPI   C4B 5912   8.177  18.117   8.221  0.0902 -0.1636 -0.0585
  375POPI    C1 5913  13.499  11.529  10.456  0.1882 -0.1304 -0.0852
  375POPI    C2 5914  13.373  11.887  10.330 -0.0812 -0.2438 -0.1455
  375POPI    C3 5915  13.252  11.745  10.684  0.0827 -0.2454 -0.0890
  375POPI   PO4 5916  13.471  11.426  10.228 -0.2711 -0.0945 -0.0560
  375POPI   GL1 5917  13.279  11.234   9.830  0.4529 -0.3616  0.4811
  375POPI   GL2 5918  13.654  11.232   9.772 -0.3890  0.3006 -0.4055
  375POPI   C1A 5919  12.991  11.512   9.631  0.4945 -0.1069  0.2608
  375POPI   D2A 5920  12.821  11.667   9.325 -0.1178  0.0802 -0.2135
  375POPI   C3A 5921  12.897  11.617   8.849 -0.2737  0.0899  0.1949
  375POPI   C4A 5922  13.035  11.470   8.383 -0.0703  0.2631  0.6275
  375POPI   C1B 5923  13.491  11.164   9.320  0.0907 -0.1077  0.1557
  375POPI   C2B 5924  13.621  11.052   8.968 -0.2469  0.3068  0.0011
  375POPI   C3B 5925  13.891  10.970   8.623 -0.0241 -0.1066  0.1047
  375POPI   C4B 5926  14.201  11.088   8.323 -0.0598  0.0361  0.2152
  376POPI    C1 5927  16.294  15.880   9.765 -0.0999 -0.1195 -0.2866
  376POPI    C2 5928  16.181  15.713  10.110  0.0391 -0.1006 -0.2317
  376POPI    C3 5929  15.958  16.000   9.945  0.1101  0.0795 -0.0196
  376POPI   PO4 5930  16.600  15.668   9.688 -0.3265  0.0706 -0.0077
  376POPI   GL1 5931  16.943  15.600   9.356 -0.4763  0.0179 -0.1445
  376POPI   GL2 5932  16.763  15.390   9.297  0.3064 -0.0437 -0.3526
  376POPI   C1A 5933  17.068  15.623   8.894  0.1098  0.0546 -0.0058
  376POPI   D2A 5934  17.000  15.589   8.442 -0.1588  0.1253 -0.1476
  376POPI   C3A 5935  17.133  15.710   8.102 -0.2169  0.0736 -0.1013
  376POPI   C4A 5936  17.018  15.878   7.696  0.0383  0.2625  0.1416
  376POPI   C1B 5937  16.633  15.438   8.826  0.0305 -0.1095  0.2938
  376POPI   C2B 5938  16.564  15.256   8.399 -0.0032  0.0641 -0.2818
  376POPI   C3B 5939  16.772  14.989   8.061  0.0129  0.3495 -0.1202
  376POPI   C4B 5940  16.820  14.928   7.618  0.0609  0.1884  0.0843
  377POPI    C1 5941   5.466   0.471   9.633  0.0066  0.0268 -0.1206
  377POPI    C2 5942   5.345   0.499  10.013 -0.2037  0.1949 -0.1981
  377POPI    C3 5943   5.722   0.395   9.931 -0.2721 -0.2781  0.0482
  377POPI   PO4 5944   5.163   0.432   9.539  0.0869 -0.0273  0.0559
  377POPI   GL1 5945   4.930   0.460   9.106  0.0961 -0.1819 -0.1156
  377POPI   GL2 5946   4.596   0.348   8.966  0.1744  0.1341 -0.3788
  377POPI   C1A 5947   5.312   0.494   8.814  0.2132 -0.2047  0.0682
  377POPI   D2A 5948   5.388   0.383   8.395 -0.0277 -0.1681  0.2560
  377POPI   C3A 5949   5.665   0.674   8.157  0.2514 -0.0860  0.3722
  377POPI   C4A 5950   5.688   0.665   7.700  0.1103 -0.2414  0.1830
  377POPI   C1B 5951   4.873   0.495   8.572 -0.2213  0.0959 -0.1418
  377POPI   C2B 5952   4.982   0.658   8.147  0.0251  0.2456  0.3552
  377POPI   C3B 5953   4.898   0.736   7.647  0.1384  0.2828 -0.2040
  377POPI   C4B 5954   4.957   0.955   7.313 -0.3507  0.1492 -0.2477
  378POPI    C1 5955   2.358   3.840   9.633 -0.1627 -0.1556 -0.2351
  378POPI    C2 5956   2.262   3.498   9.815  0.0710 -0.0402  0.1151
  378POPI    C3 5957   2.390   3.810  10.030  0.1216  0.1803 -0.2271
  378POPI   PO4 5958   2.307   3.739   9.397  0.0446 -0.1612 -0.4069
  378POPI   GL1 5959   2.432   3.737   8.999  0.4759  0.1586  0.5518
  378POPI   GL2 5960   2.306   3.366   8.954  0.1543  0.1480 -0.2060
  378POPI   C1A 5961   2.445   4.030   8.615 -0.2029 -0.0169  0.0907
  378POPI   D2A 5962   2.427   4.251   8.172 -0.0121 -0.0792  0.2552
  378POPI   C3A 5963   2.401   4.163   7.712  0.2326  0.1865 -0.0906
  378POPI   C4A 5964   2.192   4.202   7.330 -0.1480 -0.1680  0.2332
  378POPI   C1B 5965   2.269   3.542   8.467 -0.1101  0.0513  0.1264
  378POPI   C2B 5966   2.161   3.819   8.057  0.0836 -0.1802 -0.5561
  378POPI   C3B 5967   2.164   3.672   7.654  0.2493 -0.0932  0.2025
  378POPI   C4B 5968   2.229   3.612   7.203 -0.2417  0.1754 -0.2868
  379POPI    C1 5969  16.165  12.682  10.587  0.0851  0.1257 -0.0784
  379POPI    C2 5970  15.955  12.589  10.914  0.2951 -0.1980 -0.0314
  379POPI    C3 5971  16.027  12.972  10.825 -0.0431 -0.0957  0.1204
  379POPI   PO4 5972  15.979  12.502  10.396  0.3114 -0.1296  0.2448
  379POPI   GL1 5973  15.869  12.571   9.992 -0.1726 -0.1471  0.1417
  379POPI   GL2 5974  16.113  12.403   9.833  0.0088  0.0244 -0.1528
  379POPI   C1A 5975  15.701  12.777   9.723  0.1278  0.0070  0.0461
  379POPI   D2A 5976  15.715  12.711   9.352 -0.1911  0.0974  0.0710
  379POPI   C3A 5977  15.550  12.353   9.229 -0.5001  0.1378 -0.0730
  379POPI   C4A 5978  15.357  12.091   8.945 -0.0268 -0.1149  0.2023
  379POPI   C1B 5979  16.037  12.385   9.480  0.1321  0.0100 -0.0322
  379POPI   C2B 5980  16.051  12.275   9.002  0.1360 -0.2618 -0.2064
  379POPI   C3B 5981  16.172  12.239   8.617 -0.1218  0.0288  0.1820
  379POPI   C4B 5982  16.128  12.435   8.342 -0.3174 -0.2637  0.0730
  380POPI    C1 5983  11.662  10.674  10.562  0.0734 -0.0230  0.1041
  380POPI    C2 5984  11.745  10.339  10.764 -0.1713 -0.0722  0.1261
  380POPI    C3 5985  11.696  10.684  10.961  0.2259  0.0096  0.0911
  380POPI   PO4 5986  11.836  10.667  10.364  0.0274  0.1735 -0.0269
  380POPI   GL1 5987  11.955  10.690   9.929 -0.2492  0.3214 -0.2253
  380POPI   GL2 5988  11.765  10.431   9.823 -0.1123 -0.0592 -0.1535
  380POPI   C1A 5989  12.033  10.822   9.547 -0.1044 -0.2928 -0.1347
  380POPI   D2A 5990  12.206  10.961   9.144 -0.1593 -0.0104  0.2100
  380POPI   C3A 5991  12.215  10.953   8.713  0.1360 -0.1583  0.0280
  380POPI   C4A 5992  11.984  10.918   8.346  0.1800 -0.1034  0.0592
  380POPI   C1B 5993  11.661  10.334   9.446  0.1865 -0.0536 -0.0791
  380POPI   C2B 5994  11.741  10.086   9.071 -0.1284  0.3423 -0.2521
  380POPI   C3B 5995  11.806   9.916   8.632  0.0458  0.1524 -0.0881
  380POPI   C4B 5996  11.579   9.990   8.365 -0.1900 -0.0962 -0.1675
  381POPI    C1 5997   5.471  14.619   9.907  0.2191 -0.0156 -0.0326
  381POPI    C2 5998   5.137  14.590   9.689  0.2248  0.1004 -0.0573
  381POPI    C3 5999   5.125  14.758  10.052  0.1889 -0.2159  0.0909
  381POPI   PO4 6000   5.618  14.726   9.705 -0.0741 -0.4468  0.1323
  381POPI   GL1 6001   5.483  14.860   9.357 -0.2084  0.1563  0.1782
  381POPI   GL2 6002   5.251  15.027   9.237  0.0976 -0.1052  0.2014
  381POPI   C1A 6003   5.557  14.720   8.928  0.0921  0.0619  0.0005
  381POPI   D2A 6004   5.469  14.566   8.522 -0.1166  0.1773 -0.0119
  381POPI   C3A 6005   5.663  14.723   8.211  0.0673  0.0627 -0.2122
  381POPI   C4A 6006   5.865  14.794   7.810  0.2971 -0.0788  0.0876
  381POPI   C1B 6007   5.096  14.712   9.095  0.1500 -0.1089  0.3574
  381POPI   C2B 6008   5.008  14.377   8.840 -0.1308 -0.0388 -0.2588
  381POPI   C3B 6009   5.057  14.324   8.471 -0.1918 -0.4026 -0.2405
  381POPI   C4B 6010   5.119  13.935   8.183  0.1882  0.0340  0.1110
  382POPI    C1 6011   4.455  16.588   9.392  0.0165  0.0426 -0.1662
  382POPI    C2 6012   4.813  16.410   9.400 -0.0014  0.0155  0.2310
  382POPI    C3 6013   4.585  16.415   9.729 -0.3093  0.1510  0.0201
  382POPI   PO4 6014   4.512  16.846   9.313 -0.1013  0.1107 -0.3410
  382POPI   GL1 6015   4.446  17.073   9.037  0.0807  0.3689 -0.0251
  382POPI   GL2 6016   4.736  17.061   8.902  0.1438  0.3210  0.1529
  382POPI   C1A 6017   4.153  16.891   8.708  0.2422  0.1240  0.0618
  382POPI   D2A 6018   4.251  16.806   8.340  0.1268 -0.1337 -0.1104
  382POPI   C3A 6019   4.674  16.726   8.129  0.1584  0.1525  0.2864
  382POPI   C4A 6020   5.017  16.534   8.187 -0.0933  0.1250  0.0475
  382POPI   C1B 6021   4.724  17.281   8.637  0.3716  0.2555  0.5152
  382POPI   C2B 6022   4.539  17.159   8.190 -0.0031 -0.0559  0.3214
  382POPI   C3B 6023   4.538  17.238   7.754 -0.1260 -0.3047 -0.3579
  382POPI   C4B 6024   4.465  16.880   7.530 -0.0202  0.2523  0.1087
  383POPI    C1 6025   7.034   2.539  10.348 -0.0099  0.2542 -0.0834
  383POPI    C2 6026   6.780   2.229  10.330  0.2324  0.0469  0.0133
  383POPI    C3 6027   6.912   2.361  10.685  0.1256  0.2671 -0.0270
  383POPI   PO4 6028   6.972   2.662  10.218  0.0986  0.0076 -0.0416
  383POPI   GL1 6029   7.175   2.742   9.759 -0.1564 -0.0944  0.0977
  383POPI   GL2 6030   7.091   2.986   9.838 -0.0377 -0.2310  0.1508
  383POPI   C1A 6031   7.396   2.485   9.602 -0.3031  0.1002 -0.1182
  383POPI   D2A 6032   7.613   2.211   9.464  0.0499  0.0292  0.3254
  383POPI   C3A 6033   7.885   2.184   9.181  0.1121  0.1307 -0.1109
  383POPI   C4A 6034   7.818   2.426   8.864  0.1375  0.1091  0.0552
  383POPI   C1B 6035   7.362   3.188   9.514  0.1957  0.3146  0.0657
  383POPI   C2B 6036   7.572   3.187   9.261  0.0060  0.0952  0.3188
  383POPI   C3B 6037   7.724   3.202   8.820  0.3246 -0.0232  0.0628
  383POPI   C4B 6038   7.723   3.032   8.380 -0.2109  0.3167  0.2063
  384POPI    C1 6039  17.600   3.841  10.648 -0.1460  0.1605  0.0735
  384POPI    C2 6040  17.806   4.038  10.367 -0.1235  0.0200 -0.0096
  384POPI    C3 6041  17.558   4.237  10.610 -0.0026  0.1686 -0.0065
  384POPI   PO4 6042  17.510   3.611  10.524  0.0493  0.0477 -0.0160
  384POPI   GL1 6043  17.420   3.627  10.091 -0.2418 -0.0051 -0.0981
  384POPI   GL2 6044  17.483   3.803   9.974 -0.0833  0.4688  0.1826
  384POPI   C1A 6045  17.148   3.354   9.898  0.1328 -0.0318  0.2684
  384POPI   D2A 6046  16.858   3.277   9.544  0.1933 -0.0966  0.2851
  384POPI   C3A 6047  16.702   3.720   9.476  0.1328 -0.0248  0.0157
  384POPI   C4A 6048  16.437   4.065   9.253  0.1392  0.0785  0.2428
  384POPI   C1B 6049  17.265   3.853   9.589  0.1401  0.0300 -0.2810
  384POPI   C2B 6050  17.244   4.028   9.134 -0.2224  0.0777  0.1567
  384POPI   C3B 6051  16.970   3.802   9.022  0.3185 -0.0358  0.1006
  384POPI   C4B 6052  16.933   3.380   9.043 -0.0108 -0.0926 -0.2171
  385POPI    C1 6053  17.880   5.778  11.088 -0.0713 -0.1706  0.1103
  385POPI    C2 6054  17.482   5.740  11.090 -0.0920  0.0303  0.0017
  385POPI    C3 6055  17.687   5.707  11.432 -0.2090  0.0030  0.0700
  385POPI   PO4 6056  17.937   5.831  10.802 -0.0377 -0.0039  0.0832
  385POPI   GL1 6057  18.056   5.656  10.319 -0.0538  0.0788  0.0949
  385POPI   GL2 6058  18.174   5.420  10.275  0.3010 -0.0105  0.1099
  385POPI   C1A 6059  18.330   5.905  10.094  0.1025  0.3588 -0.1121
  385POPI   D2A 6060  18.568   6.104   9.797 -0.1364  0.0397  0.3087
  385POPI   C3A 6061  18.381   6.018   9.447  0.2794 -0.1262  0.1968
  385POPI   C4A 6062  18.376   6.058   9.060 -0.1030  0.3440  0.0852
  385POPI   C1B 6063  18.155   5.238   9.843  0.1290 -0.0689  0.2888
  385POPI   C2B 6064  18.057   5.104   9.527 -0.1391  0.0406 -0.2485
  385POPI   C3B 6065  17.835   5.138   9.195  0.0035  0.2031  0.4406
  385POPI   C4B 6066  17.752   5.424   8.837  0.1434 -0.2726  0.2710
  386POPI    C1 6067   7.531   8.562  10.821  0.0687 -0.0359  0.0834
  386POPI    C2 6068   7.280   8.257  10.882 -0.1134  0.1350  0.2032
  386POPI    C3 6069   7.446   8.444  11.194  0.0919  0.0832  0.1268
  386POPI   PO4 6070   7.647   8.488  10.595 -0.0982 -0.1435 -0.3311
  386POPI   GL1 6071   7.598   8.535  10.205 -0.1342 -0.0730  0.2887
  386POPI   GL2 6072   7.483   8.769  10.068 -0.4059 -0.0924 -0.0293
  386POPI   C1A 6073   7.505   8.219   9.878 -0.3206 -0.0371 -0.0947
  386POPI   D2A 6074   7.538   7.881   9.518  0.0671  0.1065  0.1659
  386POPI   C3A 6075   7.571   8.079   9.124 -0.0140 -0.0834  0.3105
  386POPI   C4A 6076   7.731   8.434   8.755  0.0241  0.2467 -0.1534
  386POPI   C1B 6077   7.688   8.612   9.692 -0.0692  0.2287  0.0401
  386POPI   C2B 6078   7.734   8.484   9.312 -0.0769  0.3405  0.1460
  386POPI   C3B 6079   8.143   8.278   8.950 -0.0946 -0.1150  0.0475
  386POPI   C4B 6080   8.215   8.458   8.599  0.0432  0.0945 -0.0525
  387POPI    C1 6081   4.432  13.577  10.321  0.2221 -0.2486 -0.2134
  387POPI    C2 6082   4.673  13.897  10.326 -0.4008  0.2388  0.1410
  387POPI    C3 6083   4.668  13.646  10.637 -0.0924  0.0144 -0.0294
  387POPI   PO4 6084   4.439  13.522  10.070 -0.1970 -0.0513 -0.1057
  387POPI   GL1 6085   4.524  13.227   9.716 -0.1344  0.0661 -0.0925
  387POPI   GL2 6086   4.198  13.295   9.699 -0.0228 -0.0578 -0.0507
  387POPI   C1A 6087   4.947  13.304   9.588 -0.1221  0.3589  0.1768
  387POPI   D2A 6088   5.371  13.194   9.466  0.0905  0.0691  0.2246
  387POPI   C3A 6089   5.690  13.370   9.322  0.0613  0.0821 -0.3008
  387POPI   C4A 6090   5.772  13.540   8.919 -0.3126 -0.2136  0.1593
  387POPI   C1B 6091   3.929  13.379   9.273  0.1311  0.4521 -0.3622
  387POPI   C2B 6092   3.920  13.236   8.843 -0.1210 -0.0376  0.2152
  387POPI   C3B 6093   3.896  13.209   8.491  0.2812 -0.0038  0.0390
  387POPI   C4B 6094   3.729  13.178   8.077  0.2921  0.1147 -0.0213
  388POPI    C1 6095  11.434   9.966  10.796  0.0973  0.0085  0.1265
  388POPI    C2 6096  11.496   9.725  11.109 -0.3176  0.0002  0.2072
  388POPI    C3 6097  11.156   9.698  10.900 -0.0271 -0.0234 -0.2751
  388POPI   PO4 6098  11.648   9.815  10.557 -0.2056 -0.2580 -0.2386
  388POPI   GL1 6099  11.699   9.785  10.140  0.0609 -0.0850  0.2231
  388POPI   GL2 6100  11.760   9.448  10.188 -0.0399 -0.1305 -0.2928
  388POPI   C1A 6101  11.812   9.912   9.736 -0.2642  0.0533  0.0143
  388POPI   D2A 6102  11.694   9.769   9.396  0.0268  0.0261 -0.5188
  388POPI   C3A 6103  11.831   9.523   9.011  0.0163 -0.0610 -0.1174
  388POPI   C4A 6104  12.055   9.493   8.568  0.2296  0.0913  0.1664
  388POPI   C1B 6105  11.919   9.433   9.766 -0.1521  0.0545 -0.0862
  388POPI   C2B 6106  11.837   9.196   9.363 -0.0705 -0.0332  0.0591
  388POPI   C3B 6107  11.731   9.048   8.920 -0.0433 -0.1854 -0.1722
  388POPI   C4B 6108  11.752   9.017   8.433  0.1870  0.2615 -0.2230
  389POPI    C1 6109   5.285  16.325   9.298  0.1794 -0.1185 -0.3492
  389POPI    C2 6110   5.538  16.157   9.558 -0.1355  0.0562  0.0806
  389POPI    C3 6111   5.301  15.927   9.332  0.1751 -0.0981 -0.0952
  389POPI   PO4 6112   5.402  16.387   9.103 -0.2417 -0.0676 -0.1005
  389POPI   GL1 6113   5.534  16.558   8.676 -0.0642 -0.1981  0.1485
  389POPI   GL2 6114   5.580  16.256   8.675  0.1860 -0.1102  0.1067
  389POPI   C1A 6115   5.487  16.734   8.323  0.1810  0.1529  0.1744
  389POPI   D2A 6116   5.439  16.823   7.926  0.0577  0.0776 -0.1186
  389POPI   C3A 6117   4.933  16.726   7.600 -0.0026 -0.2968  0.1139
  389POPI   C4A 6118   4.861  16.997   7.253  0.0259 -0.1376 -0.2396
  389POPI   C1B 6119   5.574  16.210   8.351 -0.3362  0.0172 -0.3127
  389POPI   C2B 6120   5.391  16.317   7.981 -0.2248  0.1340 -0.4202
  389POPI   C3B 6121   5.432  16.473   7.601 -0.2535 -0.2554  0.1468
  389POPI   C4B 6122   5.234  16.707   7.205 -0.2947  0.2143 -0.3128
  390POPI    C1 6123   2.490  12.397  10.187  0.0468  0.0095 -0.0319
  390POPI    C2 6124   2.814  12.313  10.406 -0.1631 -0.3428  0.1533
  390POPI    C3 6125   2.451  12.219  10.543 -0.3344 -0.1104 -0.1297
  390POPI   PO4 6126   2.555  12.204   9.957 -0.0900  0.0073  0.1785
  390POPI   GL1 6127   2.508  12.182   9.519  0.3198  0.0840 -0.4052
  390POPI   GL2 6128   2.314  12.332   9.322 -0.0849  0.3378 -0.0533
  390POPI   C1A 6129   2.785  12.216   9.082 -0.0608 -0.2525 -0.0130
  390POPI   D2A 6130   2.975  12.009   8.779 -0.4413  0.1177  0.0837
  390POPI   C3A 6131   2.854  11.847   8.403  0.0383  0.0049 -0.2364
  390POPI   C4A 6132   2.994  11.590   8.110  0.1656  0.1608  0.1909
  390POPI   C1B 6133   2.381  12.153   8.842  0.4281 -0.3441 -0.1617
  390POPI   C2B 6134   2.681  12.357   8.555 -0.0886 -0.0906  0.1154
  390POPI   C3B 6135   2.567  12.356   8.264  0.3165 -0.2032  0.1639
  390POPI   C4B 6136   2.138  12.354   8.430  0.1045 -0.2219 -0.0183
  391POPI    C1 6137  15.897  17.638  10.070  0.0998  0.1921 -0.1308
  391POPI    C2 6138  15.946  17.904  10.365 -0.2292  0.3050 -0.1740
  391POPI    C3 6139  15.607  17.901  10.153 -0.4006 -0.4042  0.0827
  391POPI   PO4 6140  16.118  17.510   9.851  0.2220 -0.1296  0.2418
  391POPI   GL1 6141  15.976  17.301   9.553  0.0942 -0.3480 -0.0401
  391POPI   GL2 6142  15.754  17.223   9.509 -0.0775 -0.2683  0.1518
  391POPI   C1A 6143  15.993  17.207   9.096 -0.3079 -0.0044 -0.0833
  391POPI   D2A 6144  15.752  17.206   8.760  0.2033 -0.2104 -0.1347
  391POPI   C3A 6145  15.908  17.194   8.403 -0.1093 -0.3392 -0.2339
  391POPI   C4A 6146  15.818  17.187   7.944  0.1173 -0.0366  0.1115
  391POPI   C1B 6147  15.518  17.321   9.174  0.1037 -0.1045  0.0301
  391POPI   C2B 6148  15.191  17.360   8.832  0.0867  0.1155  0.1439
  391POPI   C3B 6149  15.522  17.519   8.496 -0.1652 -0.2356 -0.1114
  391POPI   C4B 6150  15.594  17.616   8.143  0.0904 -0.1103 -0.0685
  392POPI    C1 6151  17.484   1.417   9.809  0.0557  0.1192  0.1805
  392POPI    C2 6152  17.324   1.538  10.155 -0.1368  0.1215  0.0918
  392POPI    C3 6153  17.208   1.192   9.991  0.2434 -0.0764  0.2278
  392POPI   PO4 6154  17.455   1.592   9.661  0.0648 -0.2099 -0.0331
  392POPI   GL1 6155  17.322   1.715   9.322 -0.0320  0.2535 -0.1522
  392POPI   GL2 6156  17.284   2.097   9.352  0.0872 -0.0509 -0.1209
  392POPI   C1A 6157  17.314   1.739   8.878 -0.0858  0.1076  0.0870
  392POPI   D2A 6158  17.274   1.764   8.410 -0.0123 -0.0480  0.4222
  392POPI   C3A 6159  17.052   1.650   7.978  0.0918  0.4412 -0.0281
  392POPI   C4A 6160  16.696   1.439   7.658  0.2544 -0.0704 -0.1710
  392POPI   C1B 6161  17.065   2.331   9.003  0.0471  0.2180 -0.2787
  392POPI   C2B 6162  17.008   2.450   8.557  0.3677  0.0890  0.2620
  392POPI   C3B 6163  17.011   2.765   8.307  0.1709 -0.0741  0.0214
  392POPI   C4B 6164  16.696   2.785   7.869  0.1186  0.3272  0.4530
  393POPI    C1 6165   7.429   0.322  10.372  0.0338 -0.1200  0.1905
  393POPI    C2 6166   7.630   0.600  10.167  0.0418 -0.2603  0.0057
  393POPI    C3 6167   7.821   0.369  10.431  0.0181 -0.0318  0.2259
  393POPI   PO4 6168   7.305   0.217  10.135  0.2794 -0.1317 -0.0238
  393POPI   GL1 6169   7.348   0.460   9.759  0.0057  0.5458 -0.0666
  393POPI   GL2 6170   7.465   0.113   9.640  0.1193  0.1338 -0.2339
  393POPI   C1A 6171   7.529   0.698   9.483  0.3563 -0.0945  0.1986
  393POPI   D2A 6172   7.887   0.878   9.309  0.2661 -0.0456 -0.2073
  393POPI   C3A 6173   7.766   0.911   8.891  0.1279  0.0198 -0.1765
  393POPI   C4A 6174   7.683   0.744   8.586  0.0079 -0.0808  0.1598
  393POPI   C1B 6175   7.333   0.234   9.175  0.0670  0.1152  0.1612
  393POPI   C2B 6176   7.331   0.615   9.024 -0.3156  0.2531 -0.4142
  393POPI   C3B 6177   7.197   0.786   8.580 -0.0845  0.1993  0.0084
  393POPI   C4B 6178   7.448   0.959   8.234 -0.0374  0.0122 -0.0548
  394POPI    C1 6179  13.328  17.434  10.353  0.1392  0.1538 -0.0352
  394POPI    C2 6180  13.266  17.039  10.371 -0.2103  0.1989 -0.1611
  394POPI    C3 6181  13.102  17.280  10.645  0.4742  0.2122  0.2612
  394POPI   PO4 6182  13.281  17.524  10.134  0.1782  0.1750  0.0018
  394POPI   GL1 6183  13.231  17.578   9.653 -0.0123 -0.0590  0.0042
  394POPI   GL2 6184  13.011  17.764   9.803 -0.0807 -0.0949  0.0191
  394POPI   C1A 6185  13.060  17.743   9.206 -0.1916  0.1026 -0.2734
  394POPI   D2A 6186  12.653  17.892   9.090 -0.0709  0.0137  0.2666
  394POPI   C3A 6187  12.487  17.829   8.667 -0.1177 -0.1316 -0.5124
  394POPI   C4A 6188  12.724  17.498   8.361  0.0611  0.0774 -0.0833
  394POPI   C1B 6189  12.647  17.889   9.724  0.1092 -0.2827  0.3546
  394POPI   C2B 6190  12.246  18.115   9.759  0.1915  0.0020  0.1978
  394POPI   C3B 6191  11.942  18.101   9.465  0.0411  0.3424  0.0333
  394POPI   C4B 6192  12.094  17.958   9.058 -0.2617  0.2197 -0.1012
  395POPI    C1 6193  15.286   5.061  10.941 -0.0296  0.0393 -0.1325
  395POPI    C2 6194  15.521   5.373  11.027 -0.0886 -0.0186  0.2584
  395POPI    C3 6195  15.150   5.357  11.173 -0.2823 -0.0102 -0.2151
  395POPI   PO4 6196  15.218   5.055  10.671  0.0098  0.1787  0.2365
  395POPI   GL1 6197  15.054   5.180  10.226 -0.4116 -0.0189  0.1567
  395POPI   GL2 6198  15.333   5.106  10.104  0.0778  0.0602 -0.1661
  395POPI   C1A 6199  14.926   5.490   9.897  0.2186  0.2084  0.1079
  395POPI   D2A 6200  14.711   5.449   9.424  0.2004  0.0344 -0.0793
  395POPI   C3A 6201  14.990   5.513   9.104  0.0345  0.0666 -0.1590
  395POPI   C4A 6202  15.271   5.306   8.844 -0.3260  0.0726 -0.3375
  395POPI   C1B 6203  15.458   4.742   9.813  0.0239 -0.0225 -0.0672
  395POPI   C2B 6204  15.553   4.558   9.468  0.2037 -0.2131 -0.0704
  395POPI   C3B 6205  15.523   4.359   9.103 -0.2821 -0.1889  0.0994
  395POPI   C4B 6206  15.530   4.366   8.608  0.0110  0.0028 -0.0354
  396POPI    C1 6207  16.226  18.014   9.932  0.1313 -0.0742 -0.2475
  396POPI    C2 6208  15.976  17.963   9.624 -0.2552  0.0335  0.0397
  396POPI    C3 6209  15.894  18.236   9.904  0.1872  0.0661  0.1447
  396POPI   PO4 6210  16.486  18.078   9.742  0.1977  0.3815  0.0147
  396POPI   GL1 6211  16.471  17.755   9.465  0.1869 -0.0779  0.2271
  396POPI   GL2 6212  16.546  17.437   9.419 -0.1769 -0.2888  0.0556
  396POPI   C1A 6213  16.026  17.664   9.220 -0.1191 -0.0443 -0.1641
  396POPI   D2A 6214  15.728  17.758   8.931  0.1337 -0.1179 -0.4648
  396POPI   C3A 6215  15.660  17.977   8.611 -0.1893 -0.1286  0.1008
  396POPI   C4A 6216  15.478  18.107   8.296  0.2379 -0.2015 -0.0382
  396POPI   C1B 6217  16.343  17.557   8.875  0.0941 -0.0250  0.3555
  396POPI   C2B 6218  16.061  17.614   8.598 -0.0005 -0.1995 -0.0130
  396POPI   C3B 6219  16.090  17.718   8.093  0.1344  0.2402 -0.0368
  396POPI   C4B 6220  16.032  17.624   7.663  0.4155 -0.0300 -0.0034
  397POPI    C1 6221   2.367  16.310   9.218  0.0519 -0.0318  0.2326
  397POPI    C2 6222   2.378  16.465   9.586  0.0373  0.2037  0.1360
  397POPI    C3 6223   2.053  16.514   9.358 -0.0288 -0.1040  0.1587
  397POPI   PO4 6224   2.428  15.968   9.257  0.1010  0.0286  0.0553
  397POPI   GL1 6225   2.351  15.749   8.913 -0.2224 -0.0147  0.1833
  397POPI   GL2 6226   2.003  15.898   8.935  0.0120  0.4468 -0.0346
  397POPI   C1A 6227   2.313  15.815   8.450 -0.1798 -0.0225 -0.3818
  397POPI   D2A 6228   2.229  15.889   8.018 -0.0294  0.1005 -0.4212
  397POPI   C3A 6229   2.019  15.787   7.654  0.0550  0.0943  0.1041
  397POPI   C4A 6230   1.709  15.750   7.396  0.3772 -0.0820  0.0577
  397POPI   C1B 6231   2.217  16.289   8.707  0.0720  0.0812  0.1656
  397POPI   C2B 6232   2.404  16.672   8.461 -0.0190 -0.1028  0.2059
  397POPI   C3B 6233   2.598  16.912   8.249 -0.0680 -0.4238  0.0240
  397POPI   C4B 6234   2.614  17.337   8.078  0.3535  0.1925  0.2251
  398POPI    C1 6235  14.998  15.686  10.200 -0.0018 -0.1434 -0.0294
  398POPI    C2 6236  15.281  15.488  10.402  0.0727 -0.0012  0.0068
  398POPI    C3 6237  14.943  15.597  10.586  0.0267 -0.1039 -0.0161
  398POPI   PO4 6238  15.017  15.659   9.999 -0.0825  0.2999 -0.0648
  398POPI   GL1 6239  14.939  15.912   9.608  0.3137  0.3542  0.0337
  398POPI   GL2 6240  15.327  16.096   9.631  0.0968  0.0064 -0.0256
  398POPI   C1A 6241  14.816  15.867   9.270 -0.2506 -0.0750  0.1089
  398POPI   D2A 6242  14.713  16.000   8.949 -0.1065  0.0800  0.1624
  398POPI   C3A 6243  14.846  15.819   8.492  0.1361 -0.1510  0.2469
  398POPI   C4A 6244  14.716  15.661   8.050 -0.3884  0.0524  0.0416
  398POPI   C1B 6245  15.298  15.995   9.291  0.2260  0.2154 -0.0932
  398POPI   C2B 6246  15.317  15.812   8.864  0.2585 -0.0567 -0.1810
  398POPI   C3B 6247  15.414  15.840   8.439 -0.0685  0.0342 -0.0229
  398POPI   C4B 6248  15.742  15.707   8.039 -0.0997 -0.1087  0.3194
  399POPI    C1 6249   9.825   5.720  10.848 -0.0187 -0.1040 -0.2708
  399POPI    C2 6250  10.189   5.886  10.842  0.0264 -0.1978 -0.1772
  399POPI    C3 6251  10.132   5.522  10.685 -0.0122 -0.2129 -0.1282
  399POPI   PO4 6252   9.754   6.143  10.743  0.3990 -0.0709 -0.2572
  399POPI   GL1 6253   9.999   6.408  10.427 -0.0201 -0.1400  0.1931
  399POPI   GL2 6254   9.695   6.549  10.491 -0.2492  0.1061 -0.0858
  399POPI   C1A 6255  10.179   6.219  10.081  0.1785 -0.0330 -0.1275
  399POPI   D2A 6256  10.133   6.004   9.739 -0.3017  0.1268 -0.0685
  399POPI   C3A 6257  10.405   6.072   9.308 -0.1250  0.0666 -0.4584
  399POPI   C4A 6258  10.724   6.303   8.927  0.0785  0.0533  0.2937
  399POPI   C1B 6259   9.725   6.280   9.955  0.3901 -0.1904  0.1015
  399POPI   C2B 6260   9.620   6.191   9.508  0.1135  0.1275  0.1452
  399POPI   C3B 6261   9.704   6.048   9.212 -0.0634 -0.1742 -0.2719
  399POPI   C4B 6262   9.923   6.111   8.896 -0.3597 -0.1472  0.1965
  400POPI    C1 6263   3.150   2.185   9.348  0.2667  0.1160  0.1963
  400POPI    C2 6264   3.216   2.168   9.742  0.1845  0.1773  0.2129
  400POPI    C3 6265   2.873   2.320   9.602 -0.0235 -0.3403  0.1341
  400POPI   PO4 6266   3.382   2.304   9.273 -0.0323  0.1418 -0.5478
  400POPI   GL1 6267   3.732   2.293   9.113 -0.1915 -0.1985  0.4172
  400POPI   GL2 6268   3.688   2.668   9.099  0.0336  0.1531  0.0244
  400POPI   C1A 6269   3.766   2.173   8.741  0.1501  0.3474  0.0335
  400POPI   D2A 6270   3.707   2.111   8.344 -0.1107  0.0579 -0.3700
  400POPI   C3A 6271   3.419   1.898   8.210 -0.0775  0.0111  0.1639
  400POPI   C4A 6272   3.279   1.801   7.830  0.1095 -0.3495  0.2520
  400POPI   C1B 6273   3.678   2.614   8.695  0.1737  0.0717 -0.0313
  400POPI   C2B 6274   3.817   2.623   8.331  0.1406  0.4088  0.1549
  400POPI   C3B 6275   3.830   2.432   7.948 -0.0557  0.1039 -0.2024
  400POPI   C4B 6276   3.796   2.373   7.550  0.0389  0.0300 -0.0860
  401POPI    C1 6277  15.413   2.912  10.721 -0.1478 -0.2158  0.1145
  401POPI    C2 6278  15.222   3.258  10.654  0.0899 -0.0923  0.0620
  401POPI    C3 6279  15.609   3.259  10.756  0.1047 -0.3458  0.0169
  401POPI   PO4 6280  15.240   2.729  10.434  0.1624 -0.0979  0.0322
  401POPI   GL1 6281  15.217   2.763   9.959  0.2574  0.1892  0.0032
  401POPI   GL2 6282  14.831   2.744  10.045  0.1954  0.2178  0.1066
  401POPI   C1A 6283  15.299   3.091   9.566  0.2036 -0.3973 -0.0605
  401POPI   D2A 6284  15.183   2.909   9.130 -0.0197  0.0622 -0.0579
  401POPI   C3A 6285  15.506   3.078   8.872 -0.1907  0.2952 -0.1799
  401POPI   C4A 6286  15.486   3.394   8.581 -0.0033  0.0778  0.2122
  401POPI   C1B 6287  14.850   2.883   9.546 -0.0330 -0.0083  0.0986
  401POPI   C2B 6288  14.780   2.657   9.175  0.0138  0.0464  0.2176
  401POPI   C3B 6289  14.726   2.531   8.702  0.0635  0.0141 -0.2411
  401POPI   C4B 6290  14.664   2.220   8.417  0.3729 -0.0077 -0.0515
  402POPI    C1 6291   5.120   8.790  10.515  0.1843  0.1315 -0.1664
  402POPI    C2 6292   5.182   8.844  10.906 -0.1834  0.1195 -0.1030
  402POPI    C3 6293   4.941   8.550  10.781  0.1599 -0.0617 -0.3537
  402POPI   PO4 6294   5.156   8.991  10.405 -0.1970  0.0950  0.0892
  402POPI   GL1 6295   5.388   9.040  10.012  0.2463 -0.0265  0.1665
  402POPI   GL2 6296   5.328   9.282   9.896  0.1625 -0.1198 -0.0035
  402POPI   C1A 6297   5.273   8.704   9.677  0.2487 -0.0117  0.1699
  402POPI   D2A 6298   5.036   8.409   9.480  0.0612 -0.2415  0.1405
  402POPI   C3A 6299   5.029   8.416   9.054 -0.3206 -0.0809  0.1137
  402POPI   C4A 6300   4.970   8.183   8.703 -0.1395  0.1473 -0.0254
  402POPI   C1B 6301   5.371   9.156   9.526  0.2034  0.0829 -0.0863
  402POPI   C2B 6302   5.270   8.903   9.139  0.1385 -0.0023 -0.2422
  402POPI   C3B 6303   5.218   8.965   8.815 -0.0042  0.0394  0.1056
  402POPI   C4B 6304   4.853   9.141   8.578 -0.0864 -0.2115 -0.0093
  403POPI    C1 6305   5.332   5.008  10.639  0.0921  0.1329  0.2106
  403POPI    C2 6306   5.114   5.279  10.837 -0.2618 -0.0366  0.0620
  403POPI    C3 6307   5.075   4.891  10.922  0.0912 -0.0597  0.1314
  403POPI   PO4 6308   5.376   5.156  10.276 -0.1191  0.0175  0.4088
  403POPI   GL1 6309   5.522   5.069   9.848  0.1567  0.1714  0.2216
  403POPI   GL2 6310   5.706   4.906   9.962 -0.0715  0.4099  0.2805
  403POPI   C1A 6311   5.385   4.912   9.567 -0.0976 -0.0923  0.0258
  403POPI   D2A 6312   5.309   4.832   9.091  0.0891  0.1918 -0.1909
  403POPI   C3A 6313   5.389   5.079   8.735 -0.1028  0.1687  0.0254
  403POPI   C4A 6314   5.048   5.222   8.433  0.0500  0.0658 -0.2256
  403POPI   C1B 6315   5.852   4.818   9.454 -0.1204 -0.0990  0.1311
  403POPI   C2B 6316   5.841   4.781   9.034  0.0089  0.1718 -0.2501
  403POPI   C3B 6317   5.926   4.871   8.672  0.0067 -0.1784  0.2552
  403POPI   C4B 6318   6.098   4.924   8.332 -0.0534  0.2408 -0.1739
  404POPI    C1 6319   5.564   1.820  10.150  0.1420 -0.0438  0.0136
  404POPI    C2 6320   5.267   1.590  10.013  0.0826  0.0987 -0.1002
  404POPI    C3 6321   5.625   1.430  10.088  0.0742 -0.0101 -0.2850
  404POPI   PO4 6322   5.526   2.057   9.928 -0.1532  0.1716 -0.0093
  404POPI   GL1 6323   5.305   2.124   9.476  0.0344 -0.0243  0.0398
  404POPI   GL2 6324   5.116   1.897   9.527  0.3072 -0.1018 -0.3133
  404POPI   C1A 6325   5.315   2.230   9.066 -0.1568  0.1612 -0.2222
  404POPI   D2A 6326   5.378   2.185   8.558  0.0247 -0.2864 -0.1125
  404POPI   C3A 6327   5.303   2.461   8.236  0.0674 -0.3978 -0.1405
  404POPI   C4A 6328   5.147   2.589   7.865 -0.0253 -0.3234 -0.2115
  404POPI   C1B 6329   5.019   1.746   9.049  0.1063 -0.2188  0.0181
  404POPI   C2B 6330   5.085   1.777   8.650 -0.3409  0.1496  0.2390
  404POPI   C3B 6331   5.135   1.953   8.208 -0.3236  0.1689  0.2608
  404POPI   C4B 6332   5.353   1.849   7.754  0.1059  0.0361  0.0294
  405POPI    C1 6333   5.139  13.992  10.523 -0.0450  0.1405  0.0074
  405POPI    C2 6334   5.469  13.891  10.725  0.0005  0.2469 -0.0129
  405POPI    C3 6335   5.130  13.686  10.781  0.1232  0.0015 -0.1480
  405POPI   PO4 6336   5.228  13.898  10.267 -0.0306  0.2036  0.2475
  405POPI   GL1 6337   5.436  14.137   9.857  0.0082  0.0114 -0.1759
  405POPI   GL2 6338   5.625  14.111   9.949  0.1455 -0.2693  0.1025
  405POPI   C1A 6339   5.279  13.848   9.435 -0.1748  0.0651 -0.0356
  405POPI   D2A 6340   5.212  13.570   9.112  0.0960 -0.2727  0.0825
  405POPI   C3A 6341   4.891  13.251   9.081 -0.3309 -0.2723  0.0198
  405POPI   C4A 6342   4.531  13.327   9.204  0.1629 -0.0106  0.1008
  405POPI   C1B 6343   5.812  13.998   9.579  0.1886  0.1572  0.0187
  405POPI   C2B 6344   5.809  13.957   9.240  0.0679  0.2518  0.1702
  405POPI   C3B 6345   5.932  13.969   8.915  0.2133 -0.1234 -0.0271
  405POPI   C4B 6346   5.985  13.712   8.467 -0.0572  0.2163 -0.0262
  406POPI    C1 6347  16.155   0.292   9.952 -0.1315  0.1951 -0.1292
  406POPI    C2 6348  16.498   0.197  10.135 -0.2767  0.0124  0.0525
  406POPI    C3 6349  16.160   0.004  10.230 -0.4085  0.1087 -0.2104
  406POPI   PO4 6350  16.270   0.418   9.704  0.2163  0.1252  0.1825
  406POPI   GL1 6351  16.479   0.734   9.415 -0.5059 -0.1796  0.1619
  406POPI   GL2 6352  16.143   0.803   9.339  0.6312 -0.1682  0.2806
  406POPI   C1A 6353  16.600   0.799   8.985  0.1789  0.0553  0.0916
  406POPI   D2A 6354  16.465   1.040   8.699  0.2104 -0.1853  0.0763
  406POPI   C3A 6355  16.764   0.927   8.394  0.1726 -0.1045  0.2421
  406POPI   C4A 6356  16.901   1.014   7.893 -0.0230  0.0617  0.0962
  406POPI   C1B 6357  16.023   1.023   9.090  0.0291 -0.0215 -0.1117
  406POPI   C2B 6358  15.967   1.172   8.666  0.0581  0.2280 -0.0100
  406POPI   C3B 6359  16.044   1.416   8.405  0.0294 -0.1108  0.1428
  406POPI   C4B 6360  15.913   1.739   8.147  0.1830  0.0071  0.3765
  407POPI    C1 6361  17.856   9.844  10.552 -0.1364 -0.0507  0.0657
  407POPI    C2 6362  18.120   9.612  10.743 -0.0809  0.0243  0.0808
  407POPI    C3 6363  17.846   9.816  10.951 -0.1524 -0.0552  0.0650
  407POPI   PO4 6364  17.794   9.665  10.286 -0.1028  0.1375 -0.1492
  407POPI   GL1 6365  17.951   9.396   9.979  0.2985 -0.1336  0.0691
  407POPI   GL2 6366  18.073   9.655   9.807 -0.1834  0.0606  0.0006
  407POPI   C1A 6367  17.704   9.154   9.703 -0.0351  0.2440  0.2138
  407POPI   D2A 6368  17.600   9.145   9.311 -0.2958 -0.0728 -0.0990
  407POPI   C3A 6369  17.513   9.136   8.916  0.0358 -0.1023 -0.4039
  407POPI   C4A 6370  17.554   9.028   8.479 -0.0310 -0.2469 -0.3057
  407POPI   C1B 6371  17.854   9.643   9.495  0.3546  0.3227  0.2563
  407POPI   C2B 6372  17.840   9.581   9.116  0.1043  0.2417  0.1914
  407POPI   C3B 6373  17.836   9.489   8.826 -0.2976  0.0811  0.3698
  407POPI   C4B 6374  17.618   9.615   8.392 -0.0794 -0.2963 -0.0430
  408POPI    C1 6375  17.421   2.140  10.447 -0.1381  0.1528  0.1962
  408POPI    C2 6376  17.760   2.194  10.652  0.0437  0.0000 -0.0587
  408POPI    C3 6377  17.670   1.833  10.507 -0.0119  0.1347 -0.3672
  408POPI   PO4 6378  17.386   2.420  10.304  0.1692 -0.4681  0.1915
  408POPI   GL1 6379  17.585   2.639   9.869  0.0885 -0.3214 -0.0116
  408POPI   GL2 6380  17.607   2.449   9.582  0.0273 -0.1582 -0.3889
  408POPI   C1A 6381  17.415   3.005   9.673 -0.3766 -0.1102 -0.0215
  408POPI   D2A 6382  17.284   3.169   9.314  0.4837  0.4155 -0.1083
  408POPI   C3A 6383  17.242   3.028   8.861 -0.1651  0.0349 -0.0598
  408POPI   C4A 6384  17.325   3.183   8.523 -0.1870  0.0671 -0.3439
  408POPI   C1B 6385  17.444   2.712   9.193 -0.1635  0.1267 -0.1651
  408POPI   C2B 6386  17.551   2.654   8.852  0.2576 -0.1451  0.1691
  408POPI   C3B 6387  17.488   2.726   8.453  0.1652  0.0652  0.2039
  408POPI   C4B 6388  17.456   2.997   8.116  0.2716  0.0959  0.0760
  409POPI    C1 6389   4.626  14.809  10.213  0.2055  0.1134  0.0186
  409POPI    C2 6390   4.780  15.139  10.047  0.3923  0.0965  0.1555
  409POPI    C3 6391   4.597  15.160  10.402  0.0242  0.1262 -0.0317
  409POPI   PO4 6392   4.577  14.679   9.923 -0.2026  0.0918 -0.0699
  409POPI   GL1 6393   4.469  14.499   9.486  0.1503  0.1877 -0.1902
  409POPI   GL2 6394   4.263  14.269   9.480 -0.0320 -0.0863 -0.1664
  409POPI   C1A 6395   4.167  14.645   9.189  0.0164  0.4021 -0.0969
  409POPI   D2A 6396   3.953  14.843   8.868  0.2182 -0.1123  0.0550
  409POPI   C3A 6397   3.906  14.675   8.473  0.2804 -0.1611  0.2551
  409POPI   C4A 6398   4.085  14.732   8.105 -0.0060 -0.0385 -0.2199
  409POPI   C1B 6399   4.481  14.265   9.024 -0.3245  0.0487  0.0367
  409POPI   C2B 6400   4.610  14.104   8.641 -0.0981  0.3664 -0.0545
  409POPI   C3B 6401   4.618  13.946   8.179 -0.0482 -0.0108  0.4358
  409POPI   C4B 6402   4.811  13.753   7.855  0.1752  0.2054 -0.0017
  410POPI    C1 6403   8.045   7.703  11.202 -0.2881 -0.0043  0.0715
  410POPI    C2 6404   7.697   7.779  11.382 -0.1387  0.2620  0.2539
  410POPI    C3 6405   8.038   7.912  11.543  0.0643 -0.1370  0.1645
  410POPI   PO4 6406   7.899   7.690  10.882  0.2530  0.0604  0.0428
  410POPI   GL1 6407   7.996   7.730  10.277  0.2640  0.0660  0.1126
  410POPI   GL2 6408   7.798   7.739  10.036 -0.0158 -0.2776 -0.1149
  410POPI   C1A 6409   8.397   7.806  10.118  0.2973 -0.0313 -0.1812
  410POPI   D2A 6410   8.628   7.822   9.705 -0.0492 -0.0888  0.0949
  410POPI   C3A 6411   8.541   7.749   9.217  0.0103  0.1763  0.2730
  410POPI   C4A 6412   8.498   8.022   8.818 -0.1729  0.0872  0.1898
  410POPI   C1B 6413   8.014   7.596   9.715 -0.0361 -0.1814 -0.0022
  410POPI   C2B 6414   8.200   7.430   9.433  0.1038 -0.0944  0.1967
  410POPI   C3B 6415   8.395   7.396   8.918 -0.1346  0.2892  0.0941
  410POPI   C4B 6416   8.792   7.611   8.815  0.4189 -0.1398 -0.2697
  411POPI    C1 6417  11.040  17.719  10.542  0.2397 -0.0186 -0.0814
  411POPI    C2 6418  10.712  17.503  10.615  0.1835  0.0548 -0.1152
  411POPI    C3 6419  10.996  17.536  10.895  0.0585  0.1756 -0.0007
  411POPI   PO4 6420  10.974  17.939  10.384  0.1889  0.2157  0.2848
  411POPI   GL1 6421  10.815  17.780   9.959 -0.0177 -0.1866  0.0730
  411POPI   GL2 6422  10.664  18.091  10.012 -0.2630  0.0451 -0.2828
  411POPI   C1A 6423  10.605  17.597   9.697 -0.2394  0.0388 -0.1036
  411POPI   D2A 6424  10.601  17.679   9.247 -0.2308  0.2737 -0.0242
  411POPI   C3A 6425  10.568  17.481   8.826  0.3178  0.0676 -0.2047
  411POPI   C4A 6426  10.474  17.358   8.376 -0.0350  0.2504 -0.0074
  411POPI   C1B 6427  10.506  18.121   9.656  0.1170 -0.1777 -0.0637
  411POPI   C2B 6428  10.522  18.196   9.195  0.4445  0.0233  0.0346
  411POPI   C3B 6429  10.525  17.986   8.721 -0.1469  0.2625 -0.0966
  411POPI   C4B 6430  10.821  17.728   8.459  0.1740 -0.0844  0.2253
  412POPI    C1 6431   0.998  16.836   9.391  0.0784 -0.0115  0.0531
  412POPI    C2 6432   1.170  16.630   9.688 -0.0682  0.1335  0.2410
  412POPI    C3 6433   0.902  16.915   9.771 -0.0264  0.2538 -0.0264
  412POPI   PO4 6434   1.098  16.714   9.183 -0.0032  0.2644  0.0919
  412POPI   GL1 6435   1.183  16.719   8.790  0.5173 -0.0729 -0.2394
  412POPI   GL2 6436   1.446  16.950   8.812 -0.0817 -0.2894 -0.0417
  412POPI   C1A 6437   0.896  17.036   8.501  0.0132 -0.0678 -0.1291
  412POPI   D2A 6438   0.746  17.034   8.090  0.1510  0.0430  0.0991
  412POPI   C3A 6439   0.920  17.046   7.722  0.2115  0.1303 -0.1454
  412POPI   C4A 6440   0.935  16.924   7.308  0.0945 -0.0529 -0.3098
  412POPI   C1B 6441   1.405  16.980   8.420 -0.1581  0.0512 -0.1898
  412POPI   C2B 6442   1.581  16.853   8.142  0.1149  0.0685 -0.1749
  412POPI   C3B 6443   1.611  16.600   7.766  0.1855  0.2137 -0.2330
  412POPI   C4B 6444   1.671  16.214   7.489 -0.0884 -0.0181 -0.1815
  413POPI    C1 6445  15.118   0.817   9.951 -0.0383 -0.0032 -0.1917
  413POPI    C2 6446  15.324   0.631  10.239 -0.1298 -0.1234 -0.2032
  413POPI    C3 6447  15.089   0.942  10.330 -0.0462 -0.0696 -0.1703
  413POPI   PO4 6448  15.373   0.833   9.799  0.1178  0.1751  0.3757
  413POPI   GL1 6449  15.595   0.944   9.411  0.0584  0.3224 -0.1407
  413POPI   GL2 6450  15.444   1.222   9.490 -0.0297 -0.0782 -0.1299
  413POPI   C1A 6451  15.558   1.042   8.952 -0.1666  0.1062  0.0889
  413POPI   D2A 6452  15.388   1.098   8.460  0.0452 -0.2079  0.0579
  413POPI   C3A 6453  15.021   1.344   8.160  0.3768  0.1606 -0.1220
  413POPI   C4A 6454  14.837   1.377   7.729 -0.4543 -0.1026  0.0353
  413POPI   C1B 6455  15.133   1.133   9.252  0.1209  0.1154 -0.0993
  413POPI   C2B 6456  14.929   1.228   8.906  0.1033 -0.2441  0.1008
  413POPI   C3B 6457  14.824   1.119   8.514  0.0718  0.1468  0.1063
  413POPI   C4B 6458  14.776   0.930   8.030 -0.1602  0.3564 -0.1878
  414POPI    C1 6459   0.502   2.068  10.363 -0.1331 -0.0194  0.0009
  414POPI    C2 6460   0.825   1.962  10.574 -0.0384 -0.0876 -0.1759
  414POPI    C3 6461   0.623   2.293  10.671  0.2467  0.1072 -0.2329
  414POPI   PO4 6462   0.577   2.052  10.074  0.0336 -0.2451  0.0183
  414POPI   GL1 6463   0.438   2.048   9.560  0.0238  0.0349 -0.1904
  414POPI   GL2 6464   0.323   1.735   9.491  0.1338  0.1091 -0.2961
  414POPI   C1A 6465   0.331   2.080   9.054  0.0790 -0.0443 -0.1162
  414POPI   D2A 6466   0.126   1.908   8.739  0.1849  0.1679  0.1445
  414POPI   C3A 6467   0.129   2.090   8.340 -0.1991 -0.0289 -0.1160
  414POPI   C4A 6468   0.129   1.914   8.074 -0.1891 -0.2812  0.2560
  414POPI   C1B 6469   0.057   1.452   9.219  0.0314  0.5666 -0.0841
  414POPI   C2B 6470  -0.048   1.252   8.819 -0.0559 -0.3177 -0.1169
  414POPI   C3B 6471  -0.116   1.077   8.415 -0.1264 -0.1116  0.1140
  414POPI   C4B 6472  -0.548   0.932   8.256  0.0933  0.0538 -0.0130
  415POPI    C1 6473  12.321   2.319  10.437  0.2354 -0.2679  0.0782
  415POPI    C2 6474  12.453   2.196  10.794 -0.0208 -0.2188  0.1924
  415POPI    C3 6475  12.419   1.936  10.492  0.1595 -0.2686  0.2138
  415POPI   PO4 6476  12.055   2.509  10.493 -0.1696 -0.0212 -0.5268
  415POPI   GL1 6477  11.943   3.029  10.456  0.1176 -0.0265 -0.1638
  415POPI   GL2 6478  12.215   3.156  10.347  0.0183  0.1568  0.0032
  415POPI   C1A 6479  11.737   2.939  10.016  0.3200  0.0393  0.3898
  415POPI   D2A 6480  11.804   2.979   9.531 -0.0054 -0.0936 -0.2778
  415POPI   C3A 6481  11.812   3.226   9.149  0.1416  0.1643  0.1781
  415POPI   C4A 6482  11.823   3.579   8.877 -0.2459 -0.0634  0.1841
  415POPI   C1B 6483  12.190   2.920   9.954  0.0876  0.1972 -0.1688
  415POPI   C2B 6484  12.223   2.754   9.433 -0.3231  0.1084 -0.2642
  415POPI   C3B 6485  12.234   3.007   9.043 -0.1048  0.0788 -0.4717
  415POPI   C4B 6486  12.325   3.402   8.989  0.2515 -0.2179 -0.1548
  416POPI    C1 6487   8.707   4.957  10.733  0.2765 -0.2327 -0.0061
  416POPI    C2 6488   8.588   4.815  11.088  0.1333  0.0290  0.0533
  416POPI    C3 6489   8.461   5.173  10.963  0.2309 -0.0348 -0.2370
  416POPI   PO4 6490   8.997   4.812  10.715  0.1320  0.2212 -0.2911
  416POPI   GL1 6491   8.884   4.494  10.359 -0.1491 -0.0031  0.2102
  416POPI   GL2 6492   8.840   4.243  10.128 -0.4654  0.0584  0.0556
  416POPI   C1A 6493   8.706   4.675   9.984 -0.3606  0.0234  0.0480
  416POPI   D2A 6494   8.703   4.964   9.679 -0.2640  0.0889  0.0278
  416POPI   C3A 6495   8.647   4.863   9.367 -0.0584 -0.2028  0.0350
  416POPI   C4A 6496   8.757   4.897   8.954  0.0879 -0.1813  0.1227
  416POPI   C1B 6497   8.570   4.248   9.781 -0.1530 -0.2699 -0.2167
  416POPI   C2B 6498   8.639   4.237   9.335 -0.0244  0.0877  0.3863
  416POPI   C3B 6499   8.677   4.272   8.973 -0.2754  0.0323 -0.1831
  416POPI   C4B 6500   9.025   4.393   8.697  0.0799 -0.1511  0.0215
  417POPI    C1 6501  18.225  14.386   9.638  0.1782  0.1346  0.0643
  417POPI    C2 6502  18.601  14.277   9.715  0.1252 -0.2197 -0.1578
  417POPI    C3 6503  18.344  14.332  10.016  0.3223 -0.0869 -0.0108
  417POPI   PO4 6504  18.174  14.258   9.449 -0.0874  0.2041 -0.0628
  417POPI   GL1 6505  18.089  14.611   9.161  0.3670 -0.0286  0.0668
  417POPI   GL2 6506  17.885  14.824   9.086 -0.0339 -0.2050  0.0481
  417POPI   C1A 6507  17.828  14.357   8.863  0.0374  0.3544 -0.0195
  417POPI   D2A 6508  17.768  14.341   8.351 -0.1892 -0.0809  0.2537
  417POPI   C3A 6509  17.771  14.069   8.045 -0.0158  0.0763 -0.1980
  417POPI   C4A 6510  17.766  14.103   7.689 -0.1488 -0.0158  0.0087
  417POPI   C1B 6511  17.943  15.104   8.758  0.1723 -0.1476  0.0465
  417POPI   C2B 6512  18.055  15.159   8.410 -0.2082  0.1416  0.0860
  417POPI   C3B 6513  18.148  15.111   8.138  0.0433  0.0132  0.1241
  417POPI   C4B 6514  18.014  14.979   7.749 -0.1674  0.1723  0.1855
  418POPI    C1 6515   0.310  15.131   9.924 -0.0451 -0.4284  0.0464
  418POPI    C2 6516   0.101  15.452  10.040  0.1776 -0.1976 -0.1784
  418POPI    C3 6517   0.136  15.137  10.284  0.2441  0.0870  0.1880
  418POPI   PO4 6518   0.285  15.162   9.674  0.1445 -0.1106  0.3813
  418POPI   GL1 6519   0.218  15.315   9.287 -0.2833  0.1225  0.1394
  418POPI   GL2 6520  -0.015  15.668   9.207  0.1068 -0.1139  0.1988
  418POPI   C1A 6521   0.203  14.856   9.044 -0.0405 -0.2189 -0.0455
  418POPI   D2A 6522  -0.068  14.614   8.795  0.3501  0.0583 -0.0402
  418POPI   C3A 6523  -0.393  14.631   8.491  0.1654 -0.4810 -0.2073
  418POPI   C4A 6524  -0.310  14.563   8.046  0.1173 -0.1267  0.1412
  418POPI   C1B 6525  -0.085  15.975   8.833 -0.2480  0.1573 -0.0197
  418POPI   C2B 6526  -0.020  16.021   8.383 -0.1087  0.2576 -0.0279
  418POPI   C3B 6527   0.237  16.028   8.098 -0.1227  0.0561 -0.3812
  418POPI   C4B 6528   0.297  16.266   7.657  0.0082  0.0963  0.0685
  419POPI    C1 6529   2.842  12.721  10.094 -0.0830 -0.0076  0.1917
  419POPI    C2 6530   2.957  13.092  10.186 -0.2799  0.0093  0.3779
  419POPI    C3 6531   2.594  13.028  10.032 -0.0323 -0.0425 -0.2092
  419POPI   PO4 6532   2.999  12.639   9.930 -0.1398 -0.0634 -0.0279
  419POPI   GL1 6533   3.035  12.610   9.504 -0.0547  0.3487  0.1306
  419POPI   GL2 6534   3.038  12.685   9.223 -0.2052 -0.3039 -0.2193
  419POPI   C1A 6535   3.094  12.167   9.431 -0.1819 -0.1335 -0.0728
  419POPI   D2A 6536   3.257  11.800   9.245 -0.4022 -0.0960  0.2541
  419POPI   C3A 6537   3.184  11.509   8.968  0.1602 -0.0028 -0.0046
  419POPI   C4A 6538   3.097  11.467   8.641 -0.1202  0.4790  0.3395
  419POPI   C1B 6539   3.049  12.687   8.666 -0.2549 -0.1589 -0.2766
  419POPI   C2B 6540   2.919  12.873   8.295 -0.0775 -0.0932  0.2352
  419POPI   C3B 6541   2.702  13.042   7.976  0.2469 -0.0917 -0.2521
  419POPI   C4B 6542   2.511  12.849   7.592  0.2302  0.1185  0.1692
  420POPI    C1 6543   1.659  16.003   9.687 -0.1412 -0.1376 -0.1541
  420POPI    C2 6544   1.715  16.392   9.758  0.0569 -0.1518 -0.2266
  420POPI    C3 6545   1.403  16.202   9.921 -0.0441  0.0379 -0.1958
  420POPI   PO4 6546   1.740  16.016   9.392 -0.1055 -0.0361  0.2271
  420POPI   GL1 6547   1.536  15.728   9.061  0.1710 -0.1205 -0.0925
  420POPI   GL2 6548   1.323  15.827   8.919  0.0748  0.3618  0.2043
  420POPI   C1A 6549   1.547  15.695   8.550 -0.1177  0.0834  0.4043
  420POPI   D2A 6550   1.422  15.663   8.189  0.0174 -0.2744 -0.1151
  420POPI   C3A 6551   1.709  15.773   8.048  0.0041 -0.2782  0.2517
  420POPI   C4A 6552   1.846  16.033   8.439 -0.0835 -0.2341 -0.1554
  420POPI   C1B 6553   1.038  15.855   8.623  0.2181 -0.0596 -0.3992
  420POPI   C2B 6554   0.890  15.639   8.393  0.2153  0.0644 -0.2356
  420POPI   C3B 6555   0.953  15.656   7.974 -0.2309 -0.0525 -0.0729
  420POPI   C4B 6556   0.808  15.540   7.499 -0.0569  0.2196 -0.1774
  421POPI    C1 6557  15.779  16.732  10.037 -0.0779  0.2454 -0.3524
  421POPI    C2 6558  15.800  17.112  10.162  0.1316  0.0813  0.1355
  421POPI    C3 6559  15.913  16.814  10.405  0.1236 -0.2868 -0.2976
  421POPI   PO4 6560  15.687  16.823   9.764  0.1816  0.1970 -0.0470
  421POPI   GL1 6561  15.359  16.914   9.411  0.2623  0.1151  0.3878
  421POPI   GL2 6562  15.031  17.040   9.143 -0.0587  0.1683  0.0457
  421POPI   C1A 6563  15.494  16.869   9.030  0.1721  0.0406  0.1170
  421POPI   D2A 6564  15.370  16.877   8.660 -0.0290 -0.1940 -0.1636
  421POPI   C3A 6565  15.326  16.706   8.256 -0.0745 -0.2078  0.0325
  421POPI   C4A 6566  15.249  16.489   7.875  0.0802  0.0208 -0.0937
  421POPI   C1B 6567  14.922  16.942   8.777 -0.0828  0.0665 -0.0418
  421POPI   C2B 6568  14.935  17.206   8.466 -0.2208 -0.0249 -0.1368
  421POPI   C3B 6569  14.694  17.127   8.144 -0.3602  0.0388  0.2314
  421POPI   C4B 6570  14.522  17.299   7.804 -0.0807  0.0946  0.0495
  422POPI    C1 6571   9.876   2.933  10.815  0.0092 -0.0096  0.1064
  422POPI    C2 6572   9.635   2.665  10.990  0.0535  0.0517  0.2631
  422POPI    C3 6573   9.734   3.001  11.183  0.0309  0.1630  0.0837
  422POPI   PO4 6574   9.963   2.686  10.626 -0.2282 -0.0153  0.1189
  422POPI   GL1 6575  10.227   2.741  10.376  0.1780 -0.2617  0.0245
  422POPI   GL2 6576  10.310   2.962  10.102 -0.0167 -0.4099  0.0843
  422POPI   C1A 6577  10.220   2.543   9.843 -0.0738  0.2535 -0.1625
  422POPI   D2A 6578  10.329   2.692   9.394 -0.0761 -0.0921  0.2262
  422POPI   C3A 6579  10.607   2.662   9.035  0.1027  0.1050  0.0755
  422POPI   C4A 6580  10.898   2.866   8.756 -0.0520 -0.1011 -0.0576
  422POPI   C1B 6581  10.344   3.105   9.752 -0.0067 -0.1105  0.1873
  422POPI   C2B 6582  10.255   3.240   9.319 -0.1233 -0.3246 -0.1088
  422POPI   C3B 6583  10.418   3.185   9.009  0.2650 -0.1778 -0.0805
  422POPI   C4B 6584  10.463   3.113   8.541  0.2707 -0.1045 -0.2076
  423DPPI    C1 6585   4.635  11.561  10.098  0.0333 -0.0097  0.2983
  423DPPI    C2 6586   4.441  11.428  10.421 -0.0480 -0.0498  0.2335
  423DPPI    C3 6587   4.236  11.590  10.118  0.0352  0.0642  0.2373
  423DPPI   PO4 6588   4.761  11.342  10.023 -0.1692 -0.0693  0.0023
  423DPPI   GL1 6589   4.725  11.272   9.594  0.1364 -0.1684  0.0331
  423DPPI   GL2 6590   4.353  11.311   9.614 -0.1351 -0.2924 -0.0740
  423DPPI   C1A 6591   4.757  11.677   9.440  0.0211  0.0930 -0.1215
  423DPPI   C2A 6592   4.715  11.841   9.057  0.0255 -0.0765  0.0277
  423DPPI   C3A 6593   4.799  11.934   8.667  0.0478 -0.3089 -0.1595
  423DPPI   C4A 6594   4.786  12.034   8.283  0.1574 -0.0947 -0.0231
  423DPPI   C1B 6595   4.453  11.404   9.158 -0.1305 -0.0066 -0.0402
  423DPPI   C2B 6596   4.487  11.486   8.797  0.1606  0.2810  0.3944
  423DPPI   C3B 6597   4.569  11.481   8.248  0.1866 -0.1836 -0.0709
  423DPPI   C4B 6598   4.589  11.334   7.843  0.0827  0.0851  0.1584
  424DPPI    C1 6599  11.583  18.444  10.671 -0.1461 -0.2111  0.0199
  424DPPI    C2 6600  11.903  18.567  10.878 -0.0165 -0.2516 -0.1538
  424DPPI    C3 6601  11.681  18.263  11.014 -0.1512 -0.0378  0.1137
  424DPPI   PO4 6602  11.689  18.553  10.439  0.0996  0.0722 -0.2316
  424DPPI   GL1 6603  11.961  18.703  10.116 -0.1195 -0.0966  0.0594
  424DPPI   GL2 6604  11.954  18.939   9.980 -0.1615 -0.0055 -0.2740
  424DPPI   C1A 6605  12.029  18.556   9.679  0.2355 -0.0277 -0.0937
  424DPPI   C2A 6606  12.048  18.527   9.287 -0.4540 -0.2862  0.0463
  424DPPI   C3A 6607  11.947  18.396   8.876  0.3121 -0.1557  0.0532
  424DPPI   C4A 6608  11.941  18.561   8.468  0.0281 -0.0648  0.0635
  424DPPI   C1B 6609  12.223  19.149   9.706  0.1957  0.0715 -0.0403
  424DPPI   C2B 6610  12.283  19.215   9.346  0.2289 -0.0832 -0.5093
  424DPPI   C3B 6611  12.086  19.113   8.960  0.4067 -0.0374 -0.3469
  424DPPI   C4B 6612  12.001  19.185   8.530 -0.3236  0.4056 -0.3735
  425DPPI    C1 6613  17.986  17.184   9.980  0.1346 -0.0294 -0.0685
  425DPPI    C2 6614  18.328  16.976   9.974  0.0537 -0.1651 -0.0343
  425DPPI    C3 6615  18.234  17.197  10.294  0.1097 -0.1261 -0.0445
  425DPPI   PO4 6616  17.972  17.162   9.673  0.0688 -0.0569 -0.3130
  425DPPI   GL1 6617  17.709  17.046   9.315 -0.2781 -0.0885  0.0258
  425DPPI   GL2 6618  18.002  17.013   9.175 -0.0797  0.1475  0.0657
  425DPPI   C1A 6619  17.594  17.067   8.809  0.0044 -0.0462  0.3379
  425DPPI   C2A 6620  17.409  17.047   8.327 -0.0395  0.3166 -0.2838
  425DPPI   C3A 6621  17.225  16.789   7.930 -0.1680  0.1804 -0.1817
  425DPPI   C4A 6622  17.053  16.739   7.493 -0.0229  0.1812 -0.1341
  425DPPI   C1B 6623  18.264  17.142   8.807 -0.4183 -0.1679  0.1865
  425DPPI   C2B 6624  18.343  17.204   8.395 -0.2857  0.1179 -0.1548
  425DPPI   C3B 6625  18.149  17.162   7.943 -0.1353  0.1401 -0.1337
  425DPPI   C4B 6626  18.046  17.293   7.517 -0.1991  0.1414  0.2023
  426DPPI    C1 6627  11.352   9.340  10.640 -0.2158 -0.0131 -0.0134
  426DPPI    C2 6628  11.152   9.104  10.892 -0.0783  0.1402  0.2436
  426DPPI    C3 6629  11.523   9.223  10.981  0.1686 -0.2116 -0.2668
  426DPPI   PO4 6630  11.346   9.237  10.468  0.1075 -0.0408 -0.1084
  426DPPI   GL1 6631  11.203   9.292  10.093 -0.0402  0.0468 -0.1959
  426DPPI   GL2 6632  11.325   9.498   9.939 -0.2455  0.2391  0.4497
  426DPPI   C1A 6633  10.973   9.183   9.717  0.5204  0.0750  0.1436
  426DPPI   C2A 6634  10.897   8.934   9.332 -0.1865  0.4038  0.1399
  426DPPI   C3A 6635  10.632   8.753   9.165  0.3522  0.1930  0.3241
  426DPPI   C4A 6636  10.498   8.424   8.890 -0.0125  0.2813  0.0177
  426DPPI   C1B 6637  11.289   9.511   9.539 -0.0080  0.2908  0.2967
  426DPPI   C2B 6638  11.386   9.375   9.133  0.1126 -0.0425  0.0184
  426DPPI   C3B 6639  11.219   9.098   8.888  0.0463  0.0470 -0.1187
  426DPPI   C4B 6640  10.986   8.807   8.740  0.3001  0.0444 -0.1881
  427DPPI    C1 6641   8.428  17.590  10.726  0.0758  0.3317  0.2397
  427DPPI    C2 6642   8.816  17.609  10.631 -0.0043  0.3249 -0.1000
  427DPPI    C3 6643   8.700  17.666  11.010  0.3546  0.0231  0.0615
  427DPPI   PO4 6644   8.373  17.653  10.324 -0.2577 -0.2111 -0.0614
  427DPPI   GL1 6645   8.292  17.428   9.950 -0.1213  0.0002 -0.1479
  427DPPI   GL2 6646   8.152  17.730   9.768 -0.4462 -0.2377  0.0414
  427DPPI   C1A 6647   8.656  17.591   9.744 -0.0323 -0.4677  0.1230
  427DPPI   C2A 6648   8.836  17.724   9.379 -0.4547 -0.1783  0.0992
  427DPPI   C3A 6649   9.047  17.804   9.139 -0.1363  0.2745 -0.2439
  427DPPI   C4A 6650   9.068  17.956   8.745  0.0183  0.0705  0.2540
  427DPPI   C1B 6651   8.337  17.443   9.408 -0.0777 -0.6156 -0.0634
  427DPPI   C2B 6652   8.443  17.457   9.048 -0.1030  0.1346  0.1956
  427DPPI   C3B 6653   8.434  17.499   8.590  0.0890 -0.2773 -0.0303
  427DPPI   C4B 6654   8.522  17.486   8.085  0.1644  0.1399 -0.0098
  428DPPI    C1 6655  17.406   7.601  10.651  0.1367  0.1027  0.0617
  428DPPI    C2 6656  17.139   7.525  10.362  0.0389  0.2120  0.1221
  428DPPI    C3 6657  17.080   7.831  10.613  0.2392  0.2585  0.1144
  428DPPI   PO4 6658  17.594   7.511  10.540  0.0451 -0.1990 -0.0423
  428DPPI   GL1 6659  17.734   7.726  10.153  0.1767  0.1064 -0.1840
  428DPPI   GL2 6660  17.393   7.822  10.020  0.1576  0.2274  0.0247
  428DPPI   C1A 6661  17.701   7.642   9.691  0.1004  0.1858  0.1132
  428DPPI   C2A 6662  17.686   7.794   9.175 -0.1728 -0.1071 -0.1289
  428DPPI   C3A 6663  17.692   7.904   8.760 -0.0895 -0.3432  0.1232
  428DPPI   C4A 6664  17.658   8.136   8.419 -0.1352 -0.0529  0.1237
  428DPPI   C1B 6665  17.153   7.705   9.659 -0.1455  0.2074 -0.1190
  428DPPI   C2B 6666  17.193   7.838   9.240  0.0803  0.1893 -0.2107
  428DPPI   C3B 6667  16.983   7.832   8.840 -0.0444 -0.4957  0.3018
  428DPPI   C4B 6668  16.722   7.776   8.484 -0.4219 -0.2723  0.0925
  429DPPI    C1 6669   7.494   7.427  10.685 -0.0714 -0.1889 -0.0864
  429DPPI    C2 6670   7.409   7.713  10.951  0.0061 -0.0529 -0.2068
  429DPPI    C3 6671   7.204   7.370  10.955 -0.2190  0.0798 -0.1842
  429DPPI   PO4 6672   7.486   7.548  10.483  0.0321 -0.1216 -0.1229
  429DPPI   GL1 6673   7.476   7.316  10.121  0.0693  0.0303  0.2743
  429DPPI   GL2 6674   7.336   7.595   9.882 -0.0515 -0.0423  0.1566
  429DPPI   C1A 6675   7.405   6.961   9.813 -0.1131  0.1698  0.0707
  429DPPI   C2A 6676   7.173   6.761   9.478  0.0748 -0.0095  0.0570
  429DPPI   C3A 6677   7.234   6.591   9.044 -0.1302  0.2900  0.1169
  429DPPI   C4A 6678   7.179   6.724   8.637  0.2182  0.0241 -0.1560
  429DPPI   C1B 6679   7.626   7.406   9.514  0.1032  0.0472  0.4019
  429DPPI   C2B 6680   7.611   7.490   9.057 -0.2117 -0.0410 -0.4474
  429DPPI   C3B 6681   7.759   7.423   8.590  0.2000 -0.2449 -0.1271
  429DPPI   C4B 6682   8.093   7.534   8.261 -0.1321  0.0424  0.2231
  430DPPI    C1 6683   0.530  14.003   9.901 -0.2613 -0.2272  0.1302
  430DPPI    C2 6684   0.583  14.246  10.214 -0.2379 -0.0107 -0.0386
  430DPPI    C3 6685   0.249  14.027  10.184 -0.1904 -0.1181  0.1921
  430DPPI   PO4 6686   0.734  13.925   9.796  0.0531  0.3556 -0.2356
  430DPPI   GL1 6687   1.014  13.703   9.482 -0.0472 -0.5503 -0.2487
  430DPPI   GL2 6688   0.904  14.033   9.361 -0.1817 -0.0603 -0.0294
  430DPPI   C1A 6689   0.773  13.598   9.002  0.2640 -0.1645 -0.0403
  430DPPI   C2A 6690   0.656  13.408   8.560 -0.0158 -0.1723 -0.0997
  430DPPI   C3A 6691   0.438  13.473   8.168  0.2246 -0.1925  0.2030
  430DPPI   C4A 6692   0.344  13.314   7.782  0.2024  0.2892 -0.4186
  430DPPI   C1B 6693   0.885  14.074   8.944  0.0256  0.0472 -0.0796
  430DPPI   C2B 6694   0.901  14.257   8.621 -0.0074 -0.0209 -0.0880
  430DPPI   C3B 6695   0.751  14.420   8.252  0.1949  0.1052 -0.2433
  430DPPI   C4B 6696   0.671  14.756   8.042 -0.0239 -0.1108 -0.1222
  431DPPI    C1 6697  14.325  11.679  10.658 -0.0522 -0.1697  0.2178
  431DPPI    C2 6698  14.658  11.628  10.873  0.1169 -0.0485 -0.0118
  431DPPI    C3 6699  14.325  11.761  11.049  0.2392  0.0005  0.1851
  431DPPI   PO4 6700  14.314  11.849  10.490 -0.0188 -0.3881  0.0311
  431DPPI   GL1 6701  14.495  11.940  10.119 -0.0385 -0.2202  0.1520
  431DPPI   GL2 6702  14.360  11.654  10.019 -0.0906  0.2310 -0.0074
  431DPPI   C1A 6703  14.581  12.293   9.889  0.1736 -0.0407 -0.0495
  431DPPI   C2A 6704  14.541  12.293   9.478 -0.0291 -0.2892 -0.1358
  431DPPI   C3A 6705  14.484  12.219   9.079 -0.2848 -0.1449 -0.3355
  431DPPI   C4A 6706  14.757  11.995   8.788 -0.0190 -0.1944 -0.0778
  431DPPI   C1B 6707  14.395  11.833   9.582  0.3467  0.0632  0.1617
  431DPPI   C2B 6708  14.334  11.654   9.131 -0.0365  0.0071  0.2397
  431DPPI   C3B 6709  14.292  11.770   8.737  0.1883 -0.0610  0.3246
  431DPPI   C4B 6710  14.284  12.103   8.504  0.1826 -0.0911  0.0700
  432DPPI    C1 6711  16.709  17.211  10.107  0.2358 -0.2160 -0.2009
  432DPPI    C2 6712  16.734  16.878  10.328  0.1641 -0.0091  0.1261
  432DPPI    C3 6713  16.392  17.086  10.316  0.2170  0.0698 -0.0538
  432DPPI   PO4 6714  16.701  17.177   9.840  0.2178  0.5094 -0.1884
  432DPPI   GL1 6715  16.640  16.757   9.620 -0.1038  0.1445  0.1866
  432DPPI   GL2 6716  16.591  16.485   9.464  0.0845 -0.2286 -0.4187
  432DPPI   C1A 6717  16.395  16.982   9.247 -0.2205 -0.0309  0.3177
  432DPPI   C2A 6718  16.326  16.962   8.810 -0.4403 -0.1780  0.0108
  432DPPI   C3A 6719  16.367  16.888   8.349  0.0179  0.0683 -0.0508
  432DPPI   C4A 6720  16.230  16.865   7.918  0.1697 -0.1504 -0.0300
  432DPPI   C1B 6721  16.827  16.624   9.116 -0.2869  0.0790  0.2262
  432DPPI   C2B 6722  16.694  16.630   8.645 -0.0776 -0.0793 -0.0807
  432DPPI   C3B 6723  16.648  16.452   8.237  0.4292  0.1723 -0.1920
  432DPPI   C4B 6724  16.627  16.234   7.821 -0.0838 -0.5205 -0.2559
  433DPPI    C1 6725  13.814   6.375  10.766  0.2342 -0.1979  0.0475
  433DPPI    C2 6726  13.737   6.621  11.072  0.0271 -0.2925  0.0731
  433DPPI    C3 6727  13.873   6.251  11.142 -0.1525 -0.3623  0.0587
  433DPPI   PO4 6728  13.831   6.552  10.558  0.2849  0.2968 -0.1508
  433DPPI   GL1 6729  13.899   6.793  10.176  0.3128  0.1723 -0.3237
  433DPPI   GL2 6730  13.919   6.503  10.082 -0.1284 -0.1524  0.3642
  433DPPI   C1A 6731  13.975   7.095   9.742 -0.1441  0.0216  0.1089
  433DPPI   C2A 6732  13.927   7.214   9.298  0.0895  0.0928  0.0072
  433DPPI   C3A 6733  13.863   7.545   9.022  0.1980  0.0870 -0.0153
  433DPPI   C4A 6734  13.745   7.913   9.265  0.0217 -0.3226  0.1107
  433DPPI   C1B 6735  13.894   6.598   9.657 -0.2863 -0.3177 -0.0169
  433DPPI   C2B 6736  13.903   6.642   9.234 -0.0426  0.2026 -0.0235
  433DPPI   C3B 6737  13.819   6.508   8.849 -0.0231  0.3349 -0.1570
  433DPPI   C4B 6738  14.021   6.148   8.542  0.2001 -0.2097 -0.0540
  434DPPI    C1 6739  16.304   7.224  10.813  0.0105  0.2324  0.1571
  434DPPI    C2 6740  16.616   7.034  10.976 -0.0765  0.0365  0.0986
  434DPPI    C3 6741  16.644   7.422  10.884  0.0721  0.0765  0.3048
  434DPPI   PO4 6742  16.077   7.071  10.593 -0.0463  0.5138 -0.2865
  434DPPI   GL1 6743  15.953   6.934  10.217 -0.0043  0.2986 -0.3488
  434DPPI   GL2 6744  16.013   6.534  10.243 -0.0261  0.3168 -0.2656
  434DPPI   C1A 6745  16.032   6.940   9.660 -0.0505  0.0147 -0.0526
  434DPPI   C2A 6746  15.968   6.893   9.262  0.0317 -0.0130 -0.2237
  434DPPI   C3A 6747  16.180   6.918   8.871 -0.3303  0.0575  0.3893
  434DPPI   C4A 6748  16.472   6.977   8.537 -0.1397 -0.1411  0.0190
  434DPPI   C1B 6749  15.837   6.533   9.886 -0.1853  0.4652 -0.2071
  434DPPI   C2B 6750  15.774   6.495   9.404  0.1916  0.0017 -0.1146
  434DPPI   C3B 6751  15.941   6.477   8.955  0.2220  0.0733  0.1866
  434DPPI   C4B 6752  16.120   6.499   8.543 -0.0621 -0.0669  0.0662
  435DPPI    C1 6753  12.410  12.428  10.296 -0.0664 -0.0248 -0.1326
  435DPPI    C2 6754  12.173  12.108  10.331  0.0698 -0.1310 -0.1723
  435DPPI    C3 6755  12.430  12.199  10.623  0.0745 -0.0935 -0.1881
  435DPPI   PO4 6756  12.241  12.526  10.108 -0.0546 -0.1191 -0.0243
  435DPPI   GL1 6757  12.161  12.769   9.795 -0.3397 -0.0044  0.1683
  435DPPI   GL2 6758  11.931  12.780   9.759  0.0865  0.1583  0.3325
  435DPPI   C1A 6759  12.499  12.657   9.522 -0.2272 -0.0184  0.1483
  435DPPI   C2A 6760  12.590  12.668   9.110  0.0774  0.2007 -0.0098
  435DPPI   C3A 6761  12.388  12.704   8.658 -0.1197  0.0887  0.0497
  435DPPI   C4A 6762  12.560  12.287   8.432  0.0714 -0.2255  0.0598
  435DPPI   C1B 6763  11.973  12.796   9.307  0.2081 -0.1216  0.3215
  435DPPI   C2B 6764  11.842  12.719   8.940  0.0298 -0.2099  0.1864
  435DPPI   C3B 6765  11.879  12.576   8.516  0.2591 -0.3819  0.0241
  435DPPI   C4B 6766  12.149  12.476   8.256  0.1208  0.1988 -0.2392
  436DPPI    C1 6767  13.700  12.088  10.656 -0.0820 -0.0377 -0.2241
  436DPPI    C2 6768  13.755  12.472  10.558  0.1891 -0.0525 -0.1370
  436DPPI    C3 6769  13.385  12.330  10.611  0.0997  0.2891  0.1949
  436DPPI   PO4 6770  13.829  11.896  10.574  0.3317 -0.0722 -0.1289
  436DPPI   GL1 6771  13.918  11.781  10.096  0.0767  0.3376 -0.0706
  436DPPI   GL2 6772  13.554  11.812   9.890 -0.1742  0.1506 -0.1927
  436DPPI   C1A 6773  14.022  11.569   9.676 -0.3093 -0.5087 -0.2923
  436DPPI   C2A 6774  13.881  11.498   9.226  0.1711  0.2349  0.1621
  436DPPI   C3A 6775  13.969  11.417   8.908  0.1176 -0.2810 -0.0184
  436DPPI   C4A 6776  13.943  11.492   8.501 -0.0408 -0.3965  0.2943
  436DPPI   C1B 6777  13.451  11.624   9.562 -0.2186 -0.0921  0.1300
  436DPPI   C2B 6778  13.340  11.557   9.103 -0.0029  0.0332 -0.1910
  436DPPI   C3B 6779  13.463  11.533   8.684  0.0397 -0.2737  0.1723
  436DPPI   C4B 6780  13.528  11.247   8.422 -0.0174  0.1831 -0.0692
  437DPPI    C1 6781   2.025  15.259   9.764 -0.1599 -0.0147 -0.1509
  437DPPI    C2 6782   2.286  15.214   9.465 -0.1747  0.2602 -0.2069
  437DPPI    C3 6783   2.160  15.580   9.568 -0.1580  0.1703  0.1463
  437DPPI   PO4 6784   1.843  15.028   9.645  0.0936 -0.1917 -0.1454
  437DPPI   GL1 6785   1.722  14.898   9.190 -0.1575 -0.0519  0.2327
  437DPPI   GL2 6786   2.136  14.815   9.197 -0.0399 -0.1107  0.1675
  437DPPI   C1A 6787   1.745  14.889   8.843  0.1317 -0.4079  0.2591
  437DPPI   C2A 6788   1.539  14.923   8.402  0.1331 -0.0826  0.2495
  437DPPI   C3A 6789   1.532  14.911   8.025 -0.1382  0.0219 -0.2314
  437DPPI   C4A 6790   1.558  14.895   7.591  0.1817 -0.3938  0.0901
  437DPPI   C1B 6791   2.337  14.966   8.762 -0.0709 -0.1504  0.1320
  437DPPI   C2B 6792   2.501  15.352   8.561 -0.2147  0.3493 -0.1236
  437DPPI   C3B 6793   2.443  15.423   8.115 -0.2627  0.0758 -0.0824
  437DPPI   C4B 6794   2.381  15.435   7.654 -0.0491  0.0878 -0.0654
  438DPPI    C1 6795   0.403  17.398   9.352 -0.1052 -0.2711 -0.0897
  438DPPI    C2 6796   0.332  17.231   9.709  0.1858 -0.1066  0.0486
  438DPPI    C3 6797   0.543  17.032   9.434  0.2284 -0.1088  0.0828
  438DPPI   PO4 6798   0.107  17.504   9.347  0.2200  0.0801 -0.0187
  438DPPI   GL1 6799   0.173  17.904   9.177  0.0564 -0.3598  0.1290
  438DPPI   GL2 6800  -0.129  17.801   9.008 -0.0085 -0.5416 -0.5084
  438DPPI   C1A 6801   0.330  17.789   8.707  0.0546  0.1852 -0.0774
  438DPPI   C2A 6802   0.212  17.697   8.343 -0.0212  0.2937  0.0963
  438DPPI   C3A 6803   0.069  17.423   7.996 -0.1548  0.3127 -0.2474
  438DPPI   C4A 6804   0.035  17.277   7.637  0.4448  0.0190  0.2942
  438DPPI   C1B 6805  -0.243  17.653   8.616  0.3410  0.0178 -0.0790
  438DPPI   C2B 6806  -0.291  17.654   8.259  0.3736  0.0975 -0.0535
  438DPPI   C3B 6807  -0.304  17.716   7.767  0.0931  0.3499 -0.0475
  438DPPI   C4B 6808   0.001  17.650   7.331 -0.1234  0.0428  0.0846
  439DPPI    C1 6809   9.497   1.280  10.431 -0.0016  0.0265  0.0599
  439DPPI    C2 6810   9.157   1.474  10.510 -0.0692 -0.0319 -0.0833
  439DPPI    C3 6811   9.234   1.125  10.689 -0.0882 -0.0226 -0.0569
  439DPPI   PO4 6812   9.598   1.191  10.120 -0.1890  0.1984 -0.0425
  439DPPI   GL1 6813   9.490   1.028   9.766 -0.2641  0.1728 -0.1115
  439DPPI   GL2 6814   9.704   0.942   9.658 -0.1234  0.0737  0.1844
  439DPPI   C1A 6815   9.376   1.168   9.321  0.2794 -0.0099 -0.2254
  439DPPI   C2A 6816   9.406   1.214   8.955 -0.0318 -0.3032 -0.0023
  439DPPI   C3A 6817   9.443   1.072   8.529  0.3908 -0.0255 -0.1314
  439DPPI   C4A 6818   9.699   1.269   8.186  0.4148  0.1936  0.3310
  439DPPI   C1B 6819   9.813   0.904   9.261 -0.1298  0.1533 -0.1940
  439DPPI   C2B 6820   9.918   0.868   8.822 -0.1156 -0.0387 -0.0698
  439DPPI   C3B 6821   9.888   0.862   8.391  0.1899 -0.1830 -0.0540
  439DPPI   C4B 6822   9.793   0.870   7.889 -0.2413  0.1088 -0.1274
  440DPPI    C1 6823  15.268  16.546   9.950  0.1962 -0.1078 -0.0344
  440DPPI    C2 6824  15.030  16.252  10.078  0.0811  0.0290  0.0697
  440DPPI    C3 6825  15.232  16.474  10.342  0.0602  0.1329 -0.0010
  440DPPI   PO4 6826  15.010  16.826   9.738  0.1135 -0.0119 -0.2873
  440DPPI   GL1 6827  14.674  16.903   9.521  0.0230 -0.4281  0.1121
  440DPPI   GL2 6828  14.412  16.817   9.718  0.0179  0.1409 -0.3444
  440DPPI   C1A 6829  14.519  17.023   9.103 -0.0560 -0.1503  0.2277
  440DPPI   C2A 6830  14.446  17.067   8.641  0.0222  0.0691  0.0922
  440DPPI   C3A 6831  14.441  16.797   8.346 -0.0168 -0.0466  0.0971
  440DPPI   C4A 6832  14.724  16.669   8.221 -0.3136  0.1016  0.0765
  440DPPI   C1B 6833  14.540  16.537   9.280 -0.4288  0.1078  0.0565
  440DPPI   C2B 6834  14.619  16.489   8.860  0.0767  0.0483 -0.1617
  440DPPI   C3B 6835  14.616  16.232   8.483 -0.0525 -0.1003  0.1736
  440DPPI   C4B 6836  14.566  16.212   8.099 -0.1550  0.0471 -0.0452
  441DPPI    C1 6837  12.308   1.645  10.909  0.1705  0.0604  0.1055
  441DPPI    C2 6838  12.002   1.902  10.910  0.1165  0.0029 -0.2465
  441DPPI    C3 6839  12.031   1.624  11.196 -0.1384  0.0333 -0.1888
  441DPPI   PO4 6840  12.207   1.469  10.657  0.1609 -0.6465  0.1841
  441DPPI   GL1 6841  12.231   1.576  10.172  0.1963 -0.0427 -0.1316
  441DPPI   GL2 6842  12.234   1.922  10.040 -0.1837  0.0349 -0.1140
  441DPPI   C1A 6843  12.469   1.619   9.677 -0.0387  0.3142 -0.1409
  441DPPI   C2A 6844  12.566   1.668   9.256 -0.2981 -0.2431 -0.0985
  441DPPI   C3A 6845  12.587   1.844   8.796 -0.3412 -0.1075  0.0908
  441DPPI   C4A 6846  12.607   2.143   8.545 -0.0758 -0.1413  0.1294
  441DPPI   C1B 6847  12.019   1.824   9.770 -0.0647  0.1868 -0.0841
  441DPPI   C2B 6848  12.091   1.681   9.351 -0.3290 -0.2024 -0.1140
  441DPPI   C3B 6849  12.155   1.598   8.923  0.2076  0.0491  0.1104
  441DPPI   C4B 6850  12.191   1.827   8.486  0.0536  0.2430 -0.2292
  442DPPI    C1 6851   0.487   4.862  10.328  0.1245  0.0533  0.1932
  442DPPI    C2 6852   0.350   4.835  10.703 -0.5200 -0.0489 -0.0366
  442DPPI    C3 6853   0.641   4.591  10.578 -0.1613  0.1170  0.4450
  442DPPI   PO4 6854   0.477   5.143  10.285 -0.0321  0.0371  0.1946
  442DPPI   GL1 6855   0.443   5.532  10.063 -0.1899 -0.2419  0.1641
  442DPPI   GL2 6856   0.147   5.529   9.990  0.0175 -0.0783  0.1520
  442DPPI   C1A 6857   0.545   5.917   9.738  0.1470 -0.0411 -0.3332
  442DPPI   C2A 6858   0.908   6.108   9.468  0.0351  0.1811 -0.3498
  442DPPI   C3A 6859   1.181   5.999   9.139 -0.1481 -0.1183 -0.1067
  442DPPI   C4A 6860   1.201   5.961   8.702 -0.2193 -0.0458  0.0922
  442DPPI   C1B 6861   0.064   5.451   9.589 -0.0417  0.0088  0.4120
  442DPPI   C2B 6862   0.188   5.729   9.272  0.1716 -0.0565  0.0012
  442DPPI   C3B 6863   0.266   5.771   8.878  0.0107 -0.2482 -0.0176
  442DPPI   C4B 6864   0.201   5.796   8.472 -0.0088 -0.4709 -0.1846
  443DPPI    C1 6865   9.300  17.818  10.567  0.0146 -0.0336  0.0957
  443DPPI    C2 6866   9.590  18.014  10.761  0.0434 -0.0555  0.0748
  443DPPI    C3 6867   9.597  17.614  10.740 -0.2181 -0.0848  0.4453
  443DPPI   PO4 6868   9.280  17.897  10.326 -0.3011  0.1725  0.1723
  443DPPI   GL1 6869   9.185  17.805   9.942  0.1624 -0.2218 -0.3064
  443DPPI   GL2 6870   9.008  17.557  10.109  0.1810  0.1556 -0.0639
  443DPPI   C1A 6871   9.281  17.953   9.533 -0.0572  0.3286  0.4026
  443DPPI   C2A 6872   9.351  18.198   9.101  0.4968 -0.2339  0.1509
  443DPPI   C3A 6873   9.533  18.253   8.717 -0.0221  0.0265 -0.5437
  443DPPI   C4A 6874   9.684  18.506   8.507 -0.0799  0.1795  0.0054
  443DPPI   C1B 6875   9.146  17.376   9.687  0.1173 -0.1507  0.0720
  443DPPI   C2B 6876   9.341  17.370   9.165 -0.1350  0.3747 -0.2499
  443DPPI   C3B 6877   9.293  17.261   8.660  0.0245  0.0852  0.1398
  443DPPI   C4B 6878   9.394  17.204   8.192 -0.2285  0.4340 -0.1190
  444DPPI    C1 6879   3.579   4.939  10.258  0.0655 -0.2627  0.1319
  444DPPI    C2 6880   3.571   5.102  10.623  0.0293  0.0306  0.0032
  444DPPI    C3 6881   3.271   5.169  10.367  0.2854  0.2337 -0.2504
  444DPPI   PO4 6882   3.832   5.004  10.128 -0.3719 -0.2350 -0.2128
  444DPPI   GL1 6883   3.842   5.318   9.781  0.0145  0.2148  0.0995
  444DPPI   GL2 6884   4.029   5.578   9.904  0.1467  0.2936  0.0884
  444DPPI   C1A 6885   4.009   5.158   9.422 -0.3905 -0.1781  0.1103
  444DPPI   C2A 6886   4.051   5.242   9.094 -0.2925 -0.0547  0.0390
  444DPPI   C3A 6887   4.158   5.230   8.666 -0.1672  0.2207  0.1530
  444DPPI   C4A 6888   4.505   5.057   8.293 -0.0972  0.0340 -0.2345
  444DPPI   C1B 6889   4.034   5.639   9.456 -0.0463 -0.7068 -0.0355
  444DPPI   C2B 6890   4.200   5.812   9.131 -0.0798 -0.2715 -0.0814
  444DPPI   C3B 6891   4.310   5.763   8.695  0.1539  0.0113 -0.1326
  444DPPI   C4B 6892   4.307   5.626   8.353 -0.0317  0.0255 -0.2129
  445DPPI    C1 6893  16.003  14.290  10.270 -0.0659  0.0156  0.1019
  445DPPI    C2 6894  15.765  14.019  10.443 -0.1645 -0.2050 -0.3617
  445DPPI    C3 6895  16.162  13.985  10.474 -0.1808 -0.0167  0.1437
  445DPPI   PO4 6896  15.881  14.361   9.977  0.2635  0.1671 -0.1451
  445DPPI   GL1 6897  15.896  14.360   9.625  0.3018 -0.0552 -0.0979
  445DPPI   GL2 6898  16.017  14.056   9.552 -0.0492  0.2044  0.2816
  445DPPI   C1A 6899  15.712  14.504   9.303 -0.2593 -0.0760 -0.1920
  445DPPI   C2A 6900  15.682  14.356   8.811  0.2498  0.1281  0.1035
  445DPPI   C3A 6901  15.529  14.183   8.414  0.4326  0.1593  0.0475
  445DPPI   C4A 6902  15.427  13.815   8.162 -0.1569  0.2673 -0.0239
  445DPPI   C1B 6903  16.049  14.084   9.119 -0.0548  0.0158  0.0502
  445DPPI   C2B 6904  15.925  13.913   8.612  0.2290  0.3184  0.1768
  445DPPI   C3B 6905  15.948  13.867   8.203 -0.0332  0.3149 -0.1713
  445DPPI   C4B 6906  15.773  13.793   7.789 -0.0364  0.0234  0.0386
  446DPPI    C1 6907  16.238   1.713  10.271 -0.0860 -0.1030 -0.0652
  446DPPI    C2 6908  16.576   1.512  10.345 -0.2152 -0.2966  0.0057
  446DPPI    C3 6909  16.307   1.567  10.637 -0.2593 -0.1701 -0.0580
  446DPPI   PO4 6910  16.118   1.594  10.001 -0.1357 -0.1896 -0.0990
  446DPPI   GL1 6911  16.084   1.854   9.671  0.0635 -0.4884 -0.2308
  446DPPI   GL2 6912  16.386   1.771   9.594 -0.1820  0.2306 -0.0787
  446DPPI   C1A 6913  15.638   1.822   9.481 -0.1813 -0.2212  0.0936
  446DPPI   C2A 6914  15.484   1.554   9.117  0.0378  0.1014  0.0329
  446DPPI   C3A 6915  15.332   1.551   8.664  0.0098 -0.3438  0.3360
  446DPPI   C4A 6916  15.453   1.787   8.280 -0.0671 -0.1024 -0.1068
  446DPPI   C1B 6917  16.166   1.902   9.198 -0.1297  0.0828  0.0952
  446DPPI   C2B 6918  15.846   2.079   9.078  0.4308 -0.0575 -0.0093
  446DPPI   C3B 6919  15.629   2.289   9.300  0.0480  0.2301 -0.0430
  446DPPI   C4B 6920  15.563   2.333   9.784  0.1820 -0.0780  0.1431
  447DPPI    C1 6921   9.556  11.152  10.730  0.0529  0.2120 -0.0244
  447DPPI    C2 6922   9.909  11.011  10.857 -0.0486 -0.1626 -0.1447
  447DPPI    C3 6923   9.602  11.042  11.112 -0.0651 -0.2924 -0.1481
  447DPPI   PO4 6924   9.595  11.041  10.418 -0.2594 -0.0977 -0.3378
  447DPPI   GL1 6925   9.500  10.648  10.205  0.3425 -0.0335  0.0407
  447DPPI   GL2 6926   9.849  10.757  10.044  0.0066 -0.2226 -0.2022
  447DPPI   C1A 6927   9.219  10.700   9.834 -0.3195 -0.0624 -0.1068
  447DPPI   C2A 6928   9.150  10.571   9.370 -0.0519 -0.1217  0.3703
  447DPPI   C3A 6929   9.278  10.615   8.959  0.1704  0.0653 -0.1514
  447DPPI   C4A 6930   9.391  10.844   8.539  0.1621  0.0454  0.0425
  447DPPI   C1B 6931  10.143  10.661   9.770  0.0057 -0.0031 -0.0801
  447DPPI   C2B 6932  10.270  10.616   9.384 -0.0590 -0.2354 -0.2390
  447DPPI   C3B 6933  10.303  10.602   8.899 -0.2193 -0.1203  0.2486
  447DPPI   C4B 6934  10.213  10.535   8.538  0.0214 -0.1704 -0.0412
  448DPPI    C1 6935  16.680  14.805   9.971  0.1020  0.0160 -0.0096
  448DPPI    C2 6936  16.927  14.814  10.286  0.2917  0.0642 -0.1580
  448DPPI    C3 6937  16.611  15.059  10.271  0.1786 -0.0647  0.0770
  448DPPI   PO4 6938  16.797  14.715   9.726 -0.0647 -0.1397  0.1381
  448DPPI   GL1 6939  16.703  14.617   9.339  0.3276 -0.0587 -0.1810
  448DPPI   GL2 6940  16.573  14.984   9.441 -0.1523  0.0412 -0.2085
  448DPPI   C1A 6941  16.817  14.540   8.941  0.0240  0.1980  0.1566
  448DPPI   C2A 6942  17.030  14.565   8.598 -0.0887  0.0680 -0.1489
  448DPPI   C3A 6943  17.314  14.579   8.199 -0.0380 -0.1115 -0.1894
  448DPPI   C4A 6944  17.316  14.246   7.852  0.1712 -0.2038 -0.1011
  448DPPI   C1B 6945  16.502  14.978   9.080 -0.0056 -0.0943  0.1348
  448DPPI   C2B 6946  16.541  14.811   8.603  0.0751  0.2396  0.1205
  448DPPI   C3B 6947  16.611  14.536   8.312 -0.3390 -0.0006  0.0152
  448DPPI   C4B 6948  16.872  14.515   7.984 -0.3622  0.0053  0.1509
  449DPPI    C1 6949  14.177   5.293  10.732  0.0177  0.2358  0.1827
  449DPPI    C2 6950  14.514   5.231  10.937 -0.0065  0.1113  0.1851
  449DPPI    C3 6951  14.172   5.063  11.059 -0.0245  0.0515  0.0536
  449DPPI   PO4 6952  14.360   5.502  10.554 -0.0587 -0.1663 -0.0135
  449DPPI   GL1 6953  14.343   5.681  10.150  0.1116 -0.1082  0.2033
  449DPPI   GL2 6954  14.441   5.363  10.070  0.0256  0.0003  0.0491
  449DPPI   C1A 6955  14.413   5.834   9.671 -0.1938  0.2185 -0.4417
  449DPPI   C2A 6956  14.424   5.815   9.172  0.1610  0.0703 -0.0379
  449DPPI   C3A 6957  14.254   5.786   8.772  0.2294 -0.0628  0.3445
  449DPPI   C4A 6958  14.312   5.683   8.309  0.0806 -0.2485 -0.1927
  449DPPI   C1B 6959  14.280   5.173   9.738 -0.1068 -0.1438  0.3100
  449DPPI   C2B 6960  14.276   5.172   9.297  0.1327 -0.1014  0.3323
  449DPPI   C3B 6961  14.444   5.322   8.856  0.1660 -0.1932 -0.3358
  449DPPI   C4B 6962  14.426   5.122   8.408  0.1923  0.1568 -0.0082
  450DPPI    C1 6963  16.727   2.802  10.787  0.1227 -0.0952  0.1214
  450DPPI    C2 6964  16.596   3.143  10.950  0.2408 -0.0186  0.0574
  450DPPI    C3 6965  16.555   2.799  11.148 -0.3073 -0.0402 -0.0762
  450DPPI   PO4 6966  16.667   2.789  10.525  0.0617 -0.1310  0.2073
  450DPPI   GL1 6967  16.430   2.846  10.143 -0.3776 -0.3397  0.1518
  450DPPI   GL2 6968  16.163   3.127   9.988 -0.2707 -0.0579  0.0081
  450DPPI   C1A 6969  16.444   2.894   9.682  0.0047 -0.0345  0.0515
  450DPPI   C2A 6970  16.151   3.000   9.449  0.0893  0.3901 -0.3241
  450DPPI   C3A 6971  15.948   3.227   9.073  0.0848  0.2885 -0.3033
  450DPPI   C4A 6972  16.031   3.491   8.609  0.1575  0.1022  0.3513
  450DPPI   C1B 6973  16.353   3.426   9.671  0.1765  0.7099  0.0645
  450DPPI   C2B 6974  16.482   3.375   9.203 -0.0712 -0.3257  0.2490
  450DPPI   C3B 6975  16.447   3.312   8.744  0.0596 -0.2692 -0.0184
  450DPPI   C4B 6976  16.810   3.344   8.517  0.0498 -0.2195 -0.2225
  451DPPI    C1 6977   6.099   8.709  10.665  0.0556  0.1540  0.2368
  451DPPI    C2 6978   6.491   8.664  10.734  0.0448 -0.1653  0.1057
  451DPPI    C3 6979   6.227   8.430  10.922 -0.0740 -0.0567  0.0755
  451DPPI   PO4 6980   6.102   8.770  10.278 -0.1641  0.2415 -0.1127
  451DPPI   GL1 6981   6.384   8.643   9.894 -0.2262 -0.1725 -0.0356
  451DPPI   GL2 6982   6.663   8.637  10.170 -0.0851 -0.1438 -0.1280
  451DPPI   C1A 6983   6.374   8.495   9.461  0.1601  0.1873  0.1119
  451DPPI   C2A 6984   6.326   8.564   9.024 -0.1122 -0.0314 -0.1404
  451DPPI   C3A 6985   6.254   8.390   8.621 -0.2982 -0.2196  0.0967
  451DPPI   C4A 6986   6.163   8.091   8.330  0.0200 -0.0881  0.1213
  451DPPI   C1B 6987   7.043   8.619   9.905 -0.1494  0.0767 -0.2128
  451DPPI   C2B 6988   7.192   8.507   9.493  0.0364 -0.0030 -0.0126
  451DPPI   C3B 6989   7.208   8.432   8.999 -0.2779  0.0509  0.1498
  451DPPI   C4B 6990   7.242   8.642   8.631 -0.0863  0.0765 -0.2750
  452DPPI    C1 6991  11.573  16.415  10.450  0.0336 -0.0818 -0.0443
  452DPPI    C2 6992  11.893  16.567  10.636 -0.0334  0.2479 -0.1907
  452DPPI    C3 6993  11.580  16.439  10.850  0.1369  0.0529 -0.0536
  452DPPI   PO4 6994  11.660  16.536  10.216 -0.0680  0.0161 -0.0294
  452DPPI   GL1 6995  11.541  16.518   9.839  0.2153 -0.0665  0.0458
  452DPPI   GL2 6996  11.544  16.235   9.667  0.1375  0.0693 -0.2299
  452DPPI   C1A 6997  11.241  16.600   9.450  0.1673 -0.2043 -0.0966
  452DPPI   C2A 6998  11.113  16.831   9.136 -0.0551 -0.2466  0.1926
  452DPPI   C3A 6999  11.175  16.854   8.729 -0.2885 -0.0204  0.0950
  452DPPI   C4A 7000  11.603  17.015   8.544  0.3774 -0.2057 -0.7641
  452DPPI   C1B 7001  11.709  16.507   9.382  0.1312 -0.2279  0.2150
  452DPPI   C2B 7002  11.520  16.574   8.976  0.4017  0.2159  0.1513
  452DPPI   C3B 7003  11.574  16.512   8.515  0.0333 -0.4283 -0.2753
  452DPPI   C4B 7004  11.393  16.763   8.144  0.3242 -0.0550  0.0207
  453DPPI    C1 7005   2.196   9.317  10.779  0.1828  0.3228 -0.0769
  453DPPI    C2 7006   2.254   9.291  11.174  0.2501  0.0727 -0.1015
  453DPPI    C3 7007   1.975   9.538  11.028  0.0211 -0.0514  0.1189
  453DPPI   PO4 7008   2.164   9.005  10.705  0.1006 -0.2240 -0.2350
  453DPPI   GL1 7009   2.417   8.749  10.409  0.0265 -0.2297  0.1418
  453DPPI   GL2 7010   2.533   8.946  10.131 -0.1653 -0.1434  0.1149
  453DPPI   C1A 7011   2.250   8.558  10.047 -0.2360  0.0904  0.1145
  453DPPI   C2A 7012   2.276   8.470   9.632  0.1192  0.0185  0.1025
  453DPPI   C3A 7013   2.230   8.418   9.259  0.2149  0.1401 -0.2700
  453DPPI   C4A 7014   2.286   8.463   8.848  0.0820 -0.0383  0.0521
  453DPPI   C1B 7015   2.642   9.116   9.743 -0.1366  0.2856  0.1927
  453DPPI   C2B 7016   2.497   8.964   9.372 -0.1236 -0.3305 -0.3156
  453DPPI   C3B 7017   2.445   8.954   8.935 -0.1454 -0.1629 -0.2351
  453DPPI   C4B 7018   2.386   9.240   8.534 -0.1387  0.1732 -0.1170
  454DPPI    C1 7019   8.208  17.071  10.441 -0.0737  0.1076  0.0831
  454DPPI    C2 7020   7.979  16.946  10.744  0.1978 -0.2712  0.1400
  454DPPI    C3 7021   8.338  17.106  10.817  0.0299  0.1653  0.0422
  454DPPI   PO4 7022   8.159  16.871  10.256 -0.1294 -0.2372 -0.1869
  454DPPI   GL1 7023   8.227  16.945   9.811  0.1721 -0.0877 -0.3508
  454DPPI   GL2 7024   8.514  17.011   9.980 -0.0540  0.0536  0.1047
  454DPPI   C1A 7025   8.310  16.924   9.458 -0.1590 -0.1428 -0.1275
  454DPPI   C2A 7026   8.448  16.971   9.097 -0.0822 -0.0254 -0.4605
  454DPPI   C3A 7027   8.563  17.069   8.751 -0.0090 -0.1335 -0.1792
  454DPPI   C4A 7028   8.878  17.098   8.295 -0.2825 -0.2091  0.0362
  454DPPI   C1B 7029   8.724  17.130   9.522  0.2093  0.0095  0.2064
  454DPPI   C2B 7030   8.893  17.249   9.181 -0.0632  0.2652 -0.4742
  454DPPI   C3B 7031   8.890  17.441   8.816 -0.2845  0.4811 -0.1005
  454DPPI   C4B 7032   8.873  17.616   8.431 -0.1490 -0.0701  0.3062
  455DPPI    C1 7033   9.125   0.251  10.354 -0.1584  0.0692 -0.0410
  455DPPI    C2 7034   8.963  -0.107  10.427 -0.1538  0.0660 -0.0469
  455DPPI    C3 7035   9.244   0.039  10.672 -0.1281  0.0488 -0.0659
  455DPPI   PO4 7036   9.224   0.254  10.089  0.2002  0.1986 -0.0245
  455DPPI   GL1 7037   9.260  -0.045   9.793  0.2750 -0.1008  0.0433
  455DPPI   GL2 7038   8.981  -0.208   9.926  0.1702 -0.1889 -0.2646
  455DPPI   C1A 7039   9.188   0.120   9.419 -0.1059  0.1046 -0.0861
  455DPPI   C2A 7040   9.176   0.095   8.894  0.3003  0.1508  0.2102
  455DPPI   C3A 7041   9.230   0.143   8.450  0.1116 -0.2772  0.2009
  455DPPI   C4A 7042   9.213  -0.107   8.052 -0.0342 -0.3470  0.0490
  455DPPI   C1B 7043   8.841  -0.275   9.545  0.0652  0.3279  0.3444
  455DPPI   C2B 7044   8.784  -0.122   9.145  0.0271 -0.0362 -0.2204
  455DPPI   C3B 7045   8.710  -0.122   8.699 -0.1419 -0.0425  0.1328
  455DPPI   C4B 7046   8.839  -0.274   8.309  0.0247 -0.0299  0.1767
  456DPPI    C1 7047  12.892  13.920  10.178 -0.2988  0.0551 -0.1509
  456DPPI    C2 7048  12.808  13.938  10.568  0.1801 -0.1916 -0.0281
  456DPPI    C3 7049  12.601  13.692  10.330 -0.1835  0.0359  0.0443
  456DPPI   PO4 7050  13.109  13.916  10.134 -0.1486 -0.2057 -0.0759
  456DPPI   GL1 7051  13.254  14.016   9.620  0.0556  0.2241  0.0213
  456DPPI   GL2 7052  13.031  13.760   9.667 -0.3290  0.2943  0.2067
  456DPPI   C1A 7053  13.399  14.013   9.239 -0.0478  0.1642  0.0293
  456DPPI   C2A 7054  13.565  14.148   8.746 -0.3297 -0.0872  0.2210
  456DPPI   C3A 7055  13.853  14.128   8.401  0.1528  0.1125 -0.0357
  456DPPI   C4A 7056  14.056  13.924   8.127 -0.1455 -0.3571 -0.1260
  456DPPI   C1B 7057  13.166  13.536   9.278 -0.1412  0.1465  0.0920
  456DPPI   C2B 7058  13.261  13.400   8.888  0.0264 -0.0508  0.2315
  456DPPI   C3B 7059  13.246  13.451   8.536  0.1460 -0.0978  0.1021
  456DPPI   C4B 7060  13.047  13.328   8.211  0.0933  0.3645 -0.0562
  457DPPI    C1 7061   6.205  17.466   9.968 -0.0995 -0.2183 -0.1033
  457DPPI    C2 7062   6.385  17.243  10.248 -0.0693 -0.1941 -0.1033
  457DPPI    C3 7063   6.113  17.516  10.354  0.1316 -0.0025 -0.0738
  457DPPI   PO4 7064   6.349  17.543   9.831  0.0905  0.2846 -0.1514
  457DPPI   GL1 7065   6.053  17.670   9.490 -0.1969  0.0980 -0.0523
  457DPPI   GL2 7066   6.059  18.050   9.493 -0.1277 -0.0029 -0.0861
  457DPPI   C1A 7067   6.228  17.863   9.009 -0.2405 -0.0386 -0.0487
  457DPPI   C2A 7068   6.065  18.018   8.661 -0.4528  0.0000 -0.0928
  457DPPI   C3A 7069   5.848  18.341   8.449 -0.3445 -0.3688 -0.0579
  457DPPI   C4A 7070   5.404  18.312   8.307 -0.3341 -0.0940 -0.0530
  457DPPI   C1B 7071   5.843  18.215   9.115  0.0514  0.1711  0.5457
  457DPPI   C2B 7072   5.741  17.776   9.132 -0.1730 -0.1623  0.1539
  457DPPI   C3B 7073   5.630  17.493   8.804 -0.1024 -0.5045 -0.3715
  457DPPI   C4B 7074   5.471  17.238   8.483 -0.1320  0.0728  0.3255
  458DPPI    C1 7075   0.437   0.632  10.093  0.1001 -0.2255  0.2336
  458DPPI    C2 7076   0.068   0.509   9.997 -0.0951  0.3235  0.2446
  458DPPI    C3 7077   0.136   0.680  10.353  0.2051  0.0950  0.3011
  458DPPI   PO4 7078   0.487   0.737   9.797  0.3702  0.2472 -0.0877
  458DPPI   GL1 7079   0.125   0.772   9.451 -0.0530 -0.5734  0.1539
  458DPPI   GL2 7080  -0.280   0.843   9.494  0.1462 -0.4100  0.0581
  458DPPI   C1A 7081   0.173   0.790   8.952  0.3042 -0.3208  0.0636
  458DPPI   C2A 7082   0.333   0.766   8.565 -0.1311  0.0747  0.2010
  458DPPI   C3A 7083   0.350   0.901   8.141 -0.1535  0.0499  0.6155
  458DPPI   C4A 7084   0.501   0.873   7.791  0.3293 -0.0436 -0.2502
  458DPPI   C1B 7085  -0.302   1.054   9.188  0.2449  0.2383 -0.0387
  458DPPI   C2B 7086  -0.519   0.985   8.814 -0.2553 -0.1449  0.0309
  458DPPI   C3B 7087  -0.624   1.277   8.597  0.2805 -0.2644 -0.0213
  458DPPI   C4B 7088  -0.865   1.439   8.265  0.3900  0.4419  0.1112
  459DPPI    C1 7089  16.757   1.039   9.816 -0.1183 -0.1216  0.3180
  459DPPI    C2 7090  16.700   0.649   9.881 -0.1701 -0.1535  0.0921
  459DPPI    C3 7091  16.958   0.769   9.600 -0.2004 -0.0255  0.1184
  459DPPI   PO4 7092  16.548   1.132   9.894  0.0569  0.2539 -0.4515
  459DPPI   GL1 7093  16.225   1.245   9.645  0.1411 -0.0076 -0.0582
  459DPPI   GL2 7094  16.555   1.264   9.376 -0.1218  0.1055 -0.2140
  459DPPI   C1A 7095  15.922   1.429   9.339  0.0612  0.1396 -0.0035
  459DPPI   C2A 7096  15.913   1.573   8.878  0.2535  0.0352  0.0122
  459DPPI   C3A 7097  15.933   1.924   8.632  0.3150 -0.0824  0.1443
  459DPPI   C4A 7098  16.072   2.297   8.750  0.1578 -0.4621  0.0284
  459DPPI   C1B 7099  16.356   1.404   9.031 -0.1167  0.0805 -0.1523
  459DPPI   C2B 7100  16.366   1.750   8.762 -0.1618 -0.0200  0.3931
  459DPPI   C3B 7101  16.392   1.913   8.321  0.0116  0.0660  0.3555
  459DPPI   C4B 7102  16.577   1.835   7.945 -0.4883 -0.1640  0.2911
  460DPPI    C1 7103  12.180   6.565  10.919 -0.0728 -0.0910  0.1756
  460DPPI    C2 7104  12.475   6.296  10.896  0.0132  0.0232 -0.0963
  460DPPI    C3 7105  12.108   6.182  11.009  0.1016 -0.1650  0.0055
  460DPPI   PO4 7106  12.168   6.672  10.736  0.1254  0.2297  0.0166
  460DPPI   GL1 7107  12.189   6.811  10.233 -0.0696 -0.0159 -0.1966
  460DPPI   GL2 7108  11.942   6.512  10.213 -0.1183  0.0042 -0.1148
  460DPPI   C1A 7109  12.011   7.062  10.005  0.0496 -0.1250 -0.3750
  460DPPI   C2A 7110  11.686   7.415   9.989  0.0638 -0.0496  0.4795
  460DPPI   C3A 7111  11.258   7.561   9.933  0.2358  0.1133  0.4771
  460DPPI   C4A 7112  11.098   7.681   9.544  0.0459  0.2769  0.3351
  460DPPI   C1B 7113  11.880   6.593   9.841 -0.1635  0.4048  0.1311
  460DPPI   C2B 7114  11.769   6.544   9.335 -0.4054 -0.1953 -0.1125
  460DPPI   C3B 7115  11.756   6.429   8.829  0.2124 -0.0050 -0.1322
  460DPPI   C4B 7116  11.976   6.374   8.613 -0.3536 -0.2035 -0.2041
  461DPPI    C1 7117   3.789  16.264   9.517 -0.2607  0.0171  0.1337
  461DPPI    C2 7118   3.751  16.640   9.648 -0.0154  0.0600  0.0867
  461DPPI    C3 7119   4.100  16.449   9.688 -0.0922 -0.1074 -0.0339
  461DPPI   PO4 7120   3.778  16.217   9.227  0.1284  0.0531  0.1419
  461DPPI   GL1 7121   3.391  16.251   8.960 -0.0213  0.1078  0.3564
  461DPPI   GL2 7122   3.305  16.521   8.800 -0.4331  0.1246 -0.3317
  461DPPI   C1A 7123   3.190  16.080   8.513 -0.1010 -0.1800 -0.2881
  461DPPI   C2A 7124   3.139  16.048   8.082  0.0239 -0.3180  0.0622
  461DPPI   C3A 7125   3.023  16.116   7.629 -0.0086 -0.0428 -0.2401
  461DPPI   C4A 7126   2.952  16.359   7.205 -0.2896 -0.2870 -0.3060
  461DPPI   C1B 7127   3.541  16.788   8.592  0.2409  0.0691 -0.2746
  461DPPI   C2B 7128   3.701  16.878   8.213 -0.1857 -0.1067  0.0759
  461DPPI   C3B 7129   3.576  16.810   7.804  0.0182 -0.1709 -0.1051
  461DPPI   C4B 7130   3.885  16.667   7.477 -0.1277  0.1245 -0.0267
  462DPPI    C1 7131   1.239   4.354   9.862  0.2223 -0.0827  0.0913
  462DPPI    C2 7132   1.480   4.168   9.604  0.2347 -0.0575  0.0847
  462DPPI    C3 7133   1.132   4.002   9.707 -0.0562  0.2153 -0.4190
  462DPPI   PO4 7134   1.351   4.613   9.800  0.0885  0.0583  0.0186
  462DPPI   GL1 7135   1.335   4.792   9.442  0.2442 -0.0171  0.1962
  462DPPI   GL2 7136   1.133   4.991   9.544  0.0635 -0.0095 -0.1488
  462DPPI   C1A 7137   1.338   4.874   9.039 -0.0959 -0.0834 -0.1749
  462DPPI   C2A 7138   1.136   4.774   8.650 -0.2601  0.0813 -0.2426
  462DPPI   C3A 7139   1.048   4.788   8.366  0.4016  0.0767  0.2134
  462DPPI   C4A 7140   0.973   4.604   7.985 -0.0623  0.1028 -0.0868
  462DPPI   C1B 7141   0.996   5.237   9.110  0.4132 -0.3967  0.0255
  462DPPI   C2B 7142   0.970   5.221   8.665 -0.2916  0.1079  0.1991
  462DPPI   C3B 7143   0.875   5.189   8.165 -0.1617  0.1860  0.2595
  462DPPI   C4B 7144   0.710   5.302   7.889 -0.1474  0.0204 -0.0591
  463DPPI    C1 7145   0.801  13.382  10.149 -0.1127 -0.0451 -0.0544
  463DPPI    C2 7146   0.681  13.741  10.280 -0.0069 -0.0388  0.0263
  463DPPI    C3 7147   0.530  13.408  10.442 -0.2045 -0.0318 -0.1401
  463DPPI   PO4 7148   0.851  13.425   9.892  0.1763  0.0988 -0.1448
  463DPPI   GL1 7149   0.768  13.257   9.454  0.1330  0.2130  0.1768
  463DPPI   GL2 7150   0.433  13.362   9.417 -0.1064  0.1035 -0.2708
  463DPPI   C1A 7151   0.804  13.132   9.032  0.2726  0.1670  0.3250
  463DPPI   C2A 7152   0.719  12.920   8.550 -0.1541  0.2417  0.0171
  463DPPI   C3A 7153   0.853  12.758   8.167 -0.1162  0.1032  0.2836
  463DPPI   C4A 7154   1.253  12.714   7.829 -0.0163  0.3819 -0.1190
  463DPPI   C1B 7155   0.348  13.353   8.961 -0.0809  0.0561 -0.1926
  463DPPI   C2B 7156   0.200  13.196   8.605 -0.0953 -0.2181  0.1686
  463DPPI   C3B 7157   0.276  13.017   8.249  0.3655  0.2916  0.2286
  463DPPI   C4B 7158   0.362  12.796   7.976  0.1682  0.2872  0.0529
  464DPPI    C1 7159   8.960   6.137  10.803 -0.0133 -0.1388  0.1049
  464DPPI    C2 7160   8.713   6.428  10.922 -0.0413 -0.2573  0.3433
  464DPPI    C3 7161   8.565   6.099  10.748 -0.0079 -0.1225  0.0547
  464DPPI   PO4 7162   9.159   6.164  10.691  0.1669 -0.1538 -0.0309
  464DPPI   GL1 7163   9.297   6.231  10.413 -0.0516  0.0137  0.0979
  464DPPI   GL2 7164   9.425   5.964  10.267  0.1145  0.2248 -0.1143
  464DPPI   C1A 7165   9.151   6.511  10.049  0.0512  0.0067 -0.1917
  464DPPI   C2A 7166   9.191   6.438   9.654  0.0323 -0.1246 -0.0532
  464DPPI   C3A 7167   9.155   6.172   9.260  0.0426  0.3183  0.1900
  464DPPI   C4A 7168   9.347   6.166   8.875  0.1182 -0.2062  0.3390
  464DPPI   C1B 7169   9.211   6.019   9.888  0.4711  0.1678 -0.1135
  464DPPI   C2B 7170   8.937   5.816   9.603  0.2901 -0.0911  0.1972
  464DPPI   C3B 7171   8.818   5.857   9.254  0.2598  0.0857 -0.4208
  464DPPI   C4B 7172   8.895   5.930   8.840 -0.1268 -0.0372  0.2203
  465DPPI    C1 7173   4.722   5.699  10.752  0.1245  0.0359  0.0556
  465DPPI    C2 7174   4.675   5.934  11.072  0.0942  0.2398 -0.0964
  465DPPI    C3 7175   4.911   5.612  11.093 -0.0956  0.1165  0.2002
  465DPPI   PO4 7176   4.523   5.568  10.550  0.1161  0.1310 -0.2432
  465DPPI   GL1 7177   4.516   5.487  10.065 -0.0391  0.3812  0.0026
  465DPPI   GL2 7178   4.769   5.736   9.917 -0.0923 -0.0589 -0.1379
  465DPPI   C1A 7179   4.536   5.436   9.608 -0.0248  0.0882  0.3710
  465DPPI   C2A 7180   4.493   5.422   9.206 -0.1566  0.0233  0.1560
  465DPPI   C3A 7181   4.653   5.364   8.784  0.0971 -0.0520 -0.1338
  465DPPI   C4A 7182   4.797   5.647   8.529 -0.0675 -0.0640  0.0806
  465DPPI   C1B 7183   4.643   5.895   9.437 -0.1757 -0.2641  0.2313
  465DPPI   C2B 7184   4.697   5.977   8.979 -0.1223 -0.2026  0.2652
  465DPPI   C3B 7185   5.034   6.056   8.761  0.1617 -0.2153 -0.3105
  465DPPI   C4B 7186   5.010   6.366   8.462 -0.0656  0.0457  0.2193
  466DPPI    C1 7187   4.363   3.372   9.646 -0.0740  0.2223 -0.2041
  466DPPI    C2 7188   4.518   3.537   9.975  0.3665  0.0405 -0.3125
  466DPPI    C3 7189   4.215   3.279  10.005  0.3943  0.0353 -0.0511
  466DPPI   PO4 7190   4.564   3.275   9.532  0.0281  0.2329 -0.5050
  466DPPI   GL1 7191   5.003   3.287   9.299  0.1009 -0.1455 -0.1663
  466DPPI   GL2 7192   4.894   3.608   9.339 -0.2033  0.3429 -0.0100
  466DPPI   C1A 7193   5.018   3.390   8.832 -0.0911  0.0652  0.0691
  466DPPI   C2A 7194   5.174   3.210   8.426  0.2719  0.1613 -0.0227
  466DPPI   C3A 7195   5.274   3.120   7.972  0.2367  0.1309  0.2364
  466DPPI   C4A 7196   5.070   2.984   7.611 -0.3144 -0.1959 -0.0904
  466DPPI   C1B 7197   4.753   3.792   8.932  0.2320 -0.1692 -0.1639
  466DPPI   C2B 7198   4.762   3.916   8.453  0.2892 -0.0303  0.0653
  466DPPI   C3B 7199   4.570   3.893   8.125  0.1509 -0.0784 -0.0038
  466DPPI   C4B 7200   4.430   3.917   7.722  0.1111  0.1600 -0.1680
  467DPPI    C1 7201  16.612  11.338  10.552  0.0203 -0.0028 -0.0635
  467DPPI    C2 7202  16.368  11.170  10.283  0.0253 -0.0891 -0.0144
  467DPPI    C3 7203  16.313  11.101  10.673 -0.1826  0.2952  0.0293
  467DPPI   PO4 7204  16.830  11.347  10.498 -0.1065 -0.0726 -0.0543
  467DPPI   GL1 7205  16.870  11.417  10.028 -0.1442 -0.0053 -0.0757
  467DPPI   GL2 7206  16.670  11.663  10.123  0.0246 -0.2567 -0.1662
  467DPPI   C1A 7207  16.947  11.141   9.659 -0.1453  0.1163  0.6401
  467DPPI   C2A 7208  16.756  11.168   9.355  0.0723 -0.1665 -0.0289
  467DPPI   C3A 7209  16.540  11.163   8.968  0.3309  0.0765  0.3849
  467DPPI   C4A 7210  16.480  11.078   8.637 -0.2651 -0.0164  0.2593
  467DPPI   C1B 7211  16.551  11.619   9.744 -0.0193 -0.1432 -0.3398
  467DPPI   C2B 7212  16.489  11.651   9.309  0.0679  0.0621 -0.0372
  467DPPI   C3B 7213  16.188  11.791   8.838 -0.0025 -0.0258 -0.4308
  467DPPI   C4B 7214  15.725  11.964   8.687 -0.0725 -0.1721  0.2082
  468DPPI    C1 7215  11.970  15.082  10.162  0.0324  0.0742  0.2564
  468DPPI    C2 7216  11.801  14.775  10.354  0.0761  0.0257  0.2175
  468DPPI    C3 7217  11.649  15.143  10.392 -0.1317 -0.0421  0.0607
  468DPPI   PO4 7218  12.055  14.968   9.917 -0.0570 -0.0601 -0.0909
  468DPPI   GL1 7219  12.275  14.825   9.505  0.0075 -0.0393 -0.0331
  468DPPI   GL2 7220  11.971  14.720   9.418  0.0627 -0.1244  0.0796
  468DPPI   C1A 7221  12.333  15.053   9.118 -0.0661  0.2509  0.0196
  468DPPI   C2A 7222  12.441  14.952   8.681 -0.1963  0.1115 -0.1952
  468DPPI   C3A 7223  12.558  14.767   8.327 -0.5143 -0.1008  0.2071
  468DPPI   C4A 7224  12.718  14.310   8.095  0.2068 -0.2493  0.0886
  468DPPI   C1B 7225  12.131  14.608   8.926  0.1567  0.2066  0.1066
  468DPPI   C2B 7226  12.048  14.741   8.442 -0.1567 -0.1194 -0.2039
  468DPPI   C3B 7227  11.996  14.796   8.019  0.3302 -0.2283 -0.1198
  468DPPI   C4B 7228  11.711  14.918   7.774 -0.1555  0.1343  0.2990
  469DPPI    C1 7229  12.590  15.975  10.338 -0.1014  0.1763  0.0426
  469DPPI    C2 7230  12.357  15.927  10.660  0.0124 -0.2932  0.0627
  469DPPI    C3 7231  12.742  15.818  10.673  0.1931  0.2928 -0.0327
  469DPPI   PO4 7232  12.476  15.912  10.179  0.2352 -0.0288  0.1020
  469DPPI   GL1 7233  12.395  16.203   9.800  0.1319  0.1360  0.0012
  469DPPI   GL2 7234  12.675  16.226   9.691  0.1532  0.2093  0.1420
  469DPPI   C1A 7235  12.347  16.529   9.532 -0.1467  0.2393  0.0770
  469DPPI   C2A 7236  12.337  16.644   9.157 -0.1058  0.1658  0.0810
  469DPPI   C3A 7237  12.388  17.060   9.022 -0.4196  0.2893  0.0264
  469DPPI   C4A 7238  12.483  17.070   8.532 -0.2795 -0.0446  0.0722
  469DPPI   C1B 7239  12.654  16.237   9.265  0.2143 -0.2254 -0.3475
  469DPPI   C2B 7240  12.580  16.212   8.839  0.3298 -0.3094 -0.1583
  469DPPI   C3B 7241  12.756  16.151   8.382  0.1059  0.0917  0.1304
  469DPPI   C4B 7242  12.834  16.141   7.895  0.2336 -0.1561  0.1412
  470DPPI    C1 7243   9.980   9.711  10.857 -0.0576  0.0249 -0.1512
  470DPPI    C2 7244  10.088  10.094  10.813 -0.3502  0.1301  0.0149
  470DPPI    C3 7245  10.239   9.877  11.113 -0.2637  0.1446 -0.0177
  470DPPI   PO4 7246   9.844   9.702  10.620 -0.0035 -0.1032  0.0469
  470DPPI   GL1 7247   9.571   9.695  10.299 -0.0831  0.0271  0.0193
  470DPPI   GL2 7248   9.585   9.380  10.161 -0.2913  0.4070  0.0103
  470DPPI   C1A 7249   9.713   9.742   9.908 -0.0921 -0.1894  0.0219
  470DPPI   C2A 7250   9.777   9.806   9.494 -0.4612 -0.2525 -0.1632
  470DPPI   C3A 7251   9.759   9.747   9.159  0.2257  0.2639 -0.3955
  470DPPI   C4A 7252   9.900   9.753   8.726  0.1670 -0.0791 -0.1428
  470DPPI   C1B 7253   9.366   9.135   9.823  0.4342  0.0789 -0.0980
  470DPPI   C2B 7254   9.539   8.949   9.534  0.1862 -0.2012 -0.2924
  470DPPI   C3B 7255   9.542   8.887   9.151 -0.2216  0.0662 -0.1003
  470DPPI   C4B 7256   9.616   8.849   8.704  0.1356 -0.2682  0.2072
  471DPPI    C1 7257  16.970   0.226  10.129  0.1364 -0.0563 -0.2658
  471DPPI    C2 7258  17.221   0.350  10.415  0.1492  0.1209 -0.3522
  471DPPI    C3 7259  16.842   0.477  10.413  0.0889 -0.0549 -0.2884
  471DPPI   PO4 7260  17.104   0.261   9.854  0.1468 -0.0176  0.4533
  471DPPI   GL1 7261  17.030   0.381   9.291 -0.0498  0.2646 -0.0950
  471DPPI   GL2 7262  17.265   0.236   9.137  0.1612  0.0239 -0.3252
  471DPPI   C1A 7263  16.666   0.241   9.085  0.1562  0.3981  0.0115
  471DPPI   C2A 7264  16.397   0.122   8.843 -0.1074 -0.1026 -0.0784
  471DPPI   C3A 7265  16.237   0.132   8.457  0.3270  0.1111  0.0520
  471DPPI   C4A 7266  15.960   0.413   8.135 -0.0781 -0.0036  0.0235
  471DPPI   C1B 7267  17.253   0.246   8.684  0.0141 -0.3819 -0.1068
  471DPPI   C2B 7268  17.253   0.052   8.360 -0.1610  0.2829 -0.3332
  471DPPI   C3B 7269  16.921  -0.186   8.046 -0.2582  0.2792 -0.1996
  471DPPI   C4B 7270  16.707  -0.153   7.805 -0.0793 -0.0210 -0.1663
  472DPPI    C1 7271  13.771  13.733  10.451  0.1396  0.1086  0.0426
  472DPPI    C2 7272  13.483  14.006  10.498  0.0626  0.0179  0.1002
  472DPPI    C3 7273  13.678  13.864  10.817  0.2336  0.1452  0.0538
  472DPPI   PO4 7274  13.984  13.796  10.267  0.1454 -0.0168  0.1001
  472DPPI   GL1 7275  14.107  13.844   9.886 -0.0535 -0.2868  0.0386
  472DPPI   GL2 7276  14.292  14.093   9.645  0.0063 -0.2188  0.2568
  472DPPI   C1A 7277  14.074  13.702   9.402 -0.0129 -0.2008 -0.3295
  472DPPI   C2A 7278  14.356  13.521   9.012  0.0587 -0.0732  0.0150
  472DPPI   C3A 7279  14.518  13.466   8.673 -0.2286  0.2769 -0.0779
  472DPPI   C4A 7280  14.505  13.331   8.244 -0.4200 -0.1645 -0.2355
  472DPPI   C1B 7281  14.414  14.338   9.256  0.2593  0.0135  0.0140
  472DPPI   C2B 7282  14.613  14.486   8.917 -0.2840 -0.0081  0.1259
  472DPPI   C3B 7283  14.579  14.280   8.472 -0.0037  0.0639  0.3122
  472DPPI   C4B 7284  14.780  14.426   8.121  0.1971  0.3967  0.0159
  473PYPI    C1 7285  14.560   0.152  10.234 -0.0163  0.1754  0.1979
  473PYPI    C2 7286  14.373  -0.142  10.431  0.3063 -0.2685 -0.1367
  473PYPI    C3 7287  14.604   0.117  10.630 -0.0061 -0.2145  0.1662
  473PYPI   PO4 7288  14.434   0.201  10.048  0.2880 -0.1246  0.0947
  473PYPI   GL1 7289  14.226   0.478   9.842  0.0088  0.2079  0.0027
  473PYPI   GL2 7290  14.364   0.625   9.573 -0.2896  0.1356 -0.1167
  473PYPI   C1A 7291  13.778   0.515   9.642  0.3876  0.1677  0.2019
  473PYPI   C2A 7292  13.585   0.711   9.345 -0.1673 -0.0498  0.1419
  473PYPI   D3A 7293  13.504   0.864   8.956 -0.0401 -0.1925  0.0286
  473PYPI   C4A 7294  13.588   0.622   8.549  0.3539  0.1368 -0.0684
  473PYPI   C1B 7295  14.141   0.622   9.339  0.0080  0.0417 -0.3630
  473PYPI   C2B 7296  13.995   0.796   8.929  0.0916 -0.1351 -0.2049
  473PYPI   C3B 7297  13.860   1.158   8.763 -0.2849  0.4483  0.3860
  473PYPI   C4B 7298  13.703   1.451   8.425 -0.5899  0.0227  0.0794
  474PYPI    C1 7299   8.793  11.222  10.737  0.1018  0.0685 -0.3130
  474PYPI    C2 7300   8.655  10.848  10.718  0.0778  0.0343  0.3264
  474PYPI    C3 7301   8.399  11.155  10.733  0.0953  0.0644  0.0496
  474PYPI   PO4 7302   9.023  11.251  10.619 -0.2652 -0.1389 -0.1316
  474PYPI   GL1 7303   8.989  11.337  10.215 -0.0747  0.0866 -0.3027
  474PYPI   GL2 7304   9.407  11.396   9.964  0.1238 -0.0162 -0.1639
  474PYPI   C1A 7305   8.899  11.105   9.934 -0.3171 -0.2251 -0.4048
  474PYPI   C2A 7306   8.933  11.005   9.486 -0.3705  0.0213 -0.0399
  474PYPI   D3A 7307   9.053  11.024   9.135  0.1702  0.1791 -0.1106
  474PYPI   C4A 7308   9.543  11.064   9.073 -0.0724  0.1684  0.1745
  474PYPI   C1B 7309   9.385  11.073   9.620 -0.2657  0.1362 -0.0167
  474PYPI   C2B 7310   9.615  10.703   9.500 -0.2986  0.0784  0.2061
  474PYPI   C3B 7311   9.866  10.621   9.145 -0.2661  0.0694 -0.1928
  474PYPI   C4B 7312   9.789  10.633   8.756 -0.0901 -0.1053 -0.1746
  475PYPI    C1 7313  17.604  16.365  10.131  0.2264  0.3220  0.0459
  475PYPI    C2 7314  17.851  16.117   9.936  0.1680  0.2522  0.0603
  475PYPI    C3 7315  17.687  16.004  10.283  0.2130  0.3471  0.1127
  475PYPI   PO4 7316  17.465  16.389   9.854  0.1989 -0.2600  0.0612
  475PYPI   GL1 7317  17.048  16.363   9.662 -0.4098  0.4272 -0.0302
  475PYPI   GL2 7318  16.852  16.061   9.575  0.3326 -0.0770 -0.2108
  475PYPI   C1A 7319  17.164  16.298   9.283  0.0020  0.1643 -0.2939
  475PYPI   C2A 7320  17.025  16.262   8.759  0.1749  0.1651  0.0328
  475PYPI   D3A 7321  17.053  16.135   8.420 -0.1556  0.0797  0.4197
  475PYPI   C4A 7322  17.040  16.236   8.088 -0.1496 -0.0345  0.0833
  475PYPI   C1B 7323  16.780  15.940   9.102  0.0690 -0.4097 -0.3664
  475PYPI   C2B 7324  16.644  15.987   8.654 -0.0508  0.1366  0.1016
  475PYPI   C3B 7325  16.641  15.792   8.151 -0.4412 -0.5410 -0.0796
  475PYPI   C4B 7326  16.719  15.521   7.909  0.3307 -0.0167  0.3016
  476PYPI    C1 7327  17.216   8.297  10.464 -0.0075  0.0944  0.0347
  476PYPI    C2 7328  17.566   8.449  10.343  0.0084 -0.0239 -0.0702
  476PYPI    C3 7329  17.546   8.071  10.472 -0.1139 -0.0752 -0.2365
  476PYPI   PO4 7330  17.074   8.596  10.408  0.1549 -0.1806 -0.0161
  476PYPI   GL1 7331  16.706   8.728  10.163  0.2474  0.0198 -0.0736
  476PYPI   GL2 7332  16.350   8.763   9.961 -0.1414  0.2202 -0.1913
  476PYPI   C1A 7333  16.843   8.856   9.801  0.3120  0.0402  0.0125
  476PYPI   C2A 7334  16.749   8.873   9.460 -0.2443  0.1329  0.1350
  476PYPI   D3A 7335  16.572   8.731   9.128 -0.0785 -0.2984 -0.3521
  476PYPI   C4A 7336  16.597   8.836   8.704  0.1812 -0.2460 -0.1459
  476PYPI   C1B 7337  16.280   8.737   9.558 -0.0963  0.0021  0.0526
  476PYPI   C2B 7338  15.914   8.875   9.236 -0.0618 -0.0639 -0.2112
  476PYPI   C3B 7339  15.754   8.816   8.857  0.0186  0.1410  0.1333
  476PYPI   C4B 7340  15.625   9.059   8.562  0.3296 -0.3924  0.0125
  477PYPI    C1 7341   3.674   1.458   9.758 -0.0139  0.0363  0.1340
  477PYPI    C2 7342   3.852   1.588  10.091 -0.1365 -0.0402  0.2303
  477PYPI    C3 7343   3.492   1.729   9.988  0.0418  0.2275 -0.0440
  477PYPI   PO4 7344   3.801   1.554   9.473  0.0843  0.2368  0.4686
  477PYPI   GL1 7345   3.745   1.740   9.137 -0.1627 -0.2061  0.1637
  477PYPI   GL2 7346   3.848   1.530   8.873  0.0724 -0.1623 -0.2467
  477PYPI   C1A 7347   3.287   1.812   8.935  0.3511 -0.1854 -0.1182
  477PYPI   C2A 7348   3.033   1.821   8.518  0.1430 -0.1616  0.0189
  477PYPI   D3A 7349   2.871   1.875   8.077 -0.2295 -0.0077 -0.2780
  477PYPI   C4A 7350   2.746   1.592   7.820 -0.1268 -0.0481  0.0506
  477PYPI   C1B 7351   3.612   1.660   8.601 -0.1767 -0.0417  0.1850
  477PYPI   C2B 7352   3.734   1.476   8.098  0.0273 -0.1796  0.0489
  477PYPI   C3B 7353   3.874   1.413   7.661 -0.4487  0.1150  0.0687
  477PYPI   C4B 7354   3.682   1.368   7.246 -0.1699 -0.1352  0.0692
  478PYPI    C1 7355   3.108   8.841  10.530  0.2068 -0.0417  0.1282
  478PYPI    C2 7356   2.927   8.712  10.862 -0.0896 -0.2771 -0.1190
  478PYPI    C3 7357   3.245   8.517  10.719  0.0865 -0.1299  0.0650
  478PYPI   PO4 7358   2.942   8.995  10.445  0.0709 -0.2429 -0.0507
  478PYPI   GL1 7359   2.916   9.291  10.181 -0.0660 -0.2705 -0.0828
  478PYPI   GL2 7360   2.757   9.527   9.963 -0.1249 -0.2338  0.2106
  478PYPI   C1A 7361   3.235   9.381   9.988 -0.0481  0.2737  0.2534
  478PYPI   C2A 7362   3.413   9.427   9.591  0.1974  0.1201 -0.0066
  478PYPI   D3A 7363   3.282   9.603   9.142 -0.1772  0.3560 -0.1270
  478PYPI   C4A 7364   3.404   9.540   8.720 -0.3236 -0.1217  0.2626
  478PYPI   C1B 7365   2.907   9.534   9.543  0.3141  0.0839 -0.1559
  478PYPI   C2B 7366   2.774   9.477   9.107 -0.1325 -0.0328 -0.2726
  478PYPI   C3B 7367   2.860   9.218   8.714 -0.0279 -0.1335 -0.2555
  478PYPI   C4B 7368   3.086   9.443   8.363 -0.0422  0.0417 -0.0178
  479PYPI    C1 7369   1.133   5.932  10.286  0.2130 -0.0589 -0.0127
  479PYPI    C2 7370   0.949   6.174  10.027  0.1629 -0.0592  0.0225
  479PYPI    C3 7371   0.922   5.777   9.984  0.0823 -0.0600  0.0783
  479PYPI   PO4 7372   1.418   5.976  10.220 -0.0065  0.2368 -0.1223
  479PYPI   GL1 7373   1.346   5.889   9.773 -0.2396  0.0088  0.2457
  479PYPI   GL2 7374   1.675   5.834   9.807  0.1692  0.0121 -0.3269
  479PYPI   C1A 7375   1.388   6.282   9.522  0.1958  0.1861 -0.0353
  479PYPI   C2A 7376   1.470   6.368   9.078 -0.0284 -0.1386 -0.0685
  479PYPI   D3A 7377   1.546   6.321   8.689 -0.6492 -0.3134 -0.3180
  479PYPI   C4A 7378   1.266   6.404   8.430  0.0037  0.0921  0.2065
  479PYPI   C1B 7379   1.676   5.897   9.341  0.0039  0.0976 -0.3178
  479PYPI   C2B 7380   1.618   5.909   8.984 -0.2073  0.0579  0.1679
  479PYPI   C3B 7381   1.746   5.876   8.549 -0.1033 -0.0455  0.3306
  479PYPI   C4B 7382   1.947   6.197   8.238  0.1055  0.2429 -0.1216
  480PYPI    C1 7383   1.758  13.998   9.857 -0.1314  0.1467 -0.0139
  480PYPI    C2 7384   1.833  14.298  10.111  0.0156  0.1695 -0.0831
  480PYPI    C3 7385   1.619  13.983  10.232  0.3041  0.0584  0.1506
  480PYPI   PO4 7386   1.769  14.092   9.649 -0.0838  0.2029  0.0599
  480PYPI   GL1 7387   1.850  14.442   9.269  0.1053 -0.2701  0.0310
  480PYPI   GL2 7388   2.097  14.319   9.342 -0.0469 -0.1836  0.2819
  480PYPI   C1A 7389   1.770  14.070   8.938  0.0984 -0.1864  0.1144
  480PYPI   C2A 7390   1.705  13.932   8.461  0.1059 -0.0839 -0.0861
  480PYPI   D3A 7391   1.751  13.507   8.291  0.2276 -0.0521  0.4236
  480PYPI   C4A 7392   1.874  13.619   7.924 -0.2630 -0.0819 -0.2159
  480PYPI   C1B 7393   2.082  14.408   8.867 -0.1143  0.1594  0.1051
  480PYPI   C2B 7394   2.020  14.705   8.479  0.1150  0.1005  0.2094
  480PYPI   C3B 7395   2.277  14.863   8.315  0.1620  0.0540  0.2735
  480PYPI   C4B 7396   2.624  14.899   8.129 -0.0591  0.1137 -0.1212
  481PYPI    C1 7397  15.584   0.136  10.200 -0.1317  0.0211  0.0379
  481PYPI    C2 7398  15.444   0.183  10.572  0.0573  0.2834  0.0782
  481PYPI    C3 7399  15.736  -0.081  10.500  0.0081  0.2195  0.1131
  481PYPI   PO4 7400  15.361   0.209  10.045  0.1531  0.2128  0.2397
  481PYPI   GL1 7401  15.253   0.355   9.639  0.1398 -0.2953 -0.1044
  481PYPI   GL2 7402  15.098   0.153   9.556 -0.0078  0.2766  0.0454
  481PYPI   C1A 7403  15.270   0.630   9.134 -0.1234 -0.3335 -0.2346
  481PYPI   C2A 7404  15.176   0.715   8.730  0.0053  0.2815  0.1091
  481PYPI   D3A 7405  15.180   0.635   8.177  0.0937 -0.1321 -0.1880
  481PYPI   C4A 7406  15.326   0.911   7.954  0.3206 -0.0905  0.0154
  481PYPI   C1B 7407  14.887   0.111   9.212 -0.2702  0.0337 -0.0061
  481PYPI   C2B 7408  14.898   0.334   8.875  0.2722 -0.0583 -0.3272
  481PYPI   C3B 7409  14.919   0.295   8.444  0.1179 -0.0063 -0.0941
  481PYPI   C4B 7410  14.625   0.511   8.322 -0.0982  0.0243 -0.1158
  482PYPI    C1 7411   9.946   7.914  10.528 -0.0168  0.0882 -0.0197
  482PYPI    C2 7412   9.915   8.295  10.647 -0.1978  0.1610 -0.2904
  482PYPI    C3 7413   9.844   7.998  10.906  0.4508  0.2982  0.0673
  482PYPI   PO4 7414   9.829   7.864  10.377  0.0444 -0.0263  0.1457
  482PYPI   GL1 7415   9.825   7.973   9.987 -0.1382 -0.2914  0.0271
  482PYPI   GL2 7416  10.091   7.740   9.969  0.2862  0.1561  0.0891
  482PYPI   C1A 7417   9.718   7.984   9.635  0.3097  0.2193 -0.0658
  482PYPI   C2A 7418   9.779   8.365   9.299 -0.0558 -0.1658  0.0140
  482PYPI   D3A 7419   9.508   8.392   8.918  0.0356  0.0749 -0.1410
  482PYPI   C4A 7420   9.159   8.631   8.945 -0.4272  0.0383 -0.0640
  482PYPI   C1B 7421  10.427   7.487   9.722  0.0975 -0.0135 -0.0685
  482PYPI   C2B 7422  10.574   7.616   9.252 -0.0021  0.0253  0.1532
  482PYPI   C3B 7423  10.753   7.999   9.042 -0.0978  0.0733 -0.0192
  482PYPI   C4B 7424  11.002   8.288   8.854 -0.1150 -0.2717  0.1987
  483PYPI    C1 7425  15.917   2.851  10.584  0.1958  0.1216 -0.3175
  483PYPI    C2 7426  16.256   2.771  10.782  0.1133  0.1349 -0.1700
  483PYPI    C3 7427  16.072   3.123  10.833 -0.0020  0.0702 -0.1358
  483PYPI   PO4 7428  15.958   2.848  10.357  0.2342 -0.3280  0.2133
  483PYPI   GL1 7429  15.869   2.644  10.056 -0.0939 -0.1208  0.0496
  483PYPI   GL2 7430  15.670   2.861   9.811 -0.2120 -0.0050 -0.0599
  483PYPI   C1A 7431  16.101   2.454   9.612  0.1199  0.2654 -0.0387
  483PYPI   C2A 7432  16.234   2.527   9.200  0.0897  0.1732 -0.3519
  483PYPI   D3A 7433  16.217   2.895   8.845  0.1353  0.0759  0.0296
  483PYPI   C4A 7434  15.887   2.969   8.568  0.1551  0.2380 -0.2193
  483PYPI   C1B 7435  15.677   2.788   9.379 -0.4621  0.1680 -0.0431
  483PYPI   C2B 7436  15.757   2.691   8.942  0.1342  0.4315 -0.0613
  483PYPI   C3B 7437  15.602   2.398   8.608  0.1778 -0.2449  0.2272
  483PYPI   C4B 7438  15.880   2.347   8.307  0.2035 -0.2025  0.0472
  484PYPI    C1 7439  11.999   4.642  10.854  0.0455 -0.1794  0.0712
  484PYPI    C2 7440  11.653   4.605  11.052  0.0996 -0.0777  0.1854
  484PYPI    C3 7441  11.819   4.285  10.879 -0.1458 -0.0915 -0.0302
  484PYPI   PO4 7442  11.961   4.947  10.674  0.0242  0.0461  0.0259
  484PYPI   GL1 7443  12.071   4.984  10.312 -0.1735  0.2912 -0.3988
  484PYPI   GL2 7444  11.782   5.045  10.234  0.2464  0.2485  0.1455
  484PYPI   C1A 7445  12.270   5.081   9.886 -0.2384  0.1160 -0.0016
  484PYPI   C2A 7446  12.099   5.083   9.500 -0.2748  0.2113 -0.0082
  484PYPI   D3A 7447  11.873   4.905   9.110 -0.0983 -0.1243  0.1549
  484PYPI   C4A 7448  11.819   4.995   8.702  0.3946 -0.1954 -0.0349
  484PYPI   C1B 7449  11.671   5.304   9.801  0.0268  0.0399  0.1622
  484PYPI   C2B 7450  11.827   5.659   9.560  0.5099  0.1007  0.1084
  484PYPI   C3B 7451  12.327   5.651   9.639  0.1142  0.0375  0.1552
  484PYPI   C4B 7452  12.595   5.455   9.949 -0.2007 -0.0235  0.1002
  485PYPI    C1 7453  18.185   8.038  10.369  0.0117  0.2158  0.2348
  485PYPI    C2 7454  18.381   8.186  10.685  0.1624  0.1414  0.1771
  485PYPI    C3 7455  18.584   8.058  10.365  0.0255 -0.0308  0.1568
  485PYPI   PO4 7456  17.981   8.152  10.289  0.0133  0.0817 -0.0538
  485PYPI   GL1 7457  17.960   8.015   9.855  0.0972  0.1677 -0.1976
  485PYPI   GL2 7458  17.666   8.257   9.905 -0.0390  0.1786  0.1170
  485PYPI   C1A 7459  18.025   8.026   9.446 -0.3789  0.0978 -0.4384
  485PYPI   C2A 7460  18.062   8.119   9.032  0.0867 -0.0278  0.1145
  485PYPI   D3A 7461  18.082   8.479   8.833  0.2378 -0.1660  0.3136
  485PYPI   C4A 7462  18.212   8.381   8.411  0.1614 -0.1028 -0.0353
  485PYPI   C1B 7463  17.514   8.144   9.562 -0.1821 -0.1986  0.0470
  485PYPI   C2B 7464  17.415   8.285   9.230 -0.0691 -0.1485  0.0993
  485PYPI   C3B 7465  17.302   8.154   8.884  0.0722  0.1294 -0.0259
  485PYPI   C4B 7466  17.179   8.215   8.507  0.4948 -0.1399 -0.0173
  486PYPI    C1 7467  16.650  10.783  10.428 -0.2584 -0.1040 -0.2054
  486PYPI    C2 7468  16.904  10.927  10.155 -0.1406  0.0874  0.0021
  486PYPI    C3 7469  17.033  10.845  10.525 -0.2763 -0.2642 -0.0253
  486PYPI   PO4 7470  16.583  10.498  10.375 -0.0685  0.0343  0.1716
  486PYPI   GL1 7471  16.512  10.240  10.065 -0.1053 -0.0222  0.1823
  486PYPI   GL2 7472  16.065  10.278  10.106 -0.1810  0.3246  0.0577
  486PYPI   C1A 7473  16.373  10.045   9.697  0.0638  0.4205 -0.0007
  486PYPI   C2A 7474  16.244  10.256   9.282  0.0882  0.2434 -0.1400
  486PYPI   D3A 7475  16.190  10.286   8.834 -0.1097  0.1353 -0.0968
  486PYPI   C4A 7476  16.117  10.633   8.514  0.1434 -0.1466 -0.0163
  486PYPI   C1B 7477  16.036  10.389   9.759  0.0248  0.1615  0.0850
  486PYPI   C2B 7478  15.725  10.736   9.532  0.2969 -0.0466  0.0480
  486PYPI   C3B 7479  15.743  10.984   9.211 -0.1047 -0.2548  0.2764
  486PYPI   C4B 7480  15.737  11.056   8.798  0.1262  0.1145 -0.1885
  487PYPI    C1 7481  10.270  16.183  10.109 -0.2264  0.1242 -0.1364
  487PYPI    C2 7482  10.262  16.550  10.268 -0.4458  0.1420 -0.1855
  487PYPI    C3 7483  10.141  16.236  10.484  0.0186  0.0551 -0.0402
  487PYPI   PO4 7484  10.612  16.258   9.970  0.0578  0.2234 -0.0315
  487PYPI   GL1 7485  10.726  16.457   9.504  0.1843  0.0377 -0.0326
  487PYPI   GL2 7486  10.418  16.350   9.571 -0.2085  0.1153 -0.1853
  487PYPI   C1A 7487  10.571  16.456   9.122  0.0869 -0.1970 -0.1771
  487PYPI   C2A 7488  10.628  16.467   8.708  0.3312 -0.1367 -0.0043
  487PYPI   D3A 7489  10.511  16.182   8.369  0.0531 -0.0001  0.3362
  487PYPI   C4A 7490  10.902  16.054   8.023 -0.0845 -0.0635 -0.1093
  487PYPI   C1B 7491  10.213  16.081   9.387 -0.0725 -0.0261 -0.1765
  487PYPI   C2B 7492  10.213  16.076   8.939  0.1250 -0.2014 -0.0044
  487PYPI   C3B 7493  10.196  15.863   8.556  0.3552 -0.0309  0.0178
  487PYPI   C4B 7494  10.193  15.917   8.115 -0.0424 -0.3146  0.2378
  488PYPI    C1 7495   7.784   3.776  10.476 -0.2232 -0.0705 -0.1584
  488PYPI    C2 7496   7.745   3.429  10.671 -0.1167  0.1021  0.1778
  488PYPI    C3 7497   7.480   3.723  10.731 -0.0740  0.1623  0.0737
  488PYPI   PO4 7498   7.879   3.670  10.248 -0.1157  0.1840  0.4354
  488PYPI   GL1 7499   7.824   3.314  10.004  0.2192 -0.5132  0.0320
  488PYPI   GL2 7500   7.659   3.169   9.898 -0.0395 -0.2828  0.0844
  488PYPI   C1A 7501   7.738   3.541   9.589  0.0698 -0.0649  0.1413
  488PYPI   C2A 7502   7.811   3.597   9.127  0.1353 -0.0300 -0.0409
  488PYPI   D3A 7503   7.875   3.648   8.699  0.2758  0.0791  0.0789
  488PYPI   C4A 7504   7.699   3.571   8.320  0.0420 -0.0829 -0.1763
  488PYPI   C1B 7505   7.710   2.847   9.586  0.3431  0.0737  0.1580
  488PYPI   C2B 7506   7.521   2.680   9.168 -0.0985  0.3352 -0.1370
  488PYPI   C3B 7507   7.476   2.750   8.799 -0.1660 -0.0954  0.0486
  488PYPI   C4B 7508   7.633   2.536   8.432 -0.3528 -0.1025 -0.1056
  489PYPI    C1 7509  13.337   2.302  10.525  0.0221  0.1016  0.3500
  489PYPI    C2 7510  13.432   2.513  10.851  0.0352  0.0417  0.3852
  489PYPI    C3 7511  13.167   2.215  10.877  0.0444  0.0298  0.3432
  489PYPI   PO4 7512  13.435   2.419  10.309  0.0644  0.0622  0.0742
  489PYPI   GL1 7513  13.823   2.485  10.035  0.2230  0.0151  0.2372
  489PYPI   GL2 7514  13.852   2.807  10.040  0.2288  0.0435  0.2433
  489PYPI   C1A 7515  13.643   2.521   9.607 -0.0251 -0.0207 -0.1718
  489PYPI   C2A 7516  13.681   2.727   9.208 -0.1562  0.1942 -0.2111
  489PYPI   D3A 7517  13.651   3.091   8.906  0.5760  0.6095  0.1751
  489PYPI   C4A 7518  13.186   3.178   8.751 -0.0616 -0.1057 -0.0617
  489PYPI   C1B 7519  13.835   3.002   9.614 -0.3400  0.2290  0.1408
  489PYPI   C2B 7520  14.069   3.098   9.201 -0.1772  0.1336  0.1690
  489PYPI   C3B 7521  14.101   3.270   8.769  0.0602  0.3661  0.2180
  489PYPI   C4B 7522  14.391   3.449   8.502  0.0698 -0.0526  0.1204
  490PYPI    C1 7523  12.714   5.557  10.807 -0.2274 -0.1237 -0.0572
  490PYPI    C2 7524  12.376   5.769  10.830 -0.0905  0.0687  0.2329
  490PYPI    C3 7525  12.434   5.458  11.075 -0.1065 -0.0378  0.1025
  490PYPI   PO4 7526  12.841   5.574  10.594 -0.1836 -0.4065 -0.2054
  490PYPI   GL1 7527  12.948   5.772  10.131  0.2898 -0.2359 -0.0420
  490PYPI   GL2 7528  13.098   6.096  10.139  0.1725 -0.0761 -0.1286
  490PYPI   C1A 7529  12.880   5.689   9.672  0.0991  0.4502 -0.0238
  490PYPI   C2A 7530  12.832   5.652   9.232  0.2753 -0.1213  0.0468
  490PYPI   D3A 7531  12.683   5.541   8.843 -0.0897  0.0199 -0.6000
  490PYPI   C4A 7532  12.556   5.770   8.682 -0.1380  0.1471 -0.3380
  490PYPI   C1B 7533  13.017   6.247   9.741  0.1734 -0.1704 -0.1023
  490PYPI   C2B 7534  13.056   6.181   9.272 -0.0446  0.0863  0.3827
  490PYPI   C3B 7535  12.952   6.052   8.835  0.4030 -0.0816 -0.3857
  490PYPI   C4B 7536  12.756   6.166   8.521 -0.3300  0.5061 -0.1756
  491PYPI    C1 7537  11.562   1.770  10.814 -0.1544  0.0147 -0.0398
  491PYPI    C2 7538  11.350   1.524  11.048 -0.1010  0.2073  0.2150
  491PYPI    C3 7539  11.491   1.868  11.195  0.0260  0.2811 -0.0725
  491PYPI   PO4 7540  11.379   1.850  10.601 -0.1725  0.0458  0.1114
  491PYPI   GL1 7541  11.439   1.783  10.158  0.3848  0.1671 -0.3059
  491PYPI   GL2 7542  11.247   1.534  10.049 -0.0915 -0.2504  0.0212
  491PYPI   C1A 7543  11.522   1.912   9.821 -0.1351 -0.2550  0.0366
  491PYPI   C2A 7544  11.750   2.067   9.388  0.0655  0.0478 -0.0788
  491PYPI   D3A 7545  11.842   1.963   8.998 -0.0125  0.2400  0.5797
  491PYPI   C4A 7546  11.802   2.259   8.721  0.4334 -0.1903 -0.2465
  491PYPI   C1B 7547  11.127   1.428   9.605  0.5802  0.0346  0.2712
  491PYPI   C2B 7548  11.026   1.580   9.111  0.2271 -0.0375  0.1650
  491PYPI   C3B 7549  11.245   1.490   8.767 -0.3451  0.2333 -0.2357
  491PYPI   C4B 7550  11.278   1.226   8.342 -0.2969 -0.0413 -0.1290
  492PYPI    C1 7551  12.015  17.899  10.351 -0.0181  0.3209  0.0311
  492PYPI    C2 7552  11.889  17.923  10.730 -0.2129  0.0694 -0.0146
  492PYPI    C3 7553  12.243  17.756  10.647 -0.1718  0.1208  0.0553
  492PYPI   PO4 7554  11.805  17.720  10.204 -0.2108 -0.1268  0.2157
  492PYPI   GL1 7555  11.663  17.819   9.774 -0.2861  0.2493 -0.2891
  492PYPI   GL2 7556  11.931  17.612   9.724  0.0492 -0.0195  0.1515
  492PYPI   C1A 7557  11.497  17.732   9.295 -0.0412 -0.1753  0.0777
  492PYPI   C2A 7558  11.659  17.982   8.927  0.0914 -0.0826  0.1421
  492PYPI   D3A 7559  12.033  18.002   8.571  0.0914 -0.2353  0.1911
  492PYPI   C4A 7560  11.983  17.719   8.150  0.1792  0.0442 -0.1053
  492PYPI   C1B 7561  12.039  17.220   9.412  0.1145 -0.1499 -0.1172
  492PYPI   C2B 7562  11.786  16.930   9.042  0.1905  0.3324 -0.1367
  492PYPI   C3B 7563  12.008  16.678   8.710  0.1941 -0.1582  0.1424
  492PYPI   C4B 7564  12.329  16.432   8.473 -0.1464 -0.1817  0.1940
  493PYPI    C1 7565   9.943  17.356  10.507 -0.1373 -0.1922  0.0490
  493PYPI    C2 7566  10.145  17.612  10.739 -0.2000 -0.0641 -0.0362
  493PYPI    C3 7567  10.060  17.245  10.873  0.3253 -0.2181 -0.1011
  493PYPI   PO4 7568  10.064  17.447  10.233  0.3214 -0.1453 -0.0667
  493PYPI   GL1 7569  10.068  17.360   9.783  0.0896 -0.1694  0.2330
  493PYPI   GL2 7570  10.213  17.096   9.620  0.0151 -0.1314  0.1601
  493PYPI   C1A 7571  10.169  17.636   9.482 -0.1308  0.5466  0.0332
  493PYPI   C2A 7572  10.170  17.814   9.031  0.3346 -0.2438 -0.1927
  493PYPI   D3A 7573   9.971  17.962   8.676  0.1328 -0.2918  0.1908
  493PYPI   C4A 7574  10.240  17.821   8.300 -0.3814  0.1722  0.1286
  493PYPI   C1B 7575  10.596  17.004   9.392  0.0368 -0.1650 -0.2814
  493PYPI   C2B 7576  10.530  16.980   8.905  0.1265 -0.0697 -0.0352
  493PYPI   C3B 7577  10.470  16.821   8.414  0.2546  0.0967 -0.2279
  493PYPI   C4B 7578  10.395  16.625   8.060 -0.3326 -0.0975 -0.2161
  494PYPI    C1 7579   7.720   1.776  10.239 -0.1643 -0.0130  0.1662
  494PYPI    C2 7580   7.788   2.166  10.294  0.0596 -0.0300  0.0226
  494PYPI    C3 7581   7.846   1.909  10.594  0.0970  0.0239  0.0617
  494PYPI   PO4 7582   7.812   1.748   9.899  0.3217 -0.0391  0.3969
  494PYPI   GL1 7583   7.994   1.734   9.458 -0.1776 -0.0425 -0.1226
  494PYPI   GL2 7584   8.213   2.000   9.511  0.0086  0.3170 -0.3366
  494PYPI   C1A 7585   8.148   1.806   9.077  0.1227 -0.1869 -0.0611
  494PYPI   C2A 7586   8.267   1.768   8.594  0.1919 -0.0824 -0.0892
  494PYPI   D3A 7587   8.222   1.743   8.104 -0.0072  0.1220 -0.2066
  494PYPI   C4A 7588   7.860   1.580   7.948 -0.0631  0.1830  0.0122
  494PYPI   C1B 7589   8.412   2.231   9.225  0.4875  0.3768 -0.2215
  494PYPI   C2B 7590   8.397   2.183   8.870  0.5041 -0.0427  0.1752
  494PYPI   C3B 7591   8.168   2.297   8.432  0.0796 -0.0710 -0.2492
  494PYPI   C4B 7592   8.307   2.233   7.950  0.0068  0.1889 -0.1789
  495PYPI    C1 7593  14.789   4.771  10.808  0.0032  0.0681 -0.0350
  495PYPI    C2 7594  14.864   4.485  11.078 -0.0059  0.0025 -0.1016
  495PYPI    C3 7595  14.817   4.865  11.196 -0.0216 -0.0278 -0.0097
  495PYPI   PO4 7596  14.524   4.718  10.685 -0.1873  0.2297  0.0327
  495PYPI   GL1 7597  14.470   4.620  10.310 -0.0679 -0.1681  0.0675
  495PYPI   GL2 7598  14.343   4.861  10.122 -0.2276 -0.2586 -0.1805
  495PYPI   C1A 7599  14.462   4.449   9.866  0.3183  0.1554  0.0557
  495PYPI   C2A 7600  14.590   4.398   9.365 -0.1004  0.2760  0.0827
  495PYPI   D3A 7601  14.626   4.314   8.952 -0.0281 -0.0046 -0.0663
  495PYPI   C4A 7602  14.591   4.100   8.716 -0.1176 -0.0095 -0.1220
  495PYPI   C1B 7603  14.036   4.676   9.872  0.0662  0.1401 -0.0199
  495PYPI   C2B 7604  14.172   4.673   9.494 -0.2311 -0.3720  0.0146
  495PYPI   C3B 7605  14.420   4.771   9.062  0.1279  0.0684 -0.0448
  495PYPI   C4B 7606  14.532   4.710   8.656 -0.2022 -0.0330 -0.1882
  496PYPI    C1 7607   4.359  10.496  10.252  0.3189  0.0499  0.0100
  496PYPI    C2 7608   4.346  10.823  10.482 -0.0776  0.0470 -0.0014
  496PYPI    C3 7609   4.335  10.460  10.649  0.1106  0.0400 -0.0023
  496PYPI   PO4 7610   4.202  10.566  10.096  0.1243 -0.2304 -0.2866
  496PYPI   GL1 7611   4.122  10.626   9.590  0.0197 -0.0747 -0.1075
  496PYPI   GL2 7612   4.445  10.787   9.647 -0.0587  0.1823 -0.0858
  496PYPI   C1A 7613   4.123  10.557   9.186 -0.1739 -0.2398 -0.2480
  496PYPI   C2A 7614   4.220  10.590   8.746  0.0327 -0.1347  0.1391
  496PYPI   D3A 7615   4.260  10.397   8.378  0.2127  0.0874 -0.2025
  496PYPI   C4A 7616   4.630  10.462   8.200  0.1001  0.2459 -0.0469
  496PYPI   C1B 7617   4.561  10.834   9.245  0.0260 -0.0902  0.1638
  496PYPI   C2B 7618   4.532  10.920   8.912 -0.0302 -0.0661 -0.1912
  496PYPI   C3B 7619   4.545  10.942   8.471 -0.1856 -0.2717  0.0999
  496PYPI   C4B 7620   4.255  11.049   8.121 -0.3489 -0.1372  0.2247
  497PYPI    C1 7621   3.278   3.714  10.109 -0.1104  0.0905  0.0885
  497PYPI    C2 7622   3.223   4.043   9.888  0.1910  0.0573 -0.0407
  497PYPI    C3 7623   3.314   4.076  10.276 -0.1383  0.1183  0.0342
  497PYPI   PO4 7624   3.374   3.557   9.878 -0.0261 -0.0651  0.0489
  497PYPI   GL1 7625   3.453   3.582   9.445 -0.1322  0.0185 -0.0352
  497PYPI   GL2 7626   3.137   3.701   9.429 -0.3144  0.3241  0.3609
  497PYPI   C1A 7627   3.715   3.797   9.116 -0.4572 -0.0153  0.1242
  497PYPI   C2A 7628   3.673   3.872   8.707 -0.0119  0.0086 -0.0259
  497PYPI   D3A 7629   3.605   4.023   8.359  0.0351  0.4163 -0.2347
  497PYPI   C4A 7630   3.199   3.854   8.136 -0.1511 -0.0164  0.0600
  497PYPI   C1B 7631   3.255   3.785   8.999 -0.0523  0.3361  0.1169
  497PYPI   C2B 7632   3.171   3.961   8.606 -0.3280  0.1458 -0.1374
  497PYPI   C3B 7633   2.991   4.332   8.384  0.0159  0.0878  0.2033
  497PYPI   C4B 7634   2.807   4.410   7.936  0.1134 -0.1342 -0.1665
  498PYPI    C1 7635   7.106  17.695  10.118 -0.2900  0.0665  0.1835
  498PYPI    C2 7636   7.473  17.602  10.249 -0.3325 -0.1624  0.1438
  498PYPI    C3 7637   7.180  17.678  10.511 -0.2097  0.2235  0.1763
  498PYPI   PO4 7638   7.208  17.776   9.817 -0.1803 -0.4645  0.0300
  498PYPI   GL1 7639   7.164  17.607   9.475  0.1782 -0.0950  0.2651
  498PYPI   GL2 7640   7.093  17.296   9.491  0.2021 -0.1405 -0.0575
  498PYPI   C1A 7641   7.262  17.804   8.985 -0.0323 -0.1819 -0.2190
  498PYPI   C2A 7642   7.091  17.756   8.554  0.1475  0.3360  0.0118
  498PYPI   D3A 7643   6.947  17.794   8.100 -0.1330 -0.2048 -0.3154
  498PYPI   C4A 7644   7.265  17.846   7.791 -0.1975  0.1286  0.3676
  498PYPI   C1B 7645   7.114  17.313   8.990  0.1549 -0.1039  0.3017
  498PYPI   C2B 7646   7.177  17.251   8.536  0.0108 -0.0270  0.2442
  498PYPI   C3B 7647   7.340  17.209   8.222  0.1976  0.0175 -0.2515
  498PYPI   C4B 7648   7.420  17.030   7.760 -0.0384 -0.1949 -0.2218
  499PYPI    C1 7649   3.915  12.656  10.106  0.0562 -0.0494  0.1481
  499PYPI    C2 7650   4.253  12.861  10.042 -0.0261 -0.0218 -0.2234
  499PYPI    C3 7651   4.223  12.618  10.358  0.3230  0.0114 -0.1608
  499PYPI   PO4 7652   3.912  12.518   9.857  0.0874  0.1124  0.0822
  499PYPI   GL1 7653   3.743  12.328   9.409 -0.0045  0.0028  0.1694
  499PYPI   GL2 7654   3.599  12.107   9.380 -0.1450  0.0117 -0.0254
  499PYPI   C1A 7655   3.797  12.210   8.941  0.0103 -0.0278  0.1136
  499PYPI   C2A 7656   3.808  12.162   8.492  0.0980 -0.4247  0.1048
  499PYPI   D3A 7657   3.950  12.245   8.095 -0.3651 -0.1539 -0.0610
  499PYPI   C4A 7658   3.839  12.164   7.794 -0.0113 -0.4148  0.0371
  499PYPI   C1B 7659   3.330  12.336   9.022  0.0091  0.0049  0.1089
  499PYPI   C2B 7660   3.406  12.308   8.668  0.1466 -0.0088  0.0272
  499PYPI   C3B 7661   3.127  12.334   8.365  0.0566  0.2615  0.0974
  499PYPI   C4B 7662   2.941  12.150   7.990 -0.2141 -0.1123 -0.0295
  500PYPI    C1 7663   4.192   9.886  10.647  0.0453  0.0147  0.0752
  500PYPI    C2 7664   4.285  10.009  11.016 -0.2987  0.1915  0.1065
  500PYPI    C3 7665   4.129   9.645  10.960 -0.1271  0.1150  0.1183
  500PYPI   PO4 7666   4.355   9.932  10.475 -0.3310 -0.1334 -0.0071
  500PYPI   GL1 7667   4.501   9.967  10.082 -0.1199  0.0409  0.0379
  500PYPI   GL2 7668   4.537  10.236   9.853 -0.1793  0.2493  0.1775
  500PYPI   C1A 7669   4.555   9.705   9.819 -0.0681  0.0209 -0.0563
  500PYPI   C2A 7670   4.687   9.745   9.421 -0.0523  0.0506 -0.0177
  500PYPI   D3A 7671   4.922   9.874   9.003  0.3716 -0.0668  0.0890
  500PYPI   C4A 7672   4.848   9.655   8.615  0.0650 -0.4649  0.2554
  500PYPI   C1B 7673   4.573  10.348   9.413  0.0455  0.1922  0.2042
  500PYPI   C2B 7674   4.592  10.348   8.929 -0.1586 -0.1360 -0.1185
  500PYPI   C3B 7675   4.836  10.160   8.615  0.1537  0.0600  0.1771
  500PYPI   C4B 7676   4.826   9.994   8.162  0.0477  0.2546  0.0571
  501PYPI    C1 7677  11.911  16.141   9.990  0.1699  0.1047 -0.1768
  501PYPI    C2 7678  11.891  15.980  10.355  0.1535 -0.2466 -0.3279
  501PYPI    C3 7679  12.138  16.287  10.285 -0.1840  0.1341  0.0874
  501PYPI   PO4 7680  11.951  15.895   9.899  0.0270 -0.2417 -0.0495
  501PYPI   GL1 7681  12.021  15.828   9.445 -0.1558  0.0627 -0.1396
  501PYPI   GL2 7682  12.061  16.131   9.420  0.0163  0.4993 -0.1265
  501PYPI   C1A 7683  11.921  15.710   9.111  0.1859  0.0306  0.2430
  501PYPI   C2A 7684  11.803  15.652   8.803 -0.0216  0.2361 -0.1560
  501PYPI   D3A 7685  11.877  15.668   8.336  0.0817  0.0607 -0.0020
  501PYPI   C4A 7686  11.783  15.202   8.194  0.0501  0.0075 -0.1048
  501PYPI   C1B 7687  12.027  16.155   8.903  0.3044 -0.0507 -0.1825
  501PYPI   C2B 7688  11.925  16.163   8.510 -0.2180  0.0532 -0.2224
  501PYPI   C3B 7689  11.980  16.080   8.133 -0.0076 -0.3104  0.0994
  501PYPI   C4B 7690  12.121  16.252   7.756  0.1657  0.1739 -0.3243
  502PYPI    C1 7691  10.542  13.910  10.301  0.4766  0.0103 -0.1003
  502PYPI    C2 7692  10.515  14.265  10.482 -0.1147 -0.0109 -0.1275
  502PYPI    C3 7693  10.628  13.943  10.690 -0.2248  0.0716  0.0628
  502PYPI   PO4 7694  10.630  13.859  10.050 -0.2847  0.0636  0.2013
  502PYPI   GL1 7695  10.787  13.490   9.783  0.5028  0.2405 -0.2760
  502PYPI   GL2 7696  10.787  13.222   9.883  0.1988  0.0028 -0.2224
  502PYPI   C1A 7697  10.687  13.496   9.393  0.0862 -0.0992  0.0862
  502PYPI   C2A 7698  10.639  13.411   8.993  0.1402  0.4328 -0.0816
  502PYPI   D3A 7699  10.523  13.334   8.513 -0.2454 -0.1435  0.1820
  502PYPI   C4A 7700  10.673  13.069   8.186  0.1466  0.3376 -0.1252
  502PYPI   C1B 7701  10.392  13.034   9.661 -0.1028  0.2294 -0.1231
  502PYPI   C2B 7702  10.274  13.154   9.282 -0.0050  0.0674  0.1176
  502PYPI   C3B 7703  10.286  13.049   8.857  0.0986  0.1741 -0.4501
  502PYPI   C4B 7704  10.439  12.794   8.511  0.0212 -0.1370  0.2700
  503PYPI    C1 7705   9.030   5.362  10.631 -0.0121 -0.0031 -0.0229
  503PYPI    C2 7706   8.880   5.649  10.866  0.0622  0.0637 -0.0569
  503PYPI    C3 7707   8.995   5.301  11.024 -0.1756 -0.0071 -0.0373
  503PYPI   PO4 7708   9.162   5.470  10.365  0.0869 -0.0800  0.2499
  503PYPI   GL1 7709   9.050   5.538  10.026 -0.0714 -0.1434  0.1873
  503PYPI   GL2 7710   9.128   5.218   9.816 -0.0131 -0.3193 -0.1843
  503PYPI   C1A 7711   8.611   5.413   9.783 -0.0541  0.0283  0.4993
  503PYPI   C2A 7712   8.532   5.343   9.359  0.1361  0.0926  0.1468
  503PYPI   D3A 7713   8.579   5.484   8.841  0.1006 -0.0310  0.0694
  503PYPI   C4A 7714   8.709   5.167   8.532  0.0172 -0.0198 -0.1880
  503PYPI   C1B 7715   8.992   5.232   9.386 -0.0119 -0.0896 -0.0733
  503PYPI   C2B 7716   8.994   5.345   9.038 -0.0954  0.3112 -0.2045
  503PYPI   C3B 7717   9.093   5.385   8.727  0.3854  0.0530  0.1059
  503PYPI   C4B 7718   8.999   5.615   8.429  0.2955  0.0591  0.0125
  504PYPI    C1 7719   5.916   2.826  10.227  0.1398 -0.0565  0.2699
  504PYPI    C2 7720   5.524   2.905  10.235  0.1206 -0.1557  0.3339
  504PYPI    C3 7721   5.717   2.819  10.574  0.2007 -0.0935  0.3042
  504PYPI   PO4 7722   5.975   2.678  10.011 -0.0451  0.1267 -0.5027
  504PYPI   GL1 7723   6.252   2.598   9.683  0.0954 -0.0034  0.0587
  504PYPI   GL2 7724   6.044   2.792   9.504  0.1165 -0.4889  0.4484
  504PYPI   C1A 7725   6.276   2.430   9.272 -0.4410 -0.4308  0.2256
  504PYPI   C2A 7726   6.365   2.471   8.863 -0.0548 -0.4883  0.0921
  504PYPI   D3A 7727   6.367   2.717   8.497  0.1614  0.0098 -0.3265
  504PYPI   C4A 7728   6.469   2.591   8.111  0.2442  0.3491  0.1355
  504PYPI   C1B 7729   6.045   2.885   9.056  0.1053  0.0720 -0.1010
  504PYPI   C2B 7730   6.006   2.967   8.613 -0.2800  0.2023 -0.3963
  504PYPI   C3B 7731   6.146   3.014   8.179 -0.1694 -0.1684 -0.1527
  504PYPI   C4B 7732   6.387   3.233   8.090 -0.0300  0.0860 -0.1523
  505PYPI    C1 7733  17.672   0.086   9.827 -0.1271 -0.1401  0.0090
  505PYPI    C2 7734  17.544   0.378  10.069  0.3465  0.0441  0.0475
  505PYPI    C3 7735  17.761   0.075  10.217 -0.0250 -0.2611 -0.0169
  505PYPI   PO4 7736  17.888   0.179   9.589  0.0041  0.0361  0.1634
  505PYPI   GL1 7737  17.719   0.015   9.280  0.1000 -0.0718 -0.2012
  505PYPI   GL2 7738  17.963  -0.254   9.121 -0.2542  0.0814  0.1915
  505PYPI   C1A 7739  17.635  -0.003   8.873 -0.0108 -0.2828  0.1053
  505PYPI   C2A 7740  17.726  -0.164   8.493 -0.2345 -0.2484  0.2282
  505PYPI   D3A 7741  17.742   0.022   8.142  0.0077  0.0754  0.0254
  505PYPI   C4A 7742  17.439   0.091   7.848 -0.1223  0.0336 -0.2858
  505PYPI   C1B 7743  17.932  -0.499   8.760  0.0107 -0.3005  0.3002
  505PYPI   C2B 7744  17.726  -0.643   8.438  0.0372  0.1924  0.1832
  505PYPI   C3B 7745  17.772  -0.583   8.047  0.1823 -0.3441 -0.2929
  505PYPI   C4B 7746  17.813  -0.342   7.720  0.0380  0.0576  0.2182
  506ERGO   ROH 7747  13.838   6.058   9.919  0.1555 -0.0797 -0.0929
  506ERGO    R1 7748  13.800   6.150   9.654  0.1103 -0.0225 -0.0663
  506ERGO    R2 7749  13.962   6.072   9.444  0.0686  0.0168 -0.1108
  506ERGO    R3 7750  13.726   6.002   9.330  0.0462  0.0495 -0.0857
  506ERGO    R4 7751  13.915   6.016   9.106 -0.0529  0.3768 -0.1582
  506ERGO    R5 7752  13.723   6.119   9.121 -0.0911  0.2864  0.0429
  506ERGO    C1 7753  13.665   5.917   8.803 -0.1448  0.6172 -0.1620
  506ERGO    C2 7754  13.578   5.960   8.465 -0.2226 -0.0830 -0.1814
  507ERGO   ROH 7755   2.737  17.885   8.711  0.2668 -0.2105  0.0069
  507ERGO    R1 7756   2.830  17.878   8.443  0.1121 -0.1163 -0.0504
  507ERGO    R2 7757   2.661  17.843   8.228 -0.0175  0.0016  0.0335
  507ERGO    R3 7758   2.778  18.071   8.140 -0.0294  0.0180  0.0570
  507ERGO    R4 7759   2.664  17.948   7.899 -0.1134  0.0876  0.0587
  507ERGO    R5 7760   2.871  18.012   7.927 -0.0988  0.0668  0.0115
  507ERGO    C1 7761   2.776  18.225   7.624 -0.1805  0.1531  0.0955
  507ERGO    C2 7762   2.554  18.330   7.416  0.1450 -0.1379  0.1375
  508ERGO   ROH 7763  11.355  18.462  10.084 -0.0710 -0.1423 -0.1102
  508ERGO    R1 7764  11.367  18.554   9.817 -0.3709 -0.0781 -0.1065
  508ERGO    R2 7765  11.564  18.472   9.640 -0.1710  0.4583 -0.1562
  508ERGO    R3 7766  11.351  18.405   9.485 -0.0396 -0.1048 -0.1126
  508ERGO    R4 7767  11.569  18.455   9.295 -0.1420  0.1972 -0.1445
  508ERGO    R5 7768  11.371  18.546   9.293 -0.3345 -0.2111 -0.2218
  508ERGO    C1 7769  11.371  18.381   8.949 -0.0017 -0.4832 -0.0965
  508ERGO    C2 7770  11.489  18.359   8.640  0.0664 -0.4819 -0.2980
  509ERGO   ROH 7771   1.030  14.489   5.918  0.0460 -0.0462 -0.1189
  509ERGO    R1 7772   1.165  14.507   6.167  0.0345 -0.0704 -0.1115
  509ERGO    R2 7773   1.039  14.460   6.408  0.0216 -0.0829 -0.1234
  509ERGO    R3 7774   1.242  14.283   6.443  0.0131 -0.0935 -0.1236
  509ERGO    R4 7775   1.202  14.403   6.708  0.1713  0.0775 -0.1727
  509ERGO    R5 7776   1.390  14.391   6.597  0.1126 -0.0188 -0.2675
  509ERGO    C1 7777   1.488  14.204   6.914  0.2505  0.1610 -0.2016
  509ERGO    C2 7778   1.678  14.259   7.134  0.1505  0.1108  0.2099
  510ERGO   ROH 7779  18.100   7.682   6.677 -0.0062 -0.1903  0.0438
  510ERGO    R1 7780  18.146   7.616   6.948  0.0197 -0.1675  0.0443
  510ERGO    R2 7781  18.089   7.790   7.156  0.0782 -0.1361  0.0298
  510ERGO    R3 7782  17.944   7.581   7.249  0.0559 -0.1007  0.0775
  510ERGO    R4 7783  17.993   7.748   7.485  0.1148 -0.0729  0.0497
  510ERGO    R5 7784  18.036   7.535   7.465  0.0786 -0.0850  0.0730
  510ERGO    C1 7785  17.799   7.526   7.764  0.1152 -0.0029  0.1059
  510ERGO    C2 7786  17.531   7.583   7.999 -0.0790  0.0588  0.0397
  511ERGO   ROH 7787   7.833   6.528   6.911  0.1530  0.0547 -0.0889
  511ERGO    R1 7788   7.942   6.565   7.170  0.0548  0.0849 -0.0511
  511ERGO    R2 7789   7.879   6.784   7.327  0.0044  0.1113 -0.1043
  511ERGO    R3 7790   7.813   6.593   7.509 -0.0769  0.1387 -0.1051
  511ERGO    R4 7791   7.907   6.819   7.670  0.0988  0.0643 -0.1070
  511ERGO    R5 7792   7.979   6.613   7.681 -0.0286  0.0194 -0.1387
  511ERGO    C1 7793   7.862   6.660   8.040  0.0775  0.0626 -0.1095
  511ERGO    C2 7794   7.964   6.612   8.408  0.4439  0.1145  0.0094
  512ERGO   ROH 7795  11.881   4.407  10.385  0.2244 -0.0360  0.0290
  512ERGO    R1 7796  11.825   4.441  10.109  0.0980 -0.0525  0.0532
  512ERGO    R2 7797  11.983   4.594   9.943 -0.0352  0.0159 -0.0054
  512ERGO    R3 7798  11.991   4.367   9.794 -0.0010  0.0251 -0.0193
  512ERGO    R4 7799  12.041   4.583   9.602  0.0463  0.0444  0.0064
  512ERGO    R5 7800  11.888   4.428   9.587  0.0465  0.0437 -0.0408
  512ERGO    C1 7801  12.082   4.363   9.265  0.1260  0.0696  0.0003
  512ERGO    C2 7802  12.067   4.403   9.034 -0.0191  0.1948 -0.1904
  513ERGO   ROH 7803  10.368   4.215  10.333 -0.1605  0.2049 -0.2773
  513ERGO    R1 7804  10.571   4.169  10.141  0.0304  0.3743 -0.1202
  513ERGO    R2 7805  10.522   4.048   9.897  0.3583  0.1422 -0.0770
  513ERGO    R3 7806  10.639   4.272   9.798  0.0959  0.2532 -0.1445
  513ERGO    R4 7807  10.574   4.112   9.562  0.3428  0.0689 -0.0937
  513ERGO    R5 7808  10.769   4.195   9.613  0.2324  0.3379 -0.0868
  513ERGO    C1 7809  10.714   4.360   9.273  0.0873  0.1303 -0.1667
  513ERGO    C2 7810  10.827   4.478   8.921 -0.0558  0.0062 -0.0862
  514ERGO   ROH 7811  12.502  15.759   9.653  0.1120  0.0094  0.0775
  514ERGO    R1 7812  12.571  15.724   9.381  0.1227  0.0814  0.0708
  514ERGO    R2 7813  12.417  15.574   9.207  0.2024  0.0121  0.0595
  514ERGO    R3 7814  12.422  15.801   9.058  0.0650  0.0335  0.0860
  514ERGO    R4 7815  12.384  15.586   8.863 -0.0544  0.0587  0.0835
  514ERGO    R5 7816  12.538  15.739   8.858 -0.0760  0.0764 -0.0104
  514ERGO    C1 7817  12.369  15.806   8.523 -0.3330  0.1057  0.1224
  514ERGO    C2 7818  12.500  15.815   8.205 -0.0046  0.0898 -0.0857
  515ERGO   ROH 7819  13.744   7.674  10.565 -0.2519 -0.0513 -0.1535
  515ERGO    R1 7820  13.774   7.631  10.287 -0.2454  0.0805 -0.1743
  515ERGO    R2 7821  13.728   7.829  10.100  0.0403  0.2569 -0.0670
  515ERGO    R3 7822  13.980   7.766  10.019 -0.0158 -0.0081 -0.0452
  515ERGO    R4 7823  13.853   7.886   9.783  0.2070  0.3620  0.0166
  515ERGO    R5 7824  13.953   7.692   9.793 -0.0510  0.2183 -0.1168
  515ERGO    C1 7825  14.162   7.861   9.522  0.2515  0.1744  0.0859
  515ERGO    C2 7826  14.317   7.859   9.301 -0.2238  0.2928 -0.1087
  516ERGO   ROH 7827   7.253   9.183   9.890  0.0701  0.0241 -0.0479
  516ERGO    R1 7828   7.299   8.985   9.693  0.0031  0.0849 -0.1242
  516ERGO    R2 7829   7.198   9.005   9.436  0.0809  0.2598 -0.1398
  516ERGO    R3 7830   7.458   8.970   9.366  0.0783  0.1347 -0.0913
  516ERGO    R4 7831   7.311   8.964   9.112  0.1253  0.3076 -0.1308
  516ERGO    R5 7832   7.450   8.813   9.185  0.0245  0.1991 -0.1492
  516ERGO    C1 7833   7.622   8.907   8.858  0.1486  0.2180 -0.0798
  516ERGO    C2 7834   7.772   8.870   8.494  0.1672  0.0470 -0.3226
  517ERGO   ROH 7835   2.675  12.990   6.011  0.1587 -0.2885  0.1275
  517ERGO    R1 7836   2.707  13.026   6.290  0.0940 -0.1504  0.1177
  517ERGO    R2 7837   2.811  12.829   6.455  0.1065 -0.0492  0.2302
  517ERGO    R3 7838   2.983  13.027   6.527  0.0459  0.0254  0.1748
  517ERGO    R4 7839   2.967  12.852   6.762  0.2708 -0.0346  0.1476
  517ERGO    R5 7840   2.933  13.067   6.758  0.1555 -0.0506  0.2130
  517ERGO    C1 7841   3.219  13.051   7.010  0.3096  0.0438  0.0474
  517ERGO    C2 7842   3.290  12.876   7.298 -0.0222  0.0516 -0.0568
  518ERGO   ROH 7843  15.527  10.620   6.699 -0.2436  0.0925 -0.0126
  518ERGO    R1 7844  15.471  10.561   6.970 -0.3599 -0.0137 -0.0585
  518ERGO    R2 7845  15.644  10.628   7.175 -0.3155 -0.3459  0.0145
  518ERGO    R3 7846  15.425  10.751   7.278 -0.1897 -0.1497  0.0542
  518ERGO    R4 7847  15.641  10.818   7.464 -0.0990 -0.3820  0.0425
  518ERGO    R5 7848  15.449  10.729   7.515 -0.1832 -0.2080  0.0501
  518ERGO    C1 7849  15.433  11.045   7.728  0.1451 -0.2189  0.0959
  518ERGO    C2 7850  15.394  11.175   8.046 -0.0874 -0.0128  0.0413
  519ERGO   ROH 7851  18.211  15.739   5.777  0.1291  0.1629  0.0260
  519ERGO    R1 7852  18.281  15.821   6.039 -0.1825  0.1518  0.1180
  519ERGO    R2 7853  18.493  15.990   6.090 -0.0003 -0.1442  0.4065
  519ERGO    R3 7854  18.304  16.136   6.219 -0.0130  0.1885  0.0315
  519ERGO    R4 7855  18.549  16.174   6.377 -0.2139 -0.0936  0.4163
  519ERGO    R5 7856  18.356  16.107   6.452 -0.4387  0.2186  0.1343
  519ERGO    C1 7857  18.404  16.418   6.666 -0.3502  0.2483  0.0699
  519ERGO    C2 7858  18.611  16.704   6.791  0.1777 -0.1753  0.2935
  520ERGO   ROH 7859   1.651  16.286   8.976 -0.1076 -0.2984  0.1566
  520ERGO    R1 7860   1.450  16.295   8.777 -0.0151 -0.2767  0.0636
  520ERGO    R2 7861   1.492  16.407   8.528  0.0568 -0.1170  0.1472
  520ERGO    R3 7862   1.405  16.164   8.440  0.2064 -0.1074 -0.0344
  520ERGO    R4 7863   1.424  16.329   8.198 -0.0443  0.1376  0.1060
  520ERGO    R5 7864   1.249  16.217   8.266  0.0767 -0.0657  0.0911
  520ERGO    C1 7865   1.302  16.057   7.924  0.0372  0.2949 -0.0886
  520ERGO    C2 7866   1.358  15.857   7.735 -0.0677 -0.2464  0.0493
  521ERGO   ROH 7867  12.509  13.764   9.817 -0.1703  0.1998 -0.0828
  521ERGO    R1 7868  12.556  13.611   9.584 -0.3528  0.2088 -0.1271
  521ERGO    R2 7869  12.410  13.645   9.351 -0.1972  0.5814 -0.1771
  521ERGO    R3 7870  12.656  13.678   9.240 -0.0809  0.1770 -0.0570
  521ERGO    R4 7871  12.489  13.575   9.022 -0.0710  0.1789 -0.0672
  521ERGO    R5 7872  12.678  13.492   9.090 -0.2111  0.0056  0.1288
  521ERGO    C1 7873  12.765  13.565   8.726  0.1116 -0.4352  0.1093
  521ERGO    C2 7874  12.599  13.436   8.382  0.1322 -0.1503 -0.2139
  522ERGO   ROH 7875   0.001  16.523   8.833 -0.0802  0.2936  0.0502
  522ERGO    R1 7876   0.021  16.663   8.587  0.2864  0.0175 -0.0869
  522ERGO    R2 7877   0.099  16.541   8.353 -0.1368 -0.4551 -0.0037
  522ERGO    R3 7878  -0.134  16.644   8.259  0.1298  0.1768 -0.0230
  522ERGO    R4 7879   0.003  16.539   8.021 -0.2612 -0.4961  0.0324
  522ERGO    R5 7880  -0.075  16.741   8.048  0.3649 -0.2121 -0.1433
  522ERGO    C1 7881  -0.272  16.634   7.739 -0.0834  0.0733  0.0354
  522ERGO    C2 7882  -0.308  16.839   7.483  0.1175  0.1032 -0.3726
  523ERGO   ROH 7883  16.755   6.985   6.724 -0.0175 -0.1814  0.0720
  523ERGO    R1 7884  16.792   6.879   6.984  0.1030 -0.0953  0.0906
  523ERGO    R2 7885  16.920   7.020   7.185 -0.0363  0.0781  0.0599
  523ERGO    R3 7886  16.691   6.968   7.322  0.0205 -0.1377  0.0776
  523ERGO    R4 7887  16.886   7.043   7.528 -0.0459  0.1007  0.0576
  523ERGO    R5 7888  16.765   6.862   7.524  0.1410 -0.0282  0.0926
  523ERGO    C1 7889  16.652   7.009   7.857  0.0016 -0.0886  0.0727
  523ERGO    C2 7890  16.621   7.157   8.092 -0.1004  0.0420 -0.0645
  524ERGO   ROH 7891  13.895   7.626   7.339  0.0122 -0.1509  0.1018
  524ERGO    R1 7892  14.018   7.482   7.548  0.0429 -0.1315  0.0975
  524ERGO    R2 7893  13.980   7.545   7.815  0.0156 -0.1594  0.0996
  524ERGO    R3 7894  13.908   7.283   7.833  0.0856 -0.1800  0.0809
  524ERGO    R4 7895  13.944   7.370   8.111  0.2491 -0.2384  0.0828
  524ERGO    R5 7896  14.038   7.198   8.015  0.2262 -0.1952 -0.0234
  524ERGO    C1 7897  13.855   7.023   8.300  0.4507 -0.3038  0.0555
  524ERGO    C2 7898  13.701   6.872   8.578  0.2047  0.0007  0.1840
  525ERGO   ROH 7899  11.630  18.158   6.599 -0.3161 -0.4095 -0.0528
  525ERGO    R1 7900  11.685  18.256   6.859 -0.1188 -0.2360 -0.1560
  525ERGO    R2 7901  11.488  18.285   7.051 -0.0174  0.1120 -0.0949
  525ERGO    R3 7902  11.657  18.131   7.199 -0.0994  0.0789 -0.0361
  525ERGO    R4 7903  11.569  18.343   7.382 -0.0689  0.1307 -0.0858
  525ERGO    R5 7904  11.775  18.288   7.336 -0.0783  0.0580 -0.0328
  525ERGO    C1 7905  11.774  18.233   7.714 -0.1759  0.1105 -0.0255
  525ERGO    C2 7906  11.922  18.251   8.058  0.2195 -0.2232 -0.2249
  526ERGO   ROH 7907  18.428   3.802   9.559 -0.1428  0.0499  0.0903
  526ERGO    R1 7908  18.496   3.900   9.302 -0.0045  0.0531  0.1254
  526ERGO    R2 7909  18.482   3.744   9.075  0.0510  0.0717  0.0991
  526ERGO    R3 7910  18.326   3.948   8.984  0.1423  0.1219  0.0592
  526ERGO    R4 7911  18.431   3.820   8.741  0.1273  0.0800  0.0904
  526ERGO    R5 7912  18.444   4.031   8.793  0.1958  0.0704  0.0770
  526ERGO    C1 7913  18.255   4.055   8.462  0.2575  0.1321  0.0479
  526ERGO    C2 7914  18.170   3.855   8.123  0.0403 -0.0288 -0.0145
  527ERGO   ROH 7915   6.764   2.461   9.733 -0.1706 -0.0082  0.0045
  527ERGO    R1 7916   6.760   2.620   9.499 -0.0690  0.1265  0.0931
  527ERGO    R2 7917   6.976   2.638   9.327 -0.0713  0.0503  0.0805
  527ERGO    R3 7918   6.793   2.565   9.140 -0.1511  0.2991  0.0583
  527ERGO    R4 7919   7.004   2.701   8.989  0.0196  0.0759  0.0926
  527ERGO    R5 7920   6.790   2.748   8.985  0.0724  0.3300  0.0890
  527ERGO    C1 7921   6.847   2.670   8.616 -0.0024  0.3244  0.0787
  527ERGO    C2 7922   7.038   2.650   8.353 -0.0285 -0.2294 -0.1515
  528ERGO   ROH 7923   1.541   8.827   9.960 -0.0079  0.0829 -0.0963
  528ERGO    R1 7924   1.422   8.927   9.723 -0.0241 -0.0332 -0.1379
  528ERGO    R2 7925   1.547   9.113   9.561 -0.1213  0.0406 -0.1289
  528ERGO    R3 7926   1.502   8.928   9.368  0.0639 -0.0178 -0.1185
  528ERGO    R4 7927   1.504   9.185   9.226 -0.3633 -0.0010 -0.1086
  528ERGO    R5 7928   1.346   9.034   9.219 -0.1533 -0.2300 -0.0503
  528ERGO    C1 7929   1.436   9.053   8.849 -0.3303 -0.0801 -0.0870
  528ERGO    C2 7930   1.379   9.119   8.475 -0.2278  0.1360 -0.1558
  529ERGO   ROH 7931   7.510  13.065   9.813 -0.0368 -0.3815  0.0252
  529ERGO    R1 7932   7.478  12.889   9.594  0.1036 -0.2821 -0.0749
  529ERGO    R2 7933   7.331  12.957   9.370  0.0344 -0.2799 -0.0216
  529ERGO    R3 7934   7.560  12.892   9.239  0.0813 -0.0078 -0.0822
  529ERGO    R4 7935   7.344  12.823   9.052  0.0792 -0.5117  0.0747
  529ERGO    R5 7936   7.505  12.691   9.120  0.3387 -0.2028  0.1045
  529ERGO    C1 7937   7.567  12.684   8.743  0.1492 -0.3912  0.0739
  529ERGO    C2 7938   7.326  12.727   8.434  0.0135  0.0556  0.2297
  530ERGO   ROH 7939   1.519  12.098   9.506 -0.0257 -0.1073  0.0417
  530ERGO    R1 7940   1.529  11.848   9.373 -0.0332 -0.1369  0.0969
  530ERGO    R2 7941   1.325  11.757   9.212 -0.0185 -0.1490  0.0878
  530ERGO    R3 7942   1.524  11.731   9.028  0.0045 -0.2118  0.1211
  530ERGO    R4 7943   1.293  11.597   8.907 -0.1186  0.1402 -0.0578
  530ERGO    R5 7944   1.492  11.512   8.937 -0.2145 -0.1049 -0.0722
  530ERGO    C1 7945   1.461  11.479   8.558 -0.1553  0.2499 -0.1115
  530ERGO    C2 7946   1.654  11.413   8.323 -0.0671 -0.0627  0.0734
  531ERGO   ROH 7947  10.046   7.640   9.227  0.3298  0.3956 -0.1542
  531ERGO    R1 7948  10.148   7.494   9.007  0.2851  0.2569 -0.0847
  531ERGO    R2 7949  10.057   7.533   8.748  0.0732 -0.0602 -0.0673
  531ERGO    R3 7950  10.322   7.571   8.696  0.0114  0.0920 -0.2824
  531ERGO    R4 7951  10.226   7.401   8.477  0.0170 -0.2885  0.0069
  531ERGO    R5 7952  10.396   7.360   8.608  0.1328  0.0328 -0.0406
  531ERGO    C1 7953  10.572   7.359   8.270 -0.0739 -0.2786 -0.1518
  531ERGO    C2 7954  10.752   7.078   8.110  0.1833  0.3227  0.0547
  532ERGO   ROH 7955  12.400   9.342   7.579 -0.0349 -0.2695 -0.1994
  532ERGO    R1 7956  12.248   9.431   7.801  0.0647 -0.3325 -0.1052
  532ERGO    R2 7957  12.065   9.637   7.782  0.3002 -0.0982  0.1120
  532ERGO    R3 7958  11.895   9.453   7.888  0.0849 -0.0208 -0.0903
  532ERGO    R4 7959  11.765   9.712   7.936  0.2595  0.0584 -0.0391
  532ERGO    R5 7960  11.809   9.558   8.085  0.0440 -0.0561 -0.0892
  532ERGO    C1 7961  11.430   9.582   8.125  0.0337  0.2221 -0.3170
  532ERGO    C2 7962  11.200   9.973   8.079  0.2386  0.1052  0.0626
  533ERGO   ROH 7963  17.404  17.391   9.116 -0.0168  0.1347 -0.0613
  533ERGO    R1 7964  17.229  17.484   8.914 -0.0140  0.0731 -0.0913
  533ERGO    R2 7965  17.320  17.609   8.684 -0.0112 -0.0039 -0.1300
  533ERGO    R3 7966  17.174  17.416   8.561 -0.0165 -0.0396 -0.0699
  533ERGO    R4 7967  17.308  17.558   8.343 -0.0059 -0.1144 -0.1147
  533ERGO    R5 7968  17.094  17.520   8.361 -0.0088 -0.1006 -0.1062
  533ERGO    C1 7969  17.164  17.347   8.028 -0.0076 -0.2120 -0.0494
  533ERGO    C2 7970  17.207  17.460   7.829 -0.0596 -0.1268 -0.0915
  534ERGO   ROH 7971   6.598  14.739   9.654 -0.1421 -0.0904  0.0304
  534ERGO    R1 7972   6.598  14.609   9.402 -0.0931 -0.0073 -0.0125
  534ERGO    R2 7973   6.367  14.560   9.260 -0.0716 -0.0357 -0.0320
  534ERGO    R3 7974   6.500  14.691   9.062 -0.1114  0.0715  0.0106
  534ERGO    R4 7975   6.355  14.477   8.924  0.1647 -0.1052 -0.0249
  534ERGO    R5 7976   6.569  14.518   8.912  0.1350  0.1115  0.0686
  534ERGO    C1 7977   6.474  14.551   8.544  0.2650 -0.0451  0.0191
  534ERGO    C2 7978   6.209  14.580   8.277  0.3938  0.0953 -0.0354
  535ERGO   ROH 7979   8.831   0.802   6.271 -0.1087 -0.0353  0.0587
  535ERGO    R1 7980   8.929   0.808   6.537 -0.0342 -0.0056  0.0310
  535ERGO    R2 7981   8.978   1.043   6.672  0.0815  0.0067 -0.0308
  535ERGO    R3 7982   8.813   0.933   6.858  0.0997  0.1056  0.0345
  535ERGO    R4 7983   9.035   1.046   7.013  0.2468 -0.0700 -0.0576
  535ERGO    R5 7984   8.961   0.841   7.022  0.1101 -0.0125 -0.0462
  535ERGO    C1 7985   8.913   0.944   7.386  0.3601 -0.0218 -0.0118
  535ERGO    C2 7986   8.774   1.025   7.663 -0.0775 -0.2436  0.1431
  536ERGO   ROH 7987  12.916  18.281   9.936 -0.0185  0.1004  0.0251
  536ERGO    R1 7988  13.041  18.308   9.684  0.0387  0.1490  0.0596
  536ERGO    R2 7989  12.945  18.185   9.456  0.2025  0.0339  0.0558
  536ERGO    R3 7990  12.951  18.438   9.356  0.0422  0.0202  0.0059
  536ERGO    R4 7991  12.962  18.264   9.120  0.4007 -0.0312  0.0481
  536ERGO    R5 7992  13.101  18.424   9.170  0.2116  0.1169  0.1287
  536ERGO    C1 7993  12.977  18.547   8.830  0.3656 -0.0820 -0.0032
  536ERGO    C2 7994  12.849  18.645   8.484 -0.0527 -0.0920 -0.0202
  537ERGO   ROH 7995   5.500  14.364   9.387  0.1873 -0.0747 -0.0915
  537ERGO    R1 7996   5.369  14.271   9.154 -0.0080 -0.1441  0.0452
  537ERGO    R2 7997   5.499  14.235   8.914 -0.2593  0.0125 -0.1130
  537ERGO    R3 7998   5.396  13.984   8.932 -0.0267 -0.0817 -0.0415
  537ERGO    R4 7999   5.491  14.007   8.654 -0.3393  0.0630 -0.1553
  537ERGO    R5 8000   5.290  13.949   8.719 -0.2298 -0.1232  0.0574
  537ERGO    C1 8001   5.388  13.639   8.520 -0.1676  0.0041 -0.1128
  537ERGO    C2 8002   5.639  13.413   8.310 -0.0815 -0.0785 -0.2304
  538ERGO   ROH 8003  11.186  18.124   9.855 -0.0014 -0.2320 -0.0574
  538ERGO    R1 8004  11.186  17.999   9.601  0.1744 -0.1143 -0.1180
  538ERGO    R2 8005  10.964  17.994   9.437  0.1588 -0.3863 -0.1003
  538ERGO    R3 8006  11.137  18.101   9.256 -0.0191 -0.0238 -0.0637
  538ERGO    R4 8007  10.931  17.971   9.094  0.1685 -0.2598 -0.1095
  538ERGO    R5 8008  11.146  17.940   9.079  0.2176  0.0804 -0.1474
  538ERGO    C1 8009  11.073  18.058   8.724  0.0072  0.1542 -0.0806
  538ERGO    C2 8010  11.061  18.237   8.401 -0.0353 -0.0461  0.0738
  539ERGO   ROH 8011  10.315   6.821  10.601  0.1325 -0.0674  0.0331
  539ERGO    R1 8012  10.505   6.762  10.400  0.0496 -0.0471 -0.0529
  539ERGO    R2 8013  10.484   6.542  10.235 -0.0021 -0.0500 -0.0469
  539ERGO    R3 8014  10.505   6.728  10.038 -0.1103 -0.0443 -0.0530
  539ERGO    R4 8015  10.537   6.472   9.900 -0.0429 -0.0279 -0.0577
  539ERGO    R5 8016  10.673   6.642   9.891 -0.1094  0.0201 -0.0864
  539ERGO    C1 8017  10.587   6.607   9.521 -0.1681 -0.0097 -0.0697
  539ERGO    C2 8018  10.619   6.754   9.272 -0.1526  0.3365  0.0517
  540ERGO   ROH 8019  13.633  13.542   9.467  0.0058  0.1424  0.0611
  540ERGO    R1 8020  13.653  13.476   9.192  0.0876 -0.1515  0.1329
  540ERGO    R2 8021  13.670  13.668   8.994 -0.2917 -0.3452 -0.1052
  540ERGO    R3 8022  13.894  13.530   8.924 -0.0411 -0.0248  0.0431
  540ERGO    R4 8023  13.762  13.591   8.670 -0.1791 -0.5717 -0.0209
  540ERGO    R5 8024  13.825  13.395   8.739  0.1894 -0.3781  0.2100
  540ERGO    C1 8025  14.025  13.417   8.416  0.1218 -0.4028  0.1674
  540ERGO    C2 8026  14.002  13.374   8.012  0.1264  0.2022 -0.1298
  541ERGO   ROH 8027   6.912  15.052   6.216 -0.1232 -0.1129  0.0556
  541ERGO    R1 8028   6.921  15.069   6.499 -0.1130 -0.0391  0.0508
  541ERGO    R2 8029   7.038  14.874   6.656 -0.0615  0.0287  0.0936
  541ERGO    R3 8030   7.179  15.084   6.755 -0.1043  0.0854  0.0366
  541ERGO    R4 8031   7.184  14.883   6.969  0.1486  0.0385 -0.0030
  541ERGO    R5 8032   7.120  15.091   6.987  0.0485  0.0046  0.0815
  541ERGO    C1 8033   7.402  15.085   7.244  0.2307  0.0973 -0.1129
  541ERGO    C2 8034   7.501  15.331   7.516  0.0878  0.0638  0.1842
  542ERGO   ROH 8035   3.574   5.092   6.262 -0.3296  0.0162 -0.0408
  542ERGO    R1 8036   3.458   5.087   6.520 -0.0957  0.1704  0.0694
  542ERGO    R2 8037   3.441   4.856   6.671 -0.2898  0.1859  0.0643
  542ERGO    R3 8038   3.568   5.006   6.858  0.1083 -0.0094 -0.0362
  542ERGO    R4 8039   3.488   4.761   7.000 -0.1153  0.0835  0.0124
  542ERGO    R5 8040   3.444   4.966   7.060  0.2345  0.1496  0.0788
  542ERGO    C1 8041   3.635   4.847   7.367  0.3600 -0.1595 -0.1124
  542ERGO    C2 8042   3.673   4.631   7.695  0.1353  0.3557  0.1095
  543ERGO   ROH 8043  10.108  12.728   6.326  0.0641 -0.3864 -0.0928
  543ERGO    R1 8044  10.138  12.696   6.605  0.0218 -0.3563 -0.0851
  543ERGO    R2 8045  10.357  12.572   6.718  0.1835 -0.0235 -0.0229
  543ERGO    R3 8046  10.376  12.803   6.859 -0.2230  0.0023  0.0012
  543ERGO    R4 8047  10.405  12.591   7.060  0.2664  0.0190 -0.0362
  543ERGO    R5 8048  10.263  12.757   7.065 -0.0645 -0.2541  0.0358
  543ERGO    C1 8049  10.450  12.820   7.391 -0.0670  0.0681 -0.0213
  543ERGO    C2 8050  10.491  12.798   7.790 -0.2224 -0.1232  0.1285
  544ERGO   ROH 8051  14.933   3.829   6.803 -0.3263 -0.0498 -0.0834
  544ERGO    R1 8052  14.942   3.766   7.078  0.0373 -0.0822 -0.0973
  544ERGO    R2 8053  14.721   3.678   7.218  0.1101  0.2879  0.2774
  544ERGO    R3 8054  14.884   3.472   7.284 -0.1212 -0.0028 -0.0286
  544ERGO    R4 8055  14.714   3.509   7.520  0.2176  0.1328  0.1937
  544ERGO    R5 8056  14.932   3.505   7.516  0.2107 -0.2006 -0.0649
  544ERGO    C1 8057  14.863   3.216   7.757  0.0630 -0.2303 -0.1422
  544ERGO    C2 8058  14.943   3.223   8.073  0.4691 -0.0293  0.1451
  545ERGO   ROH 8059   1.892   1.557   8.918  0.1476 -0.1714  0.0320
  545ERGO    R1 8060   1.771   1.723   8.723 -0.2206 -0.2835  0.1577
  545ERGO    R2 8061   1.883   1.767   8.474 -0.2598  0.2160  0.2249
  545ERGO    R3 8062   1.639   1.684   8.386 -0.0508 -0.3045  0.0901
  545ERGO    R4 8063   1.802   1.705   8.144 -0.0662  0.5705  0.1040
  545ERGO    R5 8064   1.609   1.799   8.178 -0.3471 -0.0028  0.2808
  545ERGO    C1 8065   1.527   1.591   7.869  0.2428  0.2884 -0.0927
  545ERGO    C2 8066   1.461   1.605   7.530  0.0515  0.0214 -0.1172
  546ERGO   ROH 8067   3.726   2.627   5.890  0.1821 -0.1128 -0.0830
  546ERGO    R1 8068   3.534   2.657   6.096  0.1126 -0.0833 -0.1523
  546ERGO    R2 8069   3.380   2.447   6.188  0.1694 -0.0948 -0.0926
  546ERGO    R3 8070   3.480   2.521   6.429  0.0692  0.0636 -0.0975
  546ERGO    R4 8071   3.267   2.330   6.493  0.3511 -0.2653 -0.0880
  546ERGO    R5 8072   3.289   2.532   6.572  0.0500 -0.2235 -0.0916
  546ERGO    C1 8073   3.296   2.332   6.897  0.3628 -0.2159 -0.0900
  546ERGO    C2 8074   3.171   2.339   7.184 -0.1729  0.0986  0.0860
  547ERGO   ROH 8075  14.552  13.686   9.621 -0.1571 -0.1041 -0.0851
  547ERGO    R1 8076  14.567  13.836   9.382 -0.0852 -0.0252 -0.0315
  547ERGO    R2 8077  14.800  13.957   9.296 -0.0188 -0.1327 -0.0037
  547ERGO    R3 8078  14.751  13.817   9.068 -0.1192 -0.0210 -0.0518
  547ERGO    R4 8079  14.922  14.039   8.983 -0.0350 -0.0624  0.0082
  547ERGO    R5 8080  14.728  13.985   8.899 -0.0738  0.0566  0.0183
  547ERGO    C1 8081  14.946  13.956   8.587 -0.1389  0.0832 -0.0300
  547ERGO    C2 8082  15.040  14.001   8.321  0.0281  0.1838 -0.0313
  548ERGO   ROH 8083   9.940   5.844  10.373  0.4012 -0.0456 -0.1625
  548ERGO    R1 8084   9.915   5.722  10.118  0.0422 -0.1890 -0.0653
  548ERGO    R2 8085   9.690   5.583  10.041 -0.1945  0.0225  0.2177
  548ERGO    R3 8086   9.695   5.754   9.830 -0.1667 -0.1201  0.1007
  548ERGO    R4 8087   9.485   5.560   9.764 -0.4289  0.0620  0.3840
  548ERGO    R5 8088   9.656   5.615   9.640 -0.4617 -0.2038  0.2181
  548ERGO    C1 8089   9.371   5.708   9.404 -0.5393 -0.0489  0.3711
  548ERGO    C2 8090   9.281   5.705   9.109  0.0921  0.0094  0.1036
  549ERGO   ROH 8091   2.360   7.996  10.144 -0.1806 -0.2994 -0.0476
  549ERGO    R1 8092   2.545   7.982   9.930 -0.0531 -0.2795  0.0600
  549ERGO    R2 8093   2.486   7.857   9.690  0.0763 -0.2268 -0.0000
  549ERGO    R3 8094   2.559   8.096   9.585  0.1676 -0.2149  0.0889
  549ERGO    R4 8095   2.603   7.905   9.369  0.0103 -0.1414 -0.0115
  549ERGO    R5 8096   2.748   8.047   9.448  0.1047 -0.2493  0.0134
  549ERGO    C1 8097   2.740   8.158   9.083  0.0575 -0.0805  0.0652
  549ERGO    C2 8098   2.912   8.185   8.863 -0.0251 -0.0644 -0.0484
  550ERGO   ROH 8099  11.817   2.952   7.029  0.2069  0.1162 -0.1777
  550ERGO    R1 8100  11.751   3.060   7.283  0.1535  0.0535 -0.1648
  550ERGO    R2 8101  11.616   2.916   7.476  0.1431 -0.0053 -0.2170
  550ERGO    R3 8102  11.828   2.986   7.630  0.1095 -0.0100 -0.1682
  550ERGO    R4 8103  11.593   3.049   7.794  0.0757 -0.1942 -0.1409
  550ERGO    R5 8104  11.756   3.184   7.743  0.0261 -0.1007 -0.0581
  550ERGO    C1 8105  11.779   3.193   8.124  0.0049 -0.3086 -0.0509
  550ERGO    C2 8106  11.600   3.279   8.381  0.1706 -0.5043  0.0530
  551ERGO   ROH 8107  16.133  16.766   6.184  0.2720  0.1033  0.1742
  551ERGO    R1 8108  16.173  16.572   6.386  0.3600  0.0940  0.1497
  551ERGO    R2 8109  16.329  16.620   6.609  0.1391  0.2273  0.2849
  551ERGO    R3 8110  16.105  16.544   6.743  0.1252 -0.0846  0.0920
  551ERGO    R4 8111  16.322  16.509   6.936  0.0155  0.1350  0.2509
  551ERGO    R5 8112  16.176  16.359   6.877  0.2461 -0.0314  0.0979
  551ERGO    C1 8113  16.108  16.373   7.252 -0.0694 -0.2117  0.0500
  551ERGO    C2 8114  16.133  16.386   7.598 -0.4332 -0.1146 -0.2887
  552ERGO   ROH 8115  14.963   4.711  10.312 -0.0039  0.0003  0.1199
  552ERGO    R1 8116  14.864   4.691  10.047  0.0449 -0.1972  0.1143
  552ERGO    R2 8117  14.741   4.902   9.918 -0.2281 -0.3889  0.0485
  552ERGO    R3 8118  14.930   4.853   9.728 -0.1414 -0.1856  0.0809
  552ERGO    R4 8119  14.705   4.970   9.581 -0.2020 -0.3194  0.0607
  552ERGO    R5 8120  14.804   4.781   9.537 -0.0404 -0.2300  0.0301
  552ERGO    C1 8121  14.861   4.963   9.207 -0.1054 -0.0882  0.0981
  552ERGO    C2 8122  14.853   5.030   8.830 -0.0809  0.1920  0.3527
  553ERGO   ROH 8123   6.243   7.374   6.974 -0.0114  0.2313 -0.0486
  553ERGO    R1 8124   6.395   7.301   7.201 -0.0473  0.1604 -0.0479
  553ERGO    R2 8125   6.402   7.455   7.431 -0.0218  0.1277 -0.0298
  553ERGO    R3 8126   6.327   7.221   7.550 -0.0919  0.1326 -0.0622
  553ERGO    R4 8127   6.447   7.379   7.765 -0.0313  0.0646 -0.0419
  553ERGO    R5 8128   6.501   7.177   7.708 -0.0977  0.0538 -0.0755
  553ERGO    C1 8129   6.403   7.117   8.071 -0.1027  0.0324 -0.0795
  553ERGO    C2 8130   6.326   7.201   8.385 -0.0421  0.3753  0.0538
  554ERGO   ROH 8131  12.800   2.495   6.442 -0.1406 -0.2009 -0.0874
  554ERGO    R1 8132  12.709   2.332   6.654 -0.1474 -0.0622  0.0178
  554ERGO    R2 8133  12.881   2.205   6.829 -0.1497 -0.0510  0.0247
  554ERGO    R3 8134  12.731   2.332   7.017 -0.0404  0.0995  0.0127
  554ERGO    R4 8135  12.914   2.161   7.170 -0.1359  0.0058  0.0312
  554ERGO    R5 8136  12.696   2.167   7.187 -0.1338  0.1605  0.0567
  554ERGO    C1 8137  12.792   2.255   7.546 -0.0251  0.1802  0.0236
  554ERGO    C2 8138  12.751   2.238   7.814  0.0613  0.0772  0.1489
  555ERGO   ROH 8139   1.617   8.671   6.573  0.0584  0.0888  0.1350
  555ERGO    R1 8140   1.506   8.590   6.821 -0.0128  0.1029  0.1075
  555ERGO    R2 8141   1.662   8.519   7.038 -0.0754  0.1679  0.1727
  555ERGO    R3 8142   1.513   8.708   7.165 -0.1605  0.1557  0.0935
  555ERGO    R4 8143   1.585   8.516   7.375 -0.1431  0.2312  0.1584
  555ERGO    R5 8144   1.384   8.584   7.325 -0.1552  0.1562  0.0992
  555ERGO    C1 8145   1.401   8.691   7.690 -0.2625  0.2566  0.0758
  555ERGO    C2 8146   1.375   8.945   7.910 -0.1002 -0.4333  0.0411
  556ERGO   ROH 8147  10.519  11.201   9.938 -0.2219  0.3194  0.1001
  556ERGO    R1 8148  10.456  11.092   9.684 -0.3057  0.3274  0.1176
  556ERGO    R2 8149  10.441  11.246   9.455  0.0705  0.2664  0.0499
  556ERGO    R3 8150  10.620  11.064   9.361 -0.2066 -0.0959  0.1969
  556ERGO    R4 8151  10.517  11.198   9.121  0.1857  0.0668  0.1021
  556ERGO    R5 8152  10.521  10.983   9.158 -0.2425  0.0530  0.1503
  556ERGO    C1 8153  10.728  11.000   8.838 -0.0074 -0.3895  0.2704
  556ERGO    C2 8154  10.602  10.916   8.575 -0.1487 -0.3301 -0.0582
  557ERGO   ROH 8155  17.909   8.633  10.076 -0.0265 -0.1143 -0.0157
  557ERGO    R1 8156  17.968   8.709   9.810 -0.1659  0.1177  0.0168
  557ERGO    R2 8157  17.990   8.526   9.604  0.2346  0.2366 -0.0532
  557ERGO    R3 8158  17.805   8.685   9.486 -0.1006 -0.1003 -0.0018
  557ERGO    R4 8159  17.892   8.503   9.274  0.2899  0.1470 -0.0642
  557ERGO    R5 8160  17.889   8.721   9.265 -0.1620  0.1539  0.0122
  557ERGO    C1 8161  17.661   8.640   8.970  0.0075 -0.2217 -0.0223
  557ERGO    C2 8162  17.572   8.520   8.690 -0.0966  0.0422 -0.1973
  558ERGO   ROH 8163  10.162   6.440   6.968  0.0824 -0.0751  0.1682
  558ERGO    R1 8164  10.215   6.407   7.244 -0.0423 -0.0107  0.1988
  558ERGO    R2 8165  10.021   6.328   7.424 -0.0712 -0.1649  0.0902
  558ERGO    R3 8166  10.202   6.135   7.485  0.0624 -0.0059  0.2134
  558ERGO    R4 8167  10.061   6.188   7.737 -0.2331 -0.1845  0.1045
  558ERGO    R5 8168  10.277   6.192   7.706 -0.1961  0.0306  0.3014
  558ERGO    C1 8169  10.254   5.926   7.978 -0.2018 -0.0466  0.2284
  558ERGO    C2 8170  10.433   5.742   8.171  0.0827  0.1398  0.1849
  559ERGO   ROH 8171  12.931   3.844  10.059 -0.4123  0.2329  0.0220
  559ERGO    R1 8172  12.941   4.003   9.825  0.0144  0.2217  0.0238
  559ERGO    R2 8173  13.177   4.057   9.692  0.2000 -0.2300  0.1399
  559ERGO    R3 8174  13.041   3.957   9.479  0.1073  0.0246  0.0771
  559ERGO    R4 8175  13.216   4.166   9.366  0.2893 -0.0738  0.2018
  559ERGO    R5 8176  13.000   4.149   9.341  0.2791  0.1406  0.1909
  559ERGO    C1 8177  13.112   4.135   8.976  0.2541  0.2561  0.1790
  559ERGO    C2 8178  13.093   4.103   8.640 -0.1956  0.0068 -0.4291
  560ERGO   ROH 8179   6.197   8.442   6.667  0.0411 -0.0452  0.0759
  560ERGO    R1 8180   6.284   8.413   6.935  0.1152  0.1473  0.0745
  560ERGO    R2 8181   6.224   8.597   7.132 -0.2338  0.0554  0.0620
  560ERGO    R3 8182   6.128   8.379   7.262  0.1937 -0.1274  0.0851
  560ERGO    R4 8183   6.189   8.570   7.475 -0.2636  0.0582  0.0588
  560ERGO    R5 8184   6.260   8.365   7.461  0.1784  0.1973  0.1220
  560ERGO    C1 8185   6.079   8.349   7.796  0.1204 -0.1119  0.0787
  560ERGO    C2 8186   5.914   8.510   8.111  0.1082  0.1123 -0.3986
  561ERGO   ROH 8187  13.715  13.022   6.227  0.4287 -0.0958 -0.0746
  561ERGO    R1 8188  13.569  12.938   6.454  0.2127  0.1353 -0.1225
  561ERGO    R2 8189  13.598  12.687   6.566 -0.1923  0.0953 -0.0795
  561ERGO    R3 8190  13.646  12.829   6.793 -0.0762  0.0566 -0.0808
  561ERGO    R4 8191  13.554  12.567   6.887 -0.2701  0.1327 -0.0768
  561ERGO    R5 8192  13.473  12.761   6.943 -0.1185  0.1911 -0.0736
  561ERGO    C1 8193  13.574  12.630   7.287 -0.2064  0.1183 -0.0765
  561ERGO    C2 8194  13.442  12.581   7.609 -0.1722 -0.0058  0.2748
  562ERGO   ROH 8195   4.705  15.252   9.093  0.2674  0.0037  0.0093
  562ERGO    R1 8196   4.702  14.988   8.991  0.3626 -0.0090  0.0416
  562ERGO    R2 8197   4.470  14.863   8.907  0.3527 -0.2269  0.3901
  562ERGO    R3 8198   4.612  14.826   8.678  0.0575 -0.1246  0.1828
  562ERGO    R4 8199   4.370  14.666   8.641 -0.0220 -0.0778  0.4132
  562ERGO    R5 8200   4.575  14.597   8.621 -0.0466 -0.0962  0.1117
  562ERGO    C1 8201   4.444  14.516   8.272 -0.5174  0.1051  0.2321
  562ERGO    C2 8202   4.500  14.422   7.968 -0.2488 -0.2664 -0.1676
  563ERGO   ROH 8203   7.062   7.957  10.131  0.1181 -0.2688 -0.0607
  563ERGO    R1 8204   7.011   8.117   9.903  0.2213 -0.2558 -0.0768
  563ERGO    R2 8205   7.058   8.028   9.646  0.1485 -0.3198 -0.0760
  563ERGO    R3 8206   6.798   8.096   9.609  0.1933 -0.1416 -0.0623
  563ERGO    R4 8207   6.904   8.059   9.338  0.1535 -0.1592 -0.0624
  563ERGO    R5 8208   6.800   8.235   9.413  0.2735 -0.1098 -0.0324
  563ERGO    C1 8209   6.569   8.140   9.124  0.1985  0.1016 -0.0416
  563ERGO    C2 8210   6.468   7.956   8.746 -0.1179 -0.0549  0.3260
  564ERGO   ROH 8211   9.304   2.076   6.426  0.1847  0.1510  0.0136
  564ERGO    R1 8212   9.174   1.869   6.570  0.1147  0.1498 -0.0533
  564ERGO    R2 8213   9.312   1.654   6.677  0.0664  0.1810  0.0503
  564ERGO    R3 8214   9.189   1.733   6.907 -0.0937  0.1752 -0.0296
  564ERGO    R4 8215   9.224   1.444   6.937  0.3599  0.2279  0.1932
  564ERGO    R5 8216   9.038   1.555   6.958  0.1706 -0.0363  0.0753
  564ERGO    C1 8217   9.058   1.394   7.304  0.3804  0.2498  0.2014
  564ERGO    C2 8218   9.099   1.425   7.681  0.0093 -0.0170  0.2211
  565ERGO   ROH 8219   9.802   2.705  10.153 -0.0285  0.0160 -0.1150
  565ERGO    R1 8220   9.751   2.641   9.882 -0.1408  0.1031 -0.1165
  565ERGO    R2 8221   9.649   2.825   9.702  0.1029  0.2666 -0.1013
  565ERGO    R3 8222   9.868   2.756   9.557  0.0021 -0.0384 -0.1143
  565ERGO    R4 8223   9.715   2.933   9.381  0.3034  0.2735 -0.0582
  565ERGO    R5 8224   9.787   2.733   9.333 -0.0203  0.1746 -0.1256
  565ERGO    C1 8225   9.959   2.932   9.057  0.3254 -0.0088 -0.0455
  565ERGO    C2 8226  10.143   2.785   8.839 -0.1996  0.0239 -0.0952
  566ERGO   ROH 8227   8.243   1.400   9.746  0.0764  0.2452 -0.0459
  566ERGO    R1 8228   8.360   1.381   9.489  0.1196 -0.2056 -0.0017
  566ERGO    R2 8229   8.335   1.156   9.330 -0.5357 -0.1966  0.0617
  566ERGO    R3 8230   8.243   1.336   9.147  0.0855  0.0564 -0.0268
  566ERGO    R4 8231   8.261   1.082   9.001 -0.5939 -0.0529  0.0422
  566ERGO    R5 8232   8.351   1.272   8.943  0.0127 -0.3151  0.0420
  566ERGO    C1 8233   8.132   1.207   8.637 -0.0446  0.2683 -0.0522
  566ERGO    C2 8234   8.066   1.284   8.344  0.0715  0.0129  0.0880
  567ERGO   ROH 8235  14.122  11.194   9.980  0.1883  0.1617 -0.0304
  567ERGO    R1 8236  14.214  11.094   9.732  0.1376  0.0701 -0.0127
  567ERGO    R2 8237  14.063  11.103   9.502  0.0135 -0.1874  0.0537
  567ERGO    R3 8238  14.282  11.228   9.401 -0.1254 -0.0902 -0.1344
  567ERGO    R4 8239  14.159  11.096   9.170 -0.0830 -0.4200  0.0288
  567ERGO    R5 8240  14.366  11.077   9.236 -0.0447 -0.1763 -0.0149
  567ERGO    C1 8241  14.421  11.209   8.882 -0.2694 -0.4642 -0.1623
  567ERGO    C2 8242  14.556  11.413   8.666 -0.2795  0.0318  0.0554
  568ERGO   ROH 8243   5.929  11.395   6.209 -0.3778 -0.3433  0.1428
  568ERGO    R1 8244   6.102  11.432   6.429 -0.2691 -0.2097  0.0370
  568ERGO    R2 8245   6.114  11.669   6.571 -0.1411 -0.0939 -0.1588
  568ERGO    R3 8246   6.066  11.507   6.784 -0.0933  0.0886 -0.0059
  568ERGO    R4 8247   6.257  11.706   6.883 -0.0174  0.1247 -0.2387
  568ERGO    R5 8248   6.278  11.489   6.894 -0.0593  0.1315 -0.0703
  568ERGO    C1 8249   6.296  11.575   7.265  0.0994  0.4233 -0.1417
  568ERGO    C2 8250   6.427  11.761   7.550  0.3399  0.0780 -0.0769
  569ERGO   ROH 8251   7.992   3.353   6.396  0.0859  0.0292 -0.0360
  569ERGO    R1 8252   7.883   3.396   6.654  0.0580  0.0609 -0.0540
  569ERGO    R2 8253   7.751   3.198   6.796  0.0793  0.0704 -0.0310
  569ERGO    R3 8254   7.933   3.260   6.988  0.0492  0.1337 -0.0211
  569ERGO    R4 8255   7.722   3.115   7.130 -0.0637  0.3179  0.0221
  569ERGO    R5 8256   7.801   3.311   7.181  0.0046  0.3286 -0.0951
  569ERGO    C1 8257   7.876   3.124   7.505 -0.1753  0.5215  0.0623
  569ERGO    C2 8258   7.823   3.028   7.813 -0.1776 -0.0386 -0.1499
  570ERGO   ROH 8259  17.415   9.647   9.933  0.2172  0.2330 -0.0850
  570ERGO    R1 8260  17.360   9.575   9.665  0.1475  0.1248 -0.0414
  570ERGO    R2 8261  17.191   9.722   9.502  0.1363  0.0790 -0.0666
  570ERGO    R3 8262  17.406   9.724   9.336  0.0984 -0.0267 -0.1184
  570ERGO    R4 8263  17.175   9.681   9.160  0.0427 -0.0392 -0.0495
  570ERGO    R5 8264  17.355   9.558   9.171  0.0204 -0.0761 -0.0482
  570ERGO    C1 8265  17.368   9.659   8.804 -0.0477 -0.2073 -0.0881
  570ERGO    C2 8266  17.195   9.758   8.568  0.0968  0.0293 -0.2443
  571ERGO   ROH 8267   9.231   0.565   9.750 -0.1875 -0.1688 -0.0815
  571ERGO    R1 8268   9.209   0.709   9.507 -0.2284 -0.0913 -0.0319
  571ERGO    R2 8269   9.375   0.662   9.291 -0.1333  0.1155 -0.0044
  571ERGO    R3 8270   9.140   0.631   9.159 -0.0744 -0.0098 -0.0821
  571ERGO    R4 8271   9.335   0.695   8.949 -0.0226  0.0099 -0.0286
  571ERGO    R5 8272   9.146   0.797   8.986 -0.0760 -0.0524 -0.1239
  571ERGO    C1 8273   9.091   0.684   8.626  0.0974 -0.1693 -0.1155
  571ERGO    C2 8274   8.995   0.702   8.259  0.0215 -0.1283  0.1144
  572ERGO   ROH 8275   5.285   7.409   6.917 -0.0625 -0.0231  0.1119
  572ERGO    R1 8276   5.201   7.451   7.184  0.0036 -0.1088  0.1461
  572ERGO    R2 8277   5.344   7.358   7.401  0.1025 -0.1046  0.0819
  572ERGO    R3 8278   5.332   7.618   7.479  0.0342 -0.1241  0.1410
  572ERGO    R4 8279   5.374   7.468   7.727  0.0231 -0.1695  0.1124
  572ERGO    R5 8280   5.216   7.612   7.688 -0.0002 -0.1947  0.1195
  572ERGO    C1 8281   5.381   7.776   7.991 -0.0873 -0.2256  0.1856
  572ERGO    C2 8282   5.693   7.871   8.178 -0.2457  0.2089  0.1564
  573ERGO   ROH 8283   5.126   9.842   9.923  0.2489  0.2249  0.0053
  573ERGO    R1 8284   5.278   9.872   9.685  0.2157  0.0421 -0.0407
  573ERGO    R2 8285   5.355   9.657   9.529  0.0884 -0.0701  0.0466
  573ERGO    R3 8286   5.232   9.798   9.332  0.1112 -0.1098  0.0040
  573ERGO    R4 8287   5.458   9.668   9.200  0.0411 -0.2454  0.0250
  573ERGO    R5 8288   5.412   9.880   9.197  0.1184 -0.2315 -0.0587
  573ERGO    C1 8289   5.403   9.806   8.823  0.0349 -0.3847 -0.0275
  573ERGO    C2 8290   5.222   9.926   8.450  0.0159 -0.1478  0.0310
  574ERGO   ROH 8291   8.240   3.708   9.785 -0.1300  0.3176 -0.1021
  574ERGO    R1 8292   8.203   3.696   9.505 -0.0644 -0.0265 -0.1020
  574ERGO    R2 8293   8.321   3.875   9.331 -0.4398  0.0978 -0.2532
  574ERGO    R3 8294   8.414   3.649   9.212  0.0980  0.1827 -0.0187
  574ERGO    R4 8295   8.408   3.849   8.997 -0.2303 -0.0128 -0.1893
  574ERGO    R5 8296   8.315   3.652   8.994  0.1896 -0.2184 -0.0678
  574ERGO    C1 8297   8.546   3.621   8.692  0.3965  0.0024  0.0681
  574ERGO    C2 8298   8.851   3.496   8.400 -0.1805 -0.0754  0.0482
  575ERGO   ROH 8299   8.944   2.316   9.793  0.1165  0.2299  0.0171
  575ERGO    R1 8300   9.032   2.200   9.550  0.0575  0.1870  0.0167
  575ERGO    R2 8301   8.868   2.174   9.330  0.0309  0.2251  0.0371
  575ERGO    R3 8302   9.069   2.307   9.205  0.0608  0.1513  0.0045
  575ERGO    R4 8303   8.907   2.194   8.987  0.1335 -0.0286  0.0309
  575ERGO    R5 8304   9.122   2.170   9.015  0.1318  0.0097  0.1204
  575ERGO    C1 8305   9.119   2.332   8.670  0.2212 -0.2456 -0.0033
  575ERGO    C2 8306   9.146   2.273   8.354  0.3491  0.0796  0.1045
  576ERGO   ROH 8307  13.731  17.083   6.799  0.2075  0.2221  0.0778
  576ERGO    R1 8308  13.597  17.124   7.045  0.0158 -0.0064  0.0143
  576ERGO    R2 8309  13.537  16.917   7.219  0.3386 -0.1071  0.0074
  576ERGO    R3 8310  13.670  17.073   7.397 -0.0371  0.1761  0.0537
  576ERGO    R4 8311  13.431  16.983   7.541  0.1070 -0.3569 -0.0134
  576ERGO    R5 8312  13.497  17.189   7.516 -0.3288 -0.2005  0.0191
  576ERGO    C1 8313  13.494  17.167   7.897 -0.3804 -0.2367  0.0177
  576ERGO    C2 8314  13.574  17.246   8.218  0.1161 -0.0354  0.2682
  577ERGO   ROH 8315   1.463   6.660   6.662 -0.2898 -0.2239  0.0271
  577ERGO    R1 8316   1.389   6.832   6.875 -0.1319 -0.1516  0.0256
  577ERGO    R2 8317   1.175   6.779   7.041 -0.1209 -0.0033  0.0902
  577ERGO    R3 8318   1.361   6.807   7.237 -0.0503 -0.0889  0.0362
  577ERGO    R4 8319   1.111   6.904   7.357 -0.0153 -0.1885  0.1867
  577ERGO    R5 8320   1.300   7.011   7.347 -0.0345 -0.1586  0.1748
  577ERGO    C1 8321   1.249   7.004   7.725  0.1124 -0.3766  0.1922
  577ERGO    C2 8322   0.970   6.963   7.939 -0.1161  0.0462 -0.1628
  578ERGO   ROH 8323  12.164  12.267   9.683 -0.1553  0.0024  0.0592
  578ERGO    R1 8324  12.049  12.293   9.425 -0.2123 -0.1793  0.0642
  578ERGO    R2 8325  12.189  12.398   9.210 -0.4210  0.1590  0.0824
  578ERGO    R3 8326  12.118  12.164   9.092  0.0615  0.0248  0.0398
  578ERGO    R4 8327  12.149  12.352   8.870 -0.1930  0.0850  0.0646
  578ERGO    R5 8328  11.975  12.229   8.911  0.0159 -0.2404 -0.0180
  578ERGO    C1 8329  12.060  12.106   8.561  0.3929 -0.0842  0.0143
  578ERGO    C2 8330  11.945  12.028   8.300 -0.2812  0.0760  0.1451
  579ERGO   ROH 8331  17.454  15.966   8.945 -0.2170  0.2650 -0.0547
  579ERGO    R1 8332  17.471  16.046   8.674 -0.2213  0.1189 -0.0992
  579ERGO    R2 8333  17.685  15.980   8.512 -0.0842  0.2715  0.0145
  579ERGO    R3 8334  17.491  15.881   8.350  0.0838 -0.0612  0.0075
  579ERGO    R4 8335  17.716  15.932   8.171  0.0847  0.0913  0.0528
  579ERGO    R5 8336  17.512  16.005   8.147  0.0044 -0.1623 -0.0633
  579ERGO    C1 8337  17.550  15.812   7.821  0.3411 -0.3260  0.0687
  579ERGO    C2 8338  17.557  15.644   7.559 -0.1037  0.5283  0.1484
  580ERGO   ROH 8339  15.107  10.835  10.009 -0.0893 -0.1010 -0.1032
  580ERGO    R1 8340  15.241  10.794   9.763 -0.0859 -0.1769 -0.0893
  580ERGO    R2 8341  15.310  10.542   9.671 -0.1891 -0.2166 -0.0677
  580ERGO    R3 8342  15.172  10.620   9.450 -0.1377 -0.1677 -0.0821
  580ERGO    R4 8343  15.357  10.414   9.354 -0.1213 -0.1441 -0.0870
  580ERGO    R5 8344  15.334  10.615   9.274 -0.1015 -0.1293 -0.0469
  580ERGO    C1 8345  15.255  10.412   8.962 -0.0336 -0.0561 -0.1118
  580ERGO    C2 8346  15.320  10.154   8.813  0.2864  0.1605  0.0499
  581ERGO   ROH 8347   7.925  15.102   9.596  0.4714  0.2129 -0.2994
  581ERGO    R1 8348   7.826  15.223   9.360  0.0542  0.0114 -0.2360
  581ERGO    R2 8349   7.992  15.328   9.165 -0.2935  0.2500 -0.4057
  581ERGO    R3 8350   7.851  15.163   9.002 -0.1778 -0.0089 -0.2528
  581ERGO    R4 8351   8.037  15.303   8.824 -0.1558 -0.1502 -0.3643
  581ERGO    R5 8352   7.821  15.290   8.801 -0.1522 -0.2570 -0.4252
  581ERGO    C1 8353   7.931  15.133   8.471  0.0330 -0.6262 -0.1968
  581ERGO    C2 8354   7.843  15.272   8.110  0.0931  0.1461  0.1885
  582ERGO   ROH 8355   8.808  13.037   6.128  0.0266 -0.0423  0.1278
  582ERGO    R1 8356   8.791  13.231   6.334  0.2066 -0.0239  0.1270
  582ERGO    R2 8357   8.558  13.280   6.472  0.2191  0.2708  0.0524
  582ERGO    R3 8358   8.714  13.233   6.689  0.0915  0.0615  0.1016
  582ERGO    R4 8359   8.518  13.432   6.781  0.1087  0.0504  0.1487
  582ERGO    R5 8360   8.736  13.447   6.795  0.1040 -0.0254  0.2748
  582ERGO    C1 8361   8.642  13.475   7.164 -0.0754 -0.2745  0.2511
  582ERGO    C2 8362   8.509  13.646   7.361  0.3821 -0.4081 -0.2115
  583ERGO   ROH 8363  14.477  11.540   6.354  0.3017  0.0139 -0.2291
  583ERGO    R1 8364  14.484  11.504   6.635  0.1976 -0.0774 -0.2382
  583ERGO    R2 8365  14.720  11.472   6.775  0.1565  0.0611 -0.1405
  583ERGO    R3 8366  14.623  11.681   6.921 -0.0760 -0.0644 -0.1087
  583ERGO    R4 8367  14.754  11.507   7.117  0.1800  0.0767 -0.1439
  583ERGO    R5 8368  14.549  11.581   7.126  0.0842 -0.1752 -0.1006
  583ERGO    C1 8369  14.684  11.722   7.453 -0.0245 -0.0321 -0.1161
  583ERGO    C2 8370  14.731  11.822   7.816  0.0419  0.1454 -0.2329
  584ERGO   ROH 8371   6.945  10.428   6.335 -0.1598  0.0163  0.0614
  584ERGO    R1 8372   6.842  10.430   6.599 -0.1261 -0.3063  0.0800
  584ERGO    R2 8373   6.874  10.217   6.772  0.4333 -0.2812  0.0197
  584ERGO    R3 8374   6.977  10.408   6.936 -0.0094 -0.0548  0.0527
  584ERGO    R4 8375   6.850  10.216   7.117  0.5039 -0.4494  0.0255
  584ERGO    R5 8376   6.815  10.431   7.111 -0.0456 -0.5186  0.0955
  584ERGO    C1 8377   6.934  10.394   7.472  0.1293 -0.3348  0.0598
  584ERGO    C2 8378   6.842  10.479   7.906 -0.4595 -0.0536  0.0974
  585ERGO   ROH 8379  16.199   8.217   6.658 -0.0520 -0.1337 -0.0720
  585ERGO    R1 8380  15.953   8.187   6.794 -0.0030 -0.0926  0.0255
  585ERGO    R2 8381  15.936   8.182   7.070  0.0828  0.1069  0.0341
  585ERGO    R3 8382  15.755   8.382   7.030  0.0208  0.0341 -0.0574
  585ERGO    R4 8383  15.751   8.334   7.319 -0.0524  0.0790 -0.0472
  585ERGO    R5 8384  15.579   8.335   7.185 -0.0119 -0.0075 -0.1039
  585ERGO    C1 8385  15.475   8.611   7.427 -0.1892 -0.0057 -0.1802
  585ERGO    C2 8386  15.338   8.713   7.775  0.1545  0.1253 -0.1697
  586ERGO   ROH 8387  11.735  14.279   9.476 -0.0076 -0.2134  0.1121
  586ERGO    R1 8388  11.648  14.327   9.211  0.0206 -0.1878  0.1077
  586ERGO    R2 8389  11.740  14.181   8.995  0.0336 -0.1746  0.1058
  586ERGO    R3 8390  11.475  14.140   8.951  0.0360 -0.1575  0.0750
  586ERGO    R4 8391  11.606  14.044   8.707  0.0445  0.0366 -0.0021
  586ERGO    R5 8392  11.445  14.190   8.718  0.0344  0.0199  0.1104
  586ERGO    C1 8393  11.280  13.926   8.498  0.0532  0.1755 -0.0937
  586ERGO    C2 8394  11.298  13.834   8.157 -0.2231 -0.2396 -0.0460
  587ERGO   ROH 8395  11.111   0.339  10.090  0.0328 -0.2621  0.0918
  587ERGO    R1 8396  11.219   0.487   9.874  0.0762 -0.2627  0.1137
  587ERGO    R2 8397  11.484   0.471   9.801  0.0713 -0.3207  0.1211
  587ERGO    R3 8398  11.381   0.412   9.557  0.0671 -0.2621  0.1078
  587ERGO    R4 8399  11.670   0.432   9.512  0.0751 -0.2720  0.1163
  587ERGO    R5 8400  11.514   0.539   9.403  0.0802 -0.2360  0.1363
  587ERGO    C1 8401  11.681   0.354   9.115  0.0733 -0.1887  0.1009
  587ERGO    C2 8402  11.657   0.317   8.797  0.1031 -0.0867  0.2402
  588ERGO   ROH 8403  17.039   1.282   9.534  0.0577  0.0500 -0.1158
  588ERGO    R1 8404  17.061   1.351   9.261  0.0665 -0.1423 -0.1668
  588ERGO    R2 8405  17.003   1.174   9.057 -0.2556 -0.1900 -0.0497
  588ERGO    R3 8406  16.837   1.372   8.974 -0.0053  0.0018 -0.0987
  588ERGO    R4 8407  16.889   1.215   8.733 -0.2348 -0.1352 -0.0488
  588ERGO    R5 8408  16.916   1.430   8.756  0.0458 -0.1664 -0.1199
  588ERGO    C1 8409  16.667   1.426   8.467  0.0124  0.0768 -0.0942
  588ERGO    C2 8410  16.591   1.390   8.145  0.2614 -0.0305 -0.0094
  589ERGO   ROH 8411  10.054  16.152   6.245 -0.0099  0.3640 -0.0708
  589ERGO    R1 8412  10.221  16.069   6.458 -0.0499  0.2051 -0.1015
  589ERGO    R2 8413  10.475  16.169   6.496 -0.0296  0.1165 -0.0265
  589ERGO    R3 8414  10.381  16.225   6.745 -0.0308  0.0068 -0.0010
  589ERGO    R4 8415  10.669  16.278   6.761 -0.0360  0.0693 -0.0015
  589ERGO    R5 8416  10.553  16.148   6.893 -0.0007 -0.0070 -0.0385
  589ERGO    C1 8417  10.693  16.394   7.149 -0.0409 -0.0611  0.0370
  589ERGO    C2 8418  10.931  16.572   7.226 -0.0882 -0.0759 -0.1626
  590ERGO   ROH 8419  15.223  14.291   9.883  0.3500 -0.0382 -0.0413
  590ERGO    R1 8420  15.319  14.278   9.617  0.4014 -0.1422 -0.0159
  590ERGO    R2 8421  15.457  14.059   9.519  0.0029 -0.3818 -0.0381
  590ERGO    R3 8422  15.265  14.066   9.327  0.0682  0.0491 -0.1024
  590ERGO    R4 8423  15.512  13.993   9.185 -0.0445 -0.6720  0.0072
  590ERGO    R5 8424  15.377  14.157   9.135  0.3934 -0.3150 -0.1075
  590ERGO    C1 8425  15.364  13.960   8.809 -0.0107 -0.4364 -0.0268
  590ERGO    C2 8426  15.451  13.679   8.674 -0.3961 -0.3807  0.2519
  591ERGO   ROH 8427   0.707   7.982   6.482 -0.0834 -0.0052  0.0270
  591ERGO    R1 8428   0.723   8.049   6.757 -0.0769  0.0288  0.0187
  591ERGO    R2 8429   0.533   7.969   6.941  0.0121 -0.0861  0.0627
  591ERGO    R3 8430   0.749   7.869   7.072  0.1062  0.0724  0.0299
  591ERGO    R4 8431   0.571   7.970   7.284  0.1125  0.0466  0.0512
  591ERGO    R5 8432   0.782   8.021   7.255  0.0781  0.1510 -0.0289
  591ERGO    C1 8433   0.797   7.877   7.608  0.2593  0.2726  0.0137
  591ERGO    C2 8434   0.676   7.788   7.992  0.1124  0.0520  0.0971
  592ERGO   ROH 8435   7.188   1.065   9.670 -0.0194 -0.0837  0.0739
  592ERGO    R1 8436   7.262   1.208   9.437 -0.0264 -0.1889  0.0059
  592ERGO    R2 8437   7.348   1.082   9.206 -0.0158 -0.2944  0.0631
  592ERGO    R3 8438   7.148   1.227   9.092 -0.0262 -0.3613 -0.0036
  592ERGO    R4 8439   7.328   1.160   8.870  0.1095 -0.2242  0.0712
  592ERGO    R5 8440   7.259   1.359   8.925 -0.0091 -0.2719  0.0816
  592ERGO    C1 8441   7.129   1.341   8.567  0.1727 -0.2460  0.0135
  592ERGO    C2 8442   7.039   1.311   8.319 -0.4105  0.2052 -0.4208
  593ERGO   ROH 8443   0.909   6.580   9.658  0.3960 -0.0027  0.1978
  593ERGO    R1 8444   0.852   6.628   9.385  0.1380 -0.0058  0.2486
  593ERGO    R2 8445   1.033   6.570   9.183  0.1227  0.3908  0.1164
  593ERGO    R3 8446   0.824   6.428   9.082  0.3107  0.0456  0.1966
  593ERGO    R4 8447   1.015   6.448   8.861  0.2521  0.2582  0.1580
  593ERGO    R5 8448   0.804   6.504   8.856  0.1612 -0.0529  0.1735
  593ERGO    C1 8449   0.808   6.243   8.578  0.5040 -0.1432  0.2575
  593ERGO    C2 8450   0.870   6.132   8.406  0.3712  0.1569 -0.0604
  594ERGO   ROH 8451   7.707  16.886   9.935  0.2210 -0.0094  0.0603
  594ERGO    R1 8452   7.821  16.750   9.714  0.2949  0.1658 -0.0072
  594ERGO    R2 8453   7.669  16.655   9.503  0.2996 -0.1320  0.1395
  594ERGO    R3 8454   7.843  16.801   9.355 -0.0745  0.1548 -0.0399
  594ERGO    R4 8455   7.759  16.584   9.177  0.0852 -0.0119  0.0490
  594ERGO    R5 8456   7.964  16.639   9.227  0.0662  0.3255 -0.1489
  594ERGO    C1 8457   7.975  16.681   8.848 -0.3908  0.3272 -0.1721
  594ERGO    C2 8458   8.113  16.694   8.546  0.3518  0.2062  0.2399
  595ERGO   ROH 8459   1.885  17.065   5.407  0.4095 -0.2611 -0.0275
  595ERGO    R1 8460   1.775  17.065   5.668  0.2149 -0.1102 -0.1051
  595ERGO    R2 8461   1.882  16.916   5.874 -0.0389 -0.1314  0.0246
  595ERGO    R3 8462   1.888  17.156   6.002  0.0366 -0.0946 -0.0501
  595ERGO    R4 8463   1.901  16.956   6.217 -0.2477 -0.0210  0.0236
  595ERGO    R5 8464   1.758  17.120   6.200 -0.1204  0.0669 -0.1282
  595ERGO    C1 8465   1.918  17.205   6.536 -0.2983  0.0779 -0.0473
  595ERGO    C2 8466   2.055  17.388   6.766  0.3483  0.2777  0.1933
  596ERGO   ROH 8467   9.171  15.181   6.171  0.1869 -0.0259  0.1331
  596ERGO    R1 8468   8.986  15.125   6.378  0.2221 -0.1460  0.1321
  596ERGO    R2 8469   9.064  15.076   6.638  0.2461  0.0340  0.1585
  596ERGO    R3 8470   8.889  15.276   6.694  0.0242 -0.1295  0.0655
  596ERGO    R4 8471   8.884  15.104   6.932  0.3284  0.0473  0.2083
  596ERGO    R5 8472   8.712  15.168   6.814  0.1996 -0.2530  0.2214
  596ERGO    C1 8473   8.615  15.309   7.155  0.1679 -0.0985  0.1500
  596ERGO    C2 8474   8.430  15.330   7.529 -0.0766 -0.1509  0.2942
  597ERGO   ROH 8475  17.426  15.517   9.276 -0.2181  0.0836  0.0526
  597ERGO    R1 8476  17.549  15.458   9.028 -0.0306  0.1272  0.1328
  597ERGO    R2 8477  17.422  15.313   8.830  0.1980 -0.0248  0.0936
  597ERGO    R3 8478  17.483  15.529   8.677  0.1036 -0.0084  0.0789
  597ERGO    R4 8479  17.520  15.298   8.499 -0.0496  0.0109  0.0174
  597ERGO    R5 8480  17.666  15.455   8.541 -0.0031 -0.0075 -0.0680
  597ERGO    C1 8481  17.634  15.492   8.162 -0.2824  0.0471 -0.0407
  597ERGO    C2 8482  17.788  15.392   7.934 -0.0476 -0.0138  0.1793
  598ERGO   ROH 8483   8.624  14.482   9.463 -0.1829  0.0928 -0.0241
  598ERGO    R1 8484   8.793  14.536   9.242 -0.0801  0.0471  0.0428
  598ERGO    R2 8485   8.766  14.405   9.000  0.0326 -0.0023  0.0582
  598ERGO    R3 8486   8.751  14.659   8.902  0.0787 -0.0225 -0.0028
  598ERGO    R4 8487   8.836  14.496   8.674  0.1073 -0.0853  0.0504
  598ERGO    R5 8488   8.935  14.675   8.749  0.1116 -0.0776  0.0295
  598ERGO    C1 8489   8.863  14.787   8.392  0.1941 -0.1525 -0.0113
  598ERGO    C2 8490   8.787  14.818   8.018  0.1981 -0.2061  0.2224
  599ERGO   ROH 8491  12.639   7.017  10.084 -0.0869  0.1152  0.2271
  599ERGO    R1 8492  12.508   6.972   9.838 -0.0922  0.0370  0.2439
  599ERGO    R2 8493  12.440   7.177   9.665 -0.1547 -0.0107  0.2098
  599ERGO    R3 8494  12.580   7.028   9.485 -0.1289 -0.0096  0.2291
  599ERGO    R4 8495  12.402   7.193   9.322 -0.3000 -0.2061  0.2150
  599ERGO    R5 8496  12.421   6.977   9.314 -0.1632 -0.1981  0.3158
  599ERGO    C1 8497  12.511   7.063   8.954 -0.3605 -0.3187  0.2362
  599ERGO    C2 8498  12.484   7.076   8.616 -0.0615 -0.0871  0.0475
  600ERGO   ROH 8499  15.109  15.730   6.316 -0.0552  0.1594 -0.0406
  600ERGO    R1 8500  15.077  15.635   6.581 -0.0263  0.1625 -0.0356
  600ERGO    R2 8501  15.086  15.366   6.645 -0.0714  0.1580 -0.0405
  600ERGO    R3 8502  15.277  15.447   6.820 -0.0208  0.1168 -0.0765
  600ERGO    R4 8503  15.127  15.239   6.963 -0.0256  0.1396 -0.0540
  600ERGO    R5 8504  15.167  15.442   7.033  0.0245  0.1281 -0.0544
  600ERGO    C1 8505  15.331  15.242   7.314  0.0485  0.0903 -0.0957
  600ERGO    C2 8506  15.230  15.223   7.569  0.2423 -0.0539  0.1317
  601ERGO   ROH 8507   6.051   1.438   5.961  0.0300 -0.0023  0.2138
  601ERGO    R1 8508   5.998   1.645   6.147  0.1066 -0.0640  0.3022
  601ERGO    R2 8509   5.750   1.679   6.264  0.0887  0.0558  0.2108
  601ERGO    R3 8510   5.892   1.666   6.495 -0.0236 -0.1695  0.2725
  601ERGO    R4 8511   5.634   1.782   6.573  0.1580  0.3939  0.1295
  601ERGO    R5 8512   5.832   1.865   6.613  0.3291  0.0068  0.1819
  601ERGO    C1 8513   5.701   1.830   6.970  0.0929  0.3794  0.1401
  601ERGO    C2 8514   5.574   1.990   7.265  0.2295 -0.1931  0.1963
  602ERGO   ROH 8515   5.909   7.215   9.918 -0.2199  0.2411  0.0323
  602ERGO    R1 8516   5.832   7.310   9.663 -0.0091  0.2276 -0.0387
  602ERGO    R2 8517   6.005   7.313   9.447  0.0796 -0.0797  0.0197
  602ERGO    R3 8518   5.806   7.172   9.327 -0.0533  0.1112  0.0126
  602ERGO    R4 8519   5.901   7.358   9.121  0.1480  0.0025  0.0093
  602ERGO    R5 8520   5.695   7.333   9.188  0.1174  0.2127 -0.0065
  602ERGO    C1 8521   5.654   7.252   8.818  0.0632  0.2297 -0.0035
  602ERGO    C2 8522   5.807   7.342   8.592  0.0453 -0.0294  0.0800
  603ERGO   ROH 8523  17.087   5.702   6.653 -0.2033  0.0223  0.4475
  603ERGO    R1 8524  17.221   5.775   6.891 -0.0968  0.1037  0.3642
  603ERGO    R2 8525  17.432   5.954   6.894 -0.0554  0.0646  0.2029
  603ERGO    R3 8526  17.279   6.082   7.078  0.0370  0.1784  0.2006
  603ERGO    R4 8527  17.528   6.236   7.069  0.1607 -0.0271  0.2345
  603ERGO    R5 8528  17.434   6.152   7.247  0.0785  0.0382  0.2177
  603ERGO    C1 8529  17.440   6.520   7.344  0.3735  0.0262  0.2507
  603ERGO    C2 8530  17.358   6.818   7.417 -0.0381 -0.0490  0.1495
  604ERGO   ROH 8531   0.526   9.572   6.708 -0.1642  0.1463  0.2129
  604ERGO    R1 8532   0.708   9.548   6.924 -0.1938  0.1529  0.2390
  604ERGO    R2 8533   0.956   9.670   6.924 -0.0956 -0.0419  0.1662
  604ERGO    R3 8534   0.868   9.774   7.160 -0.0275  0.1919  0.0905
  604ERGO    R4 8535   1.159   9.809   7.167  0.0065 -0.0536  0.0874
  604ERGO    R5 8536   1.036   9.712   7.319 -0.0919  0.1519  0.1446
  604ERGO    C1 8537   1.195   9.987   7.530  0.1298  0.1591 -0.0295
  604ERGO    C2 8538   1.169  10.100   7.908  0.0093  0.0971 -0.1819
  605ERGO   ROH 8539   6.890   0.098   9.343 -0.2332 -0.1522 -0.1394
  605ERGO    R1 8540   6.811   0.271   9.134  0.0538 -0.0980 -0.2050
  605ERGO    R2 8541   6.956   0.296   8.899  0.1104 -0.4112 -0.2045
  605ERGO    R3 8542   6.717   0.238   8.784  0.0180 -0.0712 -0.1987
  605ERGO    R4 8543   6.880   0.349   8.567  0.2470 -0.4754 -0.2476
  605ERGO    R5 8544   6.681   0.416   8.628  0.3458 -0.0949 -0.3105
  605ERGO    C1 8545   6.611   0.325   8.264  0.2399 -0.1937 -0.2669
  605ERGO    C2 8546   6.541   0.266   7.936  0.0861  0.1772  0.1433
  606ERGO   ROH 8547   6.284   3.905  10.064 -0.1099 -0.1431 -0.0738
  606ERGO    R1 8548   6.259   3.739   9.836 -0.0540 -0.0853 -0.1229
  606ERGO    R2 8549   6.213   3.840   9.583 -0.0432 -0.0234 -0.1018
  606ERGO    R3 8550   6.434   3.695   9.521 -0.0094  0.0340 -0.1148
  606ERGO    R4 8551   6.333   3.793   9.263  0.0524  0.1510 -0.0926
  606ERGO    R5 8552   6.377   3.586   9.315  0.0614  0.1306 -0.1856
  606ERGO    C1 8553   6.611   3.629   9.017  0.1397  0.3064 -0.0995
  606ERGO    C2 8554   6.860   3.499   8.848  0.0180 -0.2456  0.2635
  607ERGO   ROH 8555   7.832  13.175   9.532 -0.0317 -0.1675 -0.0440
  607ERGO    R1 8556   7.916  13.236   9.269 -0.1809 -0.0261 -0.0610
  607ERGO    R2 8557   7.972  13.041   9.082  0.1263  0.0594 -0.0661
  607ERGO    R3 8558   7.792  13.179   8.932 -0.1452 -0.2517 -0.0369
  607ERGO    R4 8559   7.929  13.001   8.742  0.3379  0.1754 -0.1084
  607ERGO    R5 8560   7.906  13.218   8.724 -0.1549  0.1455  0.0254
  607ERGO    C1 8561   7.734  13.107   8.402  0.2062 -0.0490 -0.1056
  607ERGO    C2 8562   7.847  13.108   8.040 -0.0659  0.2717 -0.0851
  608ERGO   ROH 8563   0.554  11.941   6.466  0.1332  0.3996  0.1424
  608ERGO    R1 8564   0.503  11.792   6.701 -0.1265  0.2738  0.0141
  608ERGO    R2 8565   0.697  11.745   6.893 -0.1801 -0.2701 -0.0282
  608ERGO    R3 8566   0.512  11.853   7.059  0.0283 -0.0566  0.0662
  608ERGO    R4 8567   0.690  11.702   7.236 -0.1025 -0.2753 -0.0289
  608ERGO    R5 8568   0.473  11.684   7.224 -0.1165 -0.0056  0.0682
  608ERGO    C1 8569   0.511  11.779   7.591  0.1383 -0.0779  0.0594
  608ERGO    C2 8570   0.427  11.947   7.800  0.3191 -0.0825 -0.0536
  609ERGO   ROH 8571   0.978   1.961   9.252  0.2320 -0.0159  0.0832
  609ERGO    R1 8572   0.793   1.988   9.039  0.1406 -0.1168  0.1482
  609ERGO    R2 8573   0.842   2.148   8.819 -0.1540  0.1606  0.2731
  609ERGO    R3 8574   0.789   1.919   8.682  0.1770  0.1902  0.0862
  609ERGO    R4 8575   0.726   2.135   8.494 -0.3641  0.2673  0.3420
  609ERGO    R5 8576   0.595   1.971   8.552 -0.0189 -0.0426  0.2794
  609ERGO    C1 8577   0.609   1.913   8.176 -0.1758  0.3572  0.2067
  609ERGO    C2 8578   0.554   1.786   7.851 -0.1527  0.0664 -0.0034
  610ERGO   ROH 8579   6.418  15.799   5.852  0.0753 -0.0492  0.0856
  610ERGO    R1 8580   6.343  15.768   6.123  0.2989  0.1465  0.1746
  610ERGO    R2 8581   6.325  15.980   6.299 -0.0574  0.3568 -0.0999
  610ERGO    R3 8582   6.074  15.885   6.338  0.1592 -0.1425  0.1610
  610ERGO    R4 8583   6.105  16.097   6.538 -0.1979  0.2296 -0.1652
  610ERGO    R5 8584   6.045  15.891   6.576  0.2687  0.1402  0.1689
  610ERGO    C1 8585   5.741  16.076   6.715 -0.0763 -0.3131  0.0417
  610ERGO    C2 8586   5.816  16.381   6.967 -0.3015  0.0582 -0.3403
  611ERGO   ROH 8587   7.805  18.034   5.741  0.0583 -0.0631 -0.0158
  611ERGO    R1 8588   7.747  18.137   5.997  0.0411 -0.1521  0.0170
  611ERGO    R2 8589   7.757  17.983   6.226  0.2264 -0.1838 -0.0088
  611ERGO    R3 8590   7.924  18.179   6.313  0.0921 -0.0614 -0.0239
  611ERGO    R4 8591   7.799  18.074   6.557  0.1724 -0.1316 -0.0164
  611ERGO    R5 8592   7.805  18.283   6.493  0.0257 -0.1322 -0.0285
  611ERGO    C1 8593   7.981  18.311   6.831  0.0148  0.0136 -0.0350
  611ERGO    C2 8594   7.925  18.418   7.185 -0.0720 -0.0544  0.2598
  612ERGO   ROH 8595   0.376   1.066   5.794  0.1570  0.1175  0.0050
  612ERGO    R1 8596   0.292   0.954   6.040 -0.0814  0.3106  0.0146
  612ERGO    R2 8597   0.455   0.790   6.192 -0.4380 -0.0674 -0.0040
  612ERGO    R3 8598   0.399   0.970   6.388 -0.0060  0.0719  0.0058
  612ERGO    R4 8599   0.485   0.728   6.530 -0.8098 -0.2550  0.0009
  612ERGO    R5 8600   0.300   0.838   6.562 -0.5133  0.3133 -0.0791
  612ERGO    C1 8601   0.450   0.860   6.912 -0.6207 -0.2335  0.0129
  612ERGO    C2 8602   0.624   0.934   7.275  0.1223 -0.1366 -0.0931
  613ERGO   ROH 8603  11.460  14.766   9.448 -0.0359 -0.1406  0.0572
  613ERGO    R1 8604  11.458  14.801   9.168 -0.0451 -0.0520  0.0680
  613ERGO    R2 8605  11.650  14.692   9.002  0.0224  0.1042  0.0380
  613ERGO    R3 8606  11.434  14.587   8.874  0.0819  0.0273  0.0001
  613ERGO    R4 8607  11.649  14.583   8.674  0.1326  0.0278  0.0623
  613ERGO    R5 8608  11.451  14.672   8.651  0.1223 -0.0226 -0.0135
  613ERGO    C1 8609  11.445  14.422   8.363  0.2527 -0.0890  0.0408
  613ERGO    C2 8610  11.681  14.323   8.194  0.3145  0.4053 -0.3329
  614ERGO   ROH 8611  17.796   1.982   9.563  0.0610  0.3042  0.0220
  614ERGO    R1 8612  17.843   2.065   9.296  0.0513  0.1936 -0.0139
  614ERGO    R2 8613  17.777   1.909   9.077  0.0785  0.0887  0.0570
  614ERGO    R3 8614  17.642   2.132   9.000  0.0464  0.0338 -0.0497
  614ERGO    R4 8615  17.693   1.987   8.751  0.0422 -0.1044  0.0185
  614ERGO    R5 8616  17.744   2.195   8.793  0.0253 -0.0708 -0.0966
  614ERGO    C1 8617  17.518   2.242   8.489 -0.0089 -0.2684 -0.1040
  614ERGO    C2 8618  17.322   2.379   8.155 -0.0123  0.0518  0.0650
  615ERGO   ROH 8619  17.530   9.393   6.407  0.1510 -0.1346 -0.0123
  615ERGO    R1 8620  17.578   9.316   6.675  0.3496 -0.0492 -0.0226
  615ERGO    R2 8621  17.777   9.429   6.829  0.0949  0.4143 -0.0245
  615ERGO    R3 8622  17.573   9.476   7.002 -0.0166 -0.0867 -0.0053
  615ERGO    R4 8623  17.815   9.486   7.168 -0.0284  0.3114  0.0077
  615ERGO    R5 8624  17.638   9.362   7.203  0.2076 -0.0698 -0.0626
  615ERGO    C1 8625  17.644   9.562   7.528 -0.2051 -0.2188  0.0444
  615ERGO    C2 8626  17.652   9.709   7.929  0.1901  0.1931 -0.0535
  616ERGO   ROH 8627   6.434  15.820   9.441  0.0078  0.2461  0.1324
  616ERGO    R1 8628   6.597  15.715   9.234 -0.0171  0.1727  0.1505
  616ERGO    R2 8629   6.492  15.606   9.003 -0.0424  0.1409  0.1812
  616ERGO    R3 8630   6.656  15.786   8.882 -0.0139  0.0836  0.1315
  616ERGO    R4 8631   6.648  15.559   8.698 -0.3323  0.1672  0.0250
  616ERGO    R5 8632   6.826  15.653   8.780 -0.1914  0.0038 -0.0751
  616ERGO    C1 8633   6.892  15.701   8.407 -0.4743  0.1286 -0.1127
  616ERGO    C2 8634   6.947  15.789   8.177  0.0300  0.2300  0.0265
  617ERGO   ROH 8635   3.576   7.364   9.982  0.0484 -0.2725 -0.0666
  617ERGO    R1 8636   3.516   7.497   9.739  0.0210 -0.0774  0.0440
  617ERGO    R2 8637   3.707   7.629   9.591  0.0487 -0.1263  0.0212
  617ERGO    R3 8638   3.615   7.470   9.390 -0.1775  0.0560 -0.0222
  617ERGO    R4 8639   3.780   7.672   9.255 -0.0022 -0.0803  0.0168
  617ERGO    R5 8640   3.573   7.621   9.209 -0.0631  0.1660  0.0503
  617ERGO    C1 8641   3.735   7.548   8.872 -0.2441  0.1177 -0.0265
  617ERGO    C2 8642   3.840   7.701   8.548 -0.1981  0.0599  0.1184
  618ERGO   ROH 8643  12.948   6.636  10.014  0.0215  0.0225 -0.0236
  618ERGO    R1 8644  12.874   6.726   9.756 -0.0258 -0.0040 -0.0194
  618ERGO    R2 8645  13.053   6.733   9.545 -0.0369  0.0743 -0.0249
  618ERGO    R3 8646  12.862   6.585   9.421  0.0210 -0.0034 -0.0218
  618ERGO    R4 8647  12.995   6.731   9.204 -0.1451  0.1770 -0.0081
  618ERGO    R5 8648  12.781   6.726   9.245 -0.1312  0.0170  0.0617
  618ERGO    C1 8649  12.783   6.590   8.889 -0.1537  0.1639  0.0045
  618ERGO    C2 8650  12.879   6.661   8.661 -0.0989  0.1633  0.1200
  619ERGO   ROH 8651   1.354  13.248   9.308 -0.3120  0.2026 -0.0756
  619ERGO    R1 8652   1.400  13.288   9.032 -0.3148  0.1524 -0.0842
  619ERGO    R2 8653   1.315  13.110   8.838 -0.2838  0.0959 -0.0505
  619ERGO    R3 8654   1.197  13.332   8.733 -0.3192  0.0557 -0.0946
  619ERGO    R4 8655   1.205  13.139   8.512 -0.0801  0.0974 -0.1193
  619ERGO    R5 8656   1.282  13.343   8.509 -0.1764  0.1328 -0.0354
  619ERGO    C1 8657   1.032  13.364   8.222  0.0053  0.0605 -0.2008
  619ERGO    C2 8658   1.017  13.181   7.881 -0.0509 -0.1038  0.0091
  620ERGO   ROH 8659   7.484  10.934   9.867  0.1644  0.1371 -0.0257
  620ERGO    R1 8660   7.273  10.851   9.698  0.1749 -0.0372  0.0445
  620ERGO    R2 8661   7.110  11.031   9.565 -0.0690 -0.1688  0.1614
  620ERGO    R3 8662   7.186  10.888   9.346 -0.0154 -0.0338  0.0901
  620ERGO    R4 8663   6.933  11.013   9.268 -0.1141 -0.1612  0.1876
  620ERGO    R5 8664   6.982  10.801   9.258  0.0210 -0.1293  0.0945
  620ERGO    C1 8665   6.902  10.868   8.891 -0.0901 -0.0301  0.1359
  620ERGO    C2 8666   6.713  11.034   8.609 -0.0791  0.2562 -0.2832
  621ERGO   ROH 8667   6.737  14.540   6.688  0.1266  0.1703  0.2310
  621ERGO    R1 8668   6.496  14.425   6.781  0.0965  0.1898  0.1843
  621ERGO    R2 8669   6.485  14.263   7.005  0.0702  0.0234  0.0774
  621ERGO    R3 8670   6.295  14.441   7.084  0.1565  0.0464  0.2293
  621ERGO    R4 8671   6.237  14.197   7.236 -0.1225 -0.1319 -0.1724
  621ERGO    R5 8672   6.097  14.308   7.111  0.0402  0.1587 -0.0883
  621ERGO    C1 8673   5.913  14.324   7.444 -0.1538 -0.2009 -0.1753
  621ERGO    C2 8674   6.113  14.392   7.820 -0.2158  0.0633  0.1188
  622ERGO   ROH 8675   2.817  11.818   9.702  0.0702 -0.1033  0.1376
  622ERGO    R1 8676   2.809  11.724   9.435  0.0946 -0.0525  0.1179
  622ERGO    R2 8677   2.585  11.603   9.328  0.1764 -0.2401  0.1441
  622ERGO    R3 8678   2.614  11.793   9.136 -0.0459 -0.1648  0.1835
  622ERGO    R4 8679   2.489  11.566   8.998  0.3299 -0.3223  0.1081
  622ERGO    R5 8680   2.672  11.670   8.939  0.1944 -0.0449  0.1801
  622ERGO    C1 8681   2.461  11.724   8.625  0.2106 -0.2995  0.1240
  622ERGO    C2 8682   2.349  11.814   8.259 -0.0171 -0.2115 -0.0774
  623ERGO   ROH 8683  13.005  16.696   9.604 -0.1774 -0.2883 -0.0053
  623ERGO    R1 8684  12.821  16.694   9.390 -0.0905  0.1180 -0.0927
  623ERGO    R2 8685  12.831  16.877   9.184  0.4373  0.0811 -0.1172
  623ERGO    R3 8686  12.836  16.654   9.028 -0.0090  0.0369 -0.0798
  623ERGO    R4 8687  12.829  16.877   8.838  0.5565  0.0319 -0.1179
  623ERGO    R5 8688  12.693  16.707   8.844  0.1677  0.3314 -0.1369
  623ERGO    C1 8689  12.832  16.667   8.491  0.2071 -0.0385 -0.0833
  623ERGO    C2 8690  12.653  16.633   8.185  0.1588  0.2001  0.0591
  624ERGO   ROH 8691  13.313  10.703   9.796  0.1593  0.0295  0.1283
  624ERGO    R1 8692  13.347  10.557   9.556 -0.0764  0.0716  0.0665
  624ERGO    R2 8693  13.185  10.593   9.335 -0.0958  0.3406  0.1222
  624ERGO    R3 8694  13.422  10.634   9.208 -0.0790  0.1073  0.0738
  624ERGO    R4 8695  13.223  10.624   8.993 -0.1104  0.1297  0.1006
  624ERGO    R5 8696  13.405  10.504   9.008 -0.1908  0.0096  0.1446
  624ERGO    C1 8697  13.468  10.680   8.675 -0.1032 -0.2121  0.0424
  624ERGO    C2 8698  13.488  10.712   8.388 -0.1891  0.1839 -0.1963
  625ERGO   ROH 8699   4.769   5.536   6.621 -0.0444  0.2368 -0.0154
  625ERGO    R1 8700   4.806   5.424   6.878  0.1381  0.1789 -0.0650
  625ERGO    R2 8701   4.917   5.566   7.088  0.0096  0.2336 -0.0292
  625ERGO    R3 8702   4.689   5.493   7.216  0.1164 -0.0903 -0.0166
  625ERGO    R4 8703   4.895   5.498   7.426  0.1317  0.1256 -0.0422
  625ERGO    R5 8704   4.762   5.332   7.378  0.3401 -0.0350 -0.0618
  625ERGO    C1 8705   4.667   5.390   7.743  0.3030 -0.2413 -0.0379
  625ERGO    C2 8706   4.686   5.439   8.063 -0.0288 -0.0214  0.1018
  626ERGO   ROH 8707   5.802  12.811   9.784 -0.0340 -0.3372  0.0310
  626ERGO    R1 8708   5.904  12.939   9.553 -0.0501 -0.1434  0.1275
  626ERGO    R2 8709   6.022  12.799   9.345  0.0688  0.0405  0.0622
  626ERGO    R3 8710   5.837  12.930   9.195  0.0287  0.0348  0.1086
  626ERGO    R4 8711   6.068  12.899   9.018 -0.0447 -0.0086  0.0317
  626ERGO    R5 8712   5.965  13.085   9.065 -0.0090  0.0034  0.0401
  626ERGO    C1 8713   5.921  13.081   8.686 -0.1485 -0.0425  0.0576
  626ERGO    C2 8714   6.022  13.038   8.329  0.1252  0.0031 -0.1533
  627ERGO   ROH 8715  10.382   8.862   6.446  0.0399  0.2243  0.0280
  627ERGO    R1 8716  10.463   8.906   6.713  0.0298  0.1970  0.0354
  627ERGO    R2 8717  10.428   9.149   6.841 -0.0062  0.1718  0.0688
  627ERGO    R3 8718  10.302   8.996   7.027  0.0138  0.1288  0.0478
  627ERGO    R4 8719  10.344   9.255   7.159 -0.1563  0.1727  0.0299
  627ERGO    R5 8720  10.404   9.059   7.234 -0.0785  0.2089  0.0723
  627ERGO    C1 8721  10.177   9.173   7.519 -0.2250  0.1330 -0.0126
  627ERGO    C2 8722  10.183   9.340   7.894 -0.0946 -0.1321  0.1394
  628ERGO   ROH 8723   8.824   8.935   6.803  0.0249 -0.1550 -0.0421
  628ERGO    R1 8724   8.772   8.858   7.071 -0.3167 -0.3640 -0.1617
  628ERGO    R2 8725   8.790   9.035   7.282  0.2896 -0.7073  0.0986
  628ERGO    R3 8726   8.536   8.951   7.332 -0.0606  0.1353 -0.0958
  628ERGO    R4 8727   8.645   9.018   7.596  0.1858 -0.7246  0.0507
  628ERGO    R5 8728   8.553   8.829   7.537 -0.5256 -0.3098 -0.2993
  628ERGO    C1 8729   8.323   8.930   7.825 -0.2035  0.0563 -0.1597
  628ERGO    C2 8730   8.209   9.136   7.986 -0.2412  0.1186 -0.0269
  629ERGO   ROH 8731   7.084   1.267   6.427 -0.3622  0.1749 -0.0345
  629ERGO    R1 8732   6.859   1.315   6.591 -0.2149  0.3648  0.1167
  629ERGO    R2 8733   6.856   1.254   6.861 -0.1710  0.1339  0.0727
  629ERGO    R3 8734   6.786   1.516   6.886  0.2276  0.2235  0.3292
  629ERGO    R4 8735   6.728   1.397   7.148 -0.3048 -0.0365  0.0989
  629ERGO    R5 8736   6.590   1.511   7.024  0.0404  0.3601  0.0687
  629ERGO    C1 8737   6.588   1.726   7.340 -0.0086 -0.0516  0.3549
  629ERGO    C2 8738   6.664   2.005   7.408 -0.3327 -0.1725  0.0665
  630ERGO   ROH 8739  13.550   8.364   6.473  0.1046 -0.0255 -0.0968
  630ERGO    R1 8740  13.508   8.510   6.712  0.0060 -0.0554 -0.0961
  630ERGO    R2 8741  13.292   8.465   6.878  0.0616 -0.2331 -0.0754
  630ERGO    R3 8742  13.485   8.435   7.067  0.1046 -0.0661 -0.0908
  630ERGO    R4 8743  13.264   8.570   7.206 -0.0440 -0.3317 -0.0514
  630ERGO    R5 8744  13.472   8.636   7.197 -0.1106 -0.1028 -0.0471
  630ERGO    C1 8745  13.429   8.604   7.574 -0.0652 -0.2323 -0.0519
  630ERGO    C2 8746  13.256   8.899   7.753 -0.1469  0.2125 -0.0572
  631ERGO   ROH 8747  14.838   0.715   9.572 -0.4193  0.1001  0.0297
  631ERGO    R1 8748  14.827   0.681   9.291 -0.1151  0.1015  0.0143
  631ERGO    R2 8749  14.608   0.572   9.163  0.0737 -0.0198 -0.2139
  631ERGO    R3 8750  14.619   0.802   9.018  0.0906 -0.0087 -0.1947
  631ERGO    R4 8751  14.447   0.623   8.861  0.0904  0.0136 -0.2171
  631ERGO    R5 8752  14.625   0.728   8.790  0.0978  0.0109 -0.2001
  631ERGO    C1 8753  14.363   0.868   8.550  0.1164  0.0436 -0.2011
  631ERGO    C2 8754  13.964   0.885   8.366  0.0613  0.0679  0.0329
  632ERGO   ROH 8755   9.627  17.648   6.259  0.2278  0.0111  0.0856
  632ERGO    R1 8756   9.471  17.601   6.491  0.0768  0.1220  0.0090
  632ERGO    R2 8757   9.458  17.354   6.614 -0.2167  0.1109 -0.0340
  632ERGO    R3 8758   9.533  17.496   6.834 -0.1773  0.0053  0.0208
  632ERGO    R4 8759   9.331  17.308   6.932  0.0160 -0.2060  0.0173
  632ERGO    R5 8760   9.331  17.524   6.959 -0.1193 -0.2244  0.1721
  632ERGO    C1 8761   9.327  17.413   7.323  0.1883 -0.4898  0.0986
  632ERGO    C2 8762   9.468  17.222   7.576  0.1358 -0.2623 -0.1074
  633ERGO   ROH 8763   1.802   3.580   9.132  0.3774 -0.1693 -0.1672
  633ERGO    R1 8764   1.896   3.681   8.885  0.3055  0.0243 -0.1180
  633ERGO    R2 8765   1.788   3.607   8.642  0.5072 -0.1142 -0.1714
  633ERGO    R3 8766   1.760   3.875   8.609  0.0875 -0.1470 -0.1322
  633ERGO    R4 8767   1.770   3.768   8.337  0.4935 -0.0729 -0.1483
  633ERGO    R5 8768   1.895   3.926   8.419  0.1646  0.1215 -0.0078
  633ERGO    C1 8769   1.733   4.114   8.129  0.0915 -0.0796 -0.0980
  633ERGO    C2 8770   1.826   4.157   7.786 -0.1505 -0.0393  0.2614
  634ERGO   ROH 8771   4.110  15.970   5.965 -0.1934  0.1371 -0.2787
  634ERGO    R1 8772   3.969  16.085   6.182 -0.1002  0.0325 -0.1609
  634ERGO    R2 8773   4.092  16.241   6.374 -0.0566  0.1381 -0.2712
  634ERGO    R3 8774   3.901  16.421   6.304 -0.2610 -0.0154 -0.1168
  634ERGO    R4 8775   3.962  16.483   6.584 -0.1547 -0.0293 -0.1371
  634ERGO    R5 8776   3.765  16.442   6.500 -0.1687 -0.1854 -0.0319
  634ERGO    C1 8777   3.706  16.792   6.640 -0.4037 -0.2706  0.0860
  634ERGO    C2 8778   3.811  16.932   6.858 -0.1304  0.2076 -0.3729
  635ERGO   ROH 8779  10.027  16.669   9.650  0.1221 -0.0236  0.0204
  635ERGO    R1 8780   9.931  16.678   9.383  0.1407  0.0778  0.0161
  635ERGO    R2 8781  10.078  16.786   9.176  0.2302  0.0035  0.0354
  635ERGO    R3 8782  10.035  16.544   9.061  0.0656  0.0451  0.0061
  635ERGO    R4 8783  10.106  16.720   8.838  0.1382  0.0310  0.0226
  635ERGO    R5 8784   9.928  16.595   8.853  0.0655  0.1371  0.0302
  635ERGO    C1 8785  10.081  16.454   8.533 -0.0698  0.0861 -0.0124
  635ERGO    C2 8786  10.047  16.365   8.226 -0.1062  0.3374  0.0253
  636ERGO   ROH 8787   1.886   9.910   9.999  0.1902  0.0158  0.0998
  636ERGO    R1 8788   1.968  10.072   9.781 -0.0161  0.0832  0.0710
  636ERGO    R2 8789   2.114   9.973   9.569 -0.0008  0.2049  0.0266
  636ERGO    R3 8790   1.912  10.078   9.421 -0.1378  0.0340  0.0879
  636ERGO    R4 8791   2.124  10.020   9.227  0.0414  0.6270  0.0809
  636ERGO    R5 8792   2.023  10.212   9.256 -0.3025  0.4282  0.2785
  636ERGO    C1 8793   1.940  10.147   8.889 -0.0627  0.7125  0.1700
  636ERGO    C2 8794   1.816  10.105   8.595 -0.4153  0.0045  0.0035
  637ERGO   ROH 8795  17.404   0.772   6.011  0.0299 -0.0404  0.0349
  637ERGO    R1 8796  17.396   0.731   6.290  0.1392  0.0003  0.0444
  637ERGO    R2 8797  17.383   0.940   6.471  0.0393  0.0219  0.0121
  637ERGO    R3 8798  17.165   0.806   6.562  0.1615 -0.1216  0.0976
  637ERGO    R4 8799  17.303   0.898   6.804 -0.0113  0.3140  0.0396
  637ERGO    R5 8800  17.243   0.693   6.759  0.2327  0.1890  0.2537
  637ERGO    C1 8801  17.052   0.747   7.084  0.0740  0.3494  0.1358
  637ERGO    C2 8802  16.866   1.040   7.405  0.2853 -0.0426 -0.1584
  638ERGO   ROH 8803  18.015   3.894   9.853  0.0489 -0.3655  0.1766
  638ERGO    R1 8804  17.867   3.928   9.614  0.0664 -0.1671  0.1935
  638ERGO    R2 8805  17.926   4.126   9.430  0.2456 -0.1801  0.2399
  638ERGO    R3 8806  17.937   3.916   9.257  0.0325 -0.1496  0.1854
  638ERGO    R4 8807  17.827   4.137   9.099 -0.0072 -0.0699  0.3165
  638ERGO    R5 8808  17.739   3.939   9.123 -0.0659 -0.0441  0.3419
  638ERGO    C1 8809  17.779   3.947   8.744 -0.3544  0.0228  0.3100
  638ERGO    C2 8810  17.714   4.031   8.490  0.3578  0.1821 -0.0553
  639ERGO   ROH 8811   7.085   4.365  10.149  0.1512 -0.2249 -0.0049
  639ERGO    R1 8812   7.250   4.341   9.919  0.0850 -0.2840 -0.0458
  639ERGO    R2 8813   7.269   4.107   9.774 -0.1604 -0.2422 -0.1435
  639ERGO    R3 8814   7.202   4.269   9.566 -0.0497 -0.0959 -0.0683
  639ERGO    R4 8815   7.401   4.084   9.455 -0.1485 -0.1664 -0.1448
  639ERGO    R5 8816   7.407   4.302   9.448 -0.0167 -0.1615 -0.0354
  639ERGO    C1 8817   7.414   4.223   9.074 -0.0378  0.0151 -0.0749
  639ERGO    C2 8818   7.384   4.288   8.851  0.0604  0.0229  0.0042
  640ERGO   ROH 8819  16.948  11.345   6.209  0.0969 -0.1993  0.2913
  640ERGO    R1 8820  16.813  11.548   6.353 -0.0220 -0.1467  0.1074
  640ERGO    R2 8821  16.584  11.499   6.500  0.0716 -0.1734  0.2351
  640ERGO    R3 8822  16.727  11.613   6.701  0.0404  0.1784  0.0676
  640ERGO    R4 8823  16.446  11.639   6.784  0.0362 -0.4473  0.3572
  640ERGO    R5 8824  16.594  11.800   6.770 -0.3264 -0.1019  0.1745
  640ERGO    C1 8825  16.501  11.828   7.139 -0.0139 -0.2765  0.2710
  640ERGO    C2 8826  16.487  11.745   7.390  0.4034 -0.1344  0.0319
  641ERGO   ROH 8827   3.005   5.566   9.577 -0.1227 -0.0017 -0.1564
  641ERGO    R1 8828   3.051   5.777   9.393  0.0332  0.0107 -0.1040
  641ERGO    R2 8829   3.258   5.772   9.210 -0.0179 -0.1330 -0.1535
  641ERGO    R3 8830   3.058   5.815   9.031 -0.0199  0.1157 -0.0958
  641ERGO    R4 8831   3.292   5.951   8.916  0.1361 -0.1830 -0.1672
  641ERGO    R5 8832   3.095   6.038   8.953  0.2503  0.0732 -0.1111
  641ERGO    C1 8833   3.123   6.095   8.577  0.2239  0.0215 -0.1211
  641ERGO    C2 8834   3.094   6.293   8.334 -0.3452  0.2442 -0.0708
  642ERGO   ROH 8835   3.035   5.122   9.428  0.0421  0.1668  0.1161
  642ERGO    R1 8836   3.189   5.203   9.205  0.0057  0.1423  0.0819
  642ERGO    R2 8837   3.122   5.137   8.945  0.0015  0.0549  0.1051
  642ERGO    R3 8838   3.137   5.405   8.907 -0.0652  0.0482  0.0302
  642ERGO    R4 8839   3.214   5.290   8.649 -0.2607 -0.0007 -0.0080
  642ERGO    R5 8840   3.327   5.435   8.765 -0.1843  0.0415 -0.1338
  642ERGO    C1 8841   3.281   5.632   8.441 -0.4761 -0.0393 -0.1441
  642ERGO    C2 8842   3.420   5.694   8.130 -0.0105  0.0728  0.2194
  643ERGO   ROH 8843  12.518   9.072   9.851  0.1193 -0.1249 -0.0216
  643ERGO    R1 8844  12.354   9.068   9.621  0.0918  0.1654 -0.0089
  643ERGO    R2 8845  12.362   9.267   9.429  0.5270  0.0899 -0.0747
  643ERGO    R3 8846  12.403   9.058   9.260  0.0497 -0.0691 -0.0098
  643ERGO    R4 8847  12.270   9.261   9.096  0.4652  0.1789 -0.0601
  643ERGO    R5 8848  12.207   9.053   9.122  0.0113  0.3122  0.0197
  643ERGO    C1 8849  12.254   9.061   8.744 -0.0189  0.0815  0.0093
  643ERGO    C2 8850  12.266   8.915   8.439 -0.0109 -0.1327  0.0793
  644ERGO   ROH 8851   2.399   2.842   9.080  0.0639  0.0261 -0.0176
  644ERGO    R1 8852   2.256   2.817   8.837  0.0173 -0.2566  0.0380
  644ERGO    R2 8853   2.315   2.967   8.613 -0.4075 -0.0839  0.0424
  644ERGO    R3 8854   2.332   2.723   8.494  0.0876 -0.0354 -0.0114
  644ERGO    R4 8855   2.281   2.911   8.274 -0.6317 -0.0895  0.0631
  644ERGO    R5 8856   2.167   2.731   8.320 -0.1379 -0.4093  0.1634
  644ERGO    C1 8857   2.277   2.650   7.964 -0.2975 -0.0471  0.0248
  644ERGO    C2 8858   2.262   2.441   7.664 -0.1126 -0.1031  0.1476
  645ERGO   ROH 8859  15.618  11.610   7.957 -0.1246  0.1511  0.1299
  645ERGO    R1 8860  15.835  11.782   8.018 -0.0524  0.1132 -0.0153
  645ERGO    R2 8861  15.975  11.766   8.255  0.0100  0.1843 -0.0477
  645ERGO    R3 8862  16.190  11.745   8.090 -0.0427  0.0369 -0.0991
  645ERGO    R4 8863  16.305  11.796   8.354  0.0536 -0.0043 -0.1304
  645ERGO    R5 8864  16.344  11.908   8.172  0.0768 -0.0464 -0.1528
  645ERGO    C1 8865  16.698  11.794   8.257  0.0295 -0.2524 -0.2269
  645ERGO    C2 8866  16.923  11.596   8.307  0.0688 -0.1326 -0.4554
  646ERGO   ROH 8867   9.284   7.274  10.284 -0.0288  0.0861  0.0671
  646ERGO    R1 8868   9.448   7.176  10.075 -0.0837  0.1643 -0.0136
  646ERGO    R2 8869   9.501   6.907  10.041  0.1468  0.1991  0.0501
  646ERGO    R3 8870   9.408   6.954   9.790 -0.0787  0.0201  0.0972
  646ERGO    R4 8871   9.585   6.722   9.762  0.1980  0.2320  0.0437
  646ERGO    R5 8872   9.595   6.907   9.648 -0.1098  0.2192 -0.0126
  646ERGO    C1 8873   9.546   6.657   9.364  0.0162  0.0830  0.0841
  646ERGO    C2 8874   9.647   6.564   9.005 -0.0913  0.0097 -0.1671
  647ERGO   ROH 8875  15.082  16.490   9.386  0.0965  0.1038 -0.0502
  647ERGO    R1 8876  15.092  16.534   9.106  0.2225  0.1539 -0.0382
  647ERGO    R2 8877  15.288  16.423   8.946  0.0479 -0.1754 -0.0302
  647ERGO    R3 8878  15.074  16.329   8.806 -0.1126  0.2529 -0.0906
  647ERGO    R4 8879  15.292  16.344   8.609  0.0795 -0.4601  0.0342
  647ERGO    R5 8880  15.093  16.433   8.591  0.3043  0.0415 -0.1684
  647ERGO    C1 8881  15.094  16.209   8.282 -0.0528 -0.2235  0.0150
  647ERGO    C2 8882  15.009  16.040   7.995 -0.1375  0.0191  0.0566
  648ERGO   ROH 8883   3.321  17.178   5.801  0.0105  0.0014  0.0002
  648ERGO    R1 8884   3.407  17.172   6.070 -0.0269  0.0916  0.0145
  648ERGO    R2 8885   3.324  17.357   6.257 -0.2003  0.0451 -0.0155
  648ERGO    R3 8886   3.250  17.135   6.397 -0.0517 -0.0005 -0.0073
  648ERGO    R4 8887   3.248  17.352   6.595  0.0016 -0.0343  0.0305
  648ERGO    R5 8888   3.354  17.163   6.611  0.0682 -0.0058 -0.0642
  648ERGO    C1 8889   3.134  17.141   6.922  0.2587 -0.1234  0.0650
  648ERGO    C2 8890   2.802  16.956   7.120 -0.3312  0.1040  0.0821
  649ERGO   ROH 8891   3.983   7.208   6.557  0.0644 -0.1003  0.1294
  649ERGO    R1 8892   3.887   7.242   6.821 -0.0240 -0.0440  0.0906
  649ERGO    R2 8893   3.912   7.047   7.014 -0.0780  0.0026  0.1431
  649ERGO    R3 8894   4.031   7.247   7.155 -0.1347  0.0400  0.1382
  649ERGO    R4 8895   3.943   7.055   7.359  0.1009 -0.0865  0.1307
  649ERGO    R5 8896   3.897   7.268   7.353 -0.0459 -0.1116  0.2187
  649ERGO    C1 8897   4.071   7.247   7.692  0.1518 -0.1033  0.1188
  649ERGO    C2 8898   4.364   7.308   8.032  0.1645  0.0006 -0.0539
  650ERGO   ROH 8899   0.030   6.658   9.946 -0.2488 -0.1207  0.3144
  650ERGO    R1 8900  -0.107   6.569   9.714 -0.1587 -0.0937  0.2500
  650ERGO    R2 8901  -0.207   6.743   9.524 -0.0372 -0.0744  0.2026
  650ERGO    R3 8902  -0.059   6.593   9.354  0.0122 -0.1020  0.2707
  650ERGO    R4 8903  -0.266   6.714   9.185 -0.1152 -0.3436  0.2382
  650ERGO    R5 8904  -0.219   6.501   9.201  0.0224 -0.3082  0.3762
  650ERGO    C1 8905  -0.161   6.555   8.827 -0.1142 -0.5264  0.3231
  650ERGO    C2 8906  -0.173   6.481   8.498  0.1085 -0.0408  0.1835
  651ERGO   ROH 8907   1.043   4.378   9.407 -0.0766 -0.2175 -0.0067
  651ERGO    R1 8908   1.097   4.335   9.132 -0.1164 -0.2168 -0.0168
  651ERGO    R2 8909   0.974   4.136   8.986 -0.2524 -0.1272 -0.0426
  651ERGO    R3 8910   0.908   4.342   8.821 -0.1322 -0.0583 -0.0025
  651ERGO    R4 8911   0.906   4.104   8.649  0.1221  0.0448 -0.1372
  651ERGO    R5 8912   1.017   4.289   8.614  0.1043  0.0921  0.0855
  651ERGO    C1 8913   0.805   4.278   8.297  0.4531  0.2096 -0.1546
  651ERGO    C2 8914   0.545   4.224   8.112 -0.0008 -0.0814  0.1819
  652ERGO   ROH 8915   4.559   7.077   9.868  0.1573  0.1858  0.1333
  652ERGO    R1 8916   4.534   7.164   9.600  0.1297  0.1634  0.1289
  652ERGO    R2 8917   4.744   7.276   9.460  0.1635 -0.0107  0.0420
  652ERGO    R3 8918   4.686   7.081   9.280 -0.0388  0.0048  0.0879
  652ERGO    R4 8919   4.777   7.307   9.117  0.1160 -0.0935  0.0294
  652ERGO    R5 8920   4.590   7.198   9.094  0.0167  0.0562  0.0890
  652ERGO    C1 8921   4.741   7.141   8.749 -0.1015 -0.1272  0.0650
  652ERGO    C2 8922   4.683   7.176   8.427 -0.3337 -0.1238 -0.0444
  653ERGO   ROH 8923   0.419  10.659   6.832  0.1137  0.2469 -0.0685
  653ERGO    R1 8924   0.624  10.616   7.023  0.0278  0.2754  0.0312
  653ERGO    R2 8925   0.719  10.818   7.187 -0.1206  0.2757  0.1214
  653ERGO    R3 8926   0.658  10.642   7.385 -0.1708  0.2178  0.0547
  653ERGO    R4 8927   0.867  10.812   7.499 -0.1568  0.1409  0.1367
  653ERGO    R5 8928   0.868  10.595   7.490 -0.1920  0.1456  0.0621
  653ERGO    C1 8929   0.895  10.644   7.867 -0.2250  0.0081  0.0829
  653ERGO    C2 8930   0.793  10.464   8.116 -0.2994 -0.0110  0.3555
  654ERGO   ROH 8931   4.939   8.732  10.081  0.0924 -0.1834  0.0218
  654ERGO    R1 8932   4.815   8.683   9.832  0.0765 -0.1018  0.0143
  654ERGO    R2 8933   4.653   8.869   9.707  0.0604 -0.0668  0.0929
  654ERGO    R3 8934   4.823   8.829   9.499  0.0446  0.0138  0.0633
  654ERGO    R4 8935   4.566   8.898   9.374 -0.0175 -0.1236  0.1070
  654ERGO    R5 8936   4.688   8.723   9.332  0.0680 -0.0638  0.0917
  654ERGO    C1 8937   4.676   8.879   8.984 -0.0778 -0.0810  0.0874
  654ERGO    C2 8938   4.694   8.718   8.798  0.1144 -0.0990 -0.0423
  655ERGO   ROH 8939  18.390   4.781   9.639  0.1879  0.0987  0.0687
  655ERGO    R1 8940  18.474   4.842   9.375  0.0831  0.0994  0.0359
  655ERGO    R2 8941  18.296   4.909   9.174  0.0027  0.0622  0.1004
  655ERGO    R3 8942  18.455   5.129   9.152 -0.0391  0.0857  0.0258
  655ERGO    R4 8943  18.256   5.158   8.938  0.1820 -0.2258 -0.2455
  655ERGO    R5 8944  18.473   5.166   8.916  0.2135 -0.1886 -0.0076
  655ERGO    C1 8945  18.381   5.510   8.780  0.2471 -0.3714 -0.5169
  655ERGO    C2 8946  18.158   5.729   8.729  0.0405  0.1244  0.1286
  656ERGO   ROH 8947   3.820  12.450   6.517  0.0541  0.0585 -0.1435
  656ERGO    R1 8948   3.746  12.358   6.774 -0.0460 -0.0252 -0.2021
  656ERGO    R2 8949   3.897  12.409   7.001 -0.0638 -0.2141 -0.1487
  656ERGO    R3 8950   3.663  12.508   7.095 -0.0293 -0.1346 -0.1452
  656ERGO    R4 8951   3.801  12.408   7.332 -0.0700 -0.2187 -0.1503
  656ERGO    R5 8952   3.599  12.357   7.269 -0.0908 -0.1345 -0.1642
  656ERGO    C1 8953   3.524  12.501   7.614 -0.0413 -0.1466 -0.1479
  656ERGO    C2 8954   3.609  12.739   7.826 -0.0645  0.2540  0.0546
  657ERGO   ROH 8955  17.437  11.483  10.053 -0.1756 -0.2995  0.3092
  657ERGO    R1 8956  17.335  11.359   9.820 -0.0572 -0.2009  0.2041
  657ERGO    R2 8957  17.397  11.447   9.565  0.0521 -0.0764  0.2739
  657ERGO    R3 8958  17.474  11.189   9.529  0.0918 -0.0535  0.1871
  657ERGO    R4 8959  17.435  11.293   9.258 -0.0007  0.0090  0.2237
  657ERGO    R5 8960  17.344  11.114   9.343  0.0557 -0.0304  0.2023
  657ERGO    C1 8961  17.528  10.961   9.046  0.0062  0.0802  0.1130
  657ERGO    C2 8962  17.470  10.970   8.768  0.0694  0.1414 -0.3419
  658ERGO   ROH 8963  11.083   6.832  10.473 -0.0032  0.0286  0.1288
  658ERGO    R1 8964  10.935   6.892  10.240 -0.0367  0.0510  0.1556
  658ERGO    R2 8965  10.904   7.150  10.145  0.0943  0.0438  0.0876
  658ERGO    R3 8966  11.001   7.042   9.915 -0.0399 -0.0867  0.0910
  658ERGO    R4 8967  10.819   7.255   9.827  0.1205  0.0451  0.0813
  658ERGO    R5 8968  10.814   7.046   9.765 -0.0655  0.0354  0.1268
  658ERGO    C1 8969  10.861   7.216   9.426  0.0099 -0.0767  0.0806
  658ERGO    C2 8970  10.791   7.206   9.020 -0.1054  0.1137  0.2248
  659ERGO   ROH 8971   1.646   9.485   6.422 -0.1089 -0.0385  0.1373
  659ERGO    R1 8972   1.827   9.536   6.633 -0.0912  0.0178  0.1089
  659ERGO    R2 8973   2.027   9.726   6.615 -0.0199 -0.0653 -0.0012
  659ERGO    R3 8974   1.914   9.820   6.844  0.0118  0.1101 -0.0562
  659ERGO    R4 8975   2.203   9.839   6.890  0.0184 -0.0800 -0.0198
  659ERGO    R5 8976   2.058   9.739   7.018 -0.0737  0.0774 -0.0011
  659ERGO    C1 8977   2.200   9.993   7.265  0.0704  0.0761 -0.0822
  659ERGO    C2 8978   2.212  10.065   7.534  0.1081  0.0026 -0.0154
  660ERGO   ROH 8979   7.374  13.856   6.720  0.0189 -0.0163  0.0123
  660ERGO    R1 8980   7.495  13.974   6.947 -0.0280 -0.0517  0.0556
  660ERGO    R2 8981   7.466  13.871   7.202  0.0053 -0.1515  0.0168
  660ERGO    R3 8982   7.738  13.873   7.199  0.0053 -0.0503  0.0256
  660ERGO    R4 8983   7.667  13.925   7.478 -0.0308  0.1514 -0.0127
  660ERGO    R5 8984   7.798  14.046   7.354 -0.0702  0.1029 -0.1090
  660ERGO    C1 8985   8.039  13.958   7.636 -0.0519  0.4227 -0.0215
  660ERGO    C2 8986   8.305  13.997   7.655  0.1394 -0.2408 -0.0046
  661ERGO   ROH 8987   5.768  15.139   5.955 -0.2459  0.1775 -0.0394
  661ERGO    R1 8988   5.602  15.003   6.140 -0.0934  0.0957  0.0411
  661ERGO    R2 8989   5.693  14.917   6.387  0.0542  0.1831  0.0270
  661ERGO    R3 8990   5.481  15.060   6.479 -0.0010  0.0686  0.0762
  661ERGO    R4 8991   5.569  14.902   6.709  0.1888  0.2028  0.0796
  661ERGO    R5 8992   5.367  14.910   6.627  0.1559  0.0466  0.1657
  661ERGO    C1 8993   5.298  15.027   6.983  0.2154  0.1069  0.1565
  661ERGO    C2 8994   5.190  15.123   7.378  0.1068  0.1862  0.1581
  662ERGO   ROH 8995  13.163   7.805  10.522  0.2319 -0.0298  0.1432
  662ERGO    R1 8996  13.280   7.781  10.266  0.1109  0.0841  0.0769
  662ERGO    R2 8997  13.167   7.630  10.064  0.1617 -0.0571  0.1564
  662ERGO    R3 8998  13.186   7.862   9.924 -0.1791 -0.0436  0.1226
  662ERGO    R4 8999  13.165   7.653   9.719  0.2572 -0.1300  0.1503
  662ERGO    R5 9000  13.320   7.806   9.733 -0.0022  0.1440  0.1850
  662ERGO    C1 9001  13.182   7.884   9.386 -0.0070 -0.1597  0.1149
  662ERGO    C2 9002  13.156   7.938   9.022  0.1783 -0.1091  0.0080
  663ERGO   ROH 9003  17.599  16.534   9.110  0.1191  0.1916  0.1352
  663ERGO    R1 9004  17.517  16.444   8.854  0.0945 -0.0588  0.2276
  663ERGO    R2 9005  17.391  16.610   8.671 -0.1352 -0.2956  0.1617
  663ERGO    R3 9006  17.592  16.528   8.508 -0.1237 -0.2216  0.1391
  663ERGO    R4 9007  17.355  16.531   8.337 -0.1131 -0.1653  0.1286
  663ERGO    R5 9008  17.491  16.364   8.366 -0.1078 -0.1697  0.0690
  663ERGO    C1 9009  17.522  16.408   7.989 -0.0894 -0.0202  0.0881
  663ERGO    C2 9010  17.327  16.315   7.699  0.2204 -0.0725 -0.0603
  664ERGO   ROH 9011  16.554   1.686   6.213  0.1703  0.0900 -0.1025
  664ERGO    R1 9012  16.542   1.765   6.484  0.0655  0.0798 -0.1036
  664ERGO    R2 9013  16.520   1.583   6.692 -0.0115  0.0759 -0.1122
  664ERGO    R3 9014  16.741   1.712   6.784 -0.0530  0.0721 -0.0291
  664ERGO    R4 9015  16.632   1.578   7.019 -0.1237  0.0667 -0.0748
  664ERGO    R5 9016  16.680   1.789   7.001 -0.1243  0.0591 -0.0497
  664ERGO    C1 9017  16.904   1.695   7.295 -0.2282  0.0578  0.0249
  664ERGO    C2 9018  17.219   1.725   7.483  0.0735 -0.0821 -0.0925
  665ERGO   ROH 9019  11.843  11.228   6.289 -0.0416  0.1238  0.1329
  665ERGO    R1 9020  11.802  11.038   6.495  0.1081 -0.0096  0.0416
  665ERGO    R2 9021  12.000  10.967   6.674  0.1565  0.0845  0.0271
  665ERGO    R3 9022  11.813  11.035   6.859  0.0756 -0.1669  0.0417
  665ERGO    R4 9023  12.029  10.911   7.013  0.1643 -0.0541  0.0045
  665ERGO    R5 9024  11.818  10.855   7.017  0.2120 -0.2391 -0.0440
  665ERGO    C1 9025  11.870  10.943   7.385  0.0931 -0.3707  0.0049
  665ERGO    C2 9026  11.836  10.944   7.693 -0.0111 -0.2050  0.0521
  666ERGO   ROH 9027  14.762  13.488   6.316 -0.0375  0.0541  0.0685
  666ERGO    R1 9028  14.979  13.449   6.494  0.0367  0.1639  0.0026
  666ERGO    R2 9029  15.183  13.633   6.523 -0.2408  0.4454  0.2083
  666ERGO    R3 9030  15.115  13.619   6.786 -0.2015  0.0191  0.2040
  666ERGO    R4 9031  15.407  13.584   6.781 -0.1439  0.4108  0.1197
  666ERGO    R5 9032  15.261  13.452   6.876  0.0360  0.0897 -0.0284
  666ERGO    C1 9033  15.473  13.543   7.179 -0.0505 -0.0095  0.0640
  666ERGO    C2 9034  15.522  13.482   7.446  0.1647 -0.0477 -0.1408
  667ERGO   ROH 9035   3.421  13.753   9.359  0.0396  0.0377  0.0902
  667ERGO    R1 9036   3.588  13.773   9.131 -0.0021 -0.0111  0.0553
  667ERGO    R2 9037   3.580  13.589   8.925 -0.1207  0.0083  0.0426
  667ERGO    R3 9038   3.541  13.810   8.772 -0.0652  0.0359  0.0680
  667ERGO    R4 9039   3.615  13.600   8.581 -0.2606 -0.0004  0.0278
  667ERGO    R5 9040   3.709  13.796   8.602 -0.1441 -0.0513 -0.0045
  667ERGO    C1 9041   3.598  13.814   8.237 -0.2899  0.0203  0.0429
  667ERGO    C2 9042   3.799  13.780   7.948  0.1872  0.0684  0.0700
  668ERGO   ROH 9043  15.089  14.245   5.968  0.0537  0.0150  0.0077
  668ERGO    R1 9044  15.208  14.254   6.225  0.1851 -0.1182 -0.0465
  668ERGO    R2 9045  15.059  14.278   6.456  0.3219  0.1761  0.0165
  668ERGO    R3 9046  15.195  14.054   6.529 -0.0057 -0.0343  0.0023
  668ERGO    R4 9047  15.121  14.183   6.782  0.6516  0.3665  0.0131
  668ERGO    R5 9048  15.322  14.122   6.721  0.4437 -0.0954 -0.2586
  668ERGO    C1 9049  15.285  13.917   7.041  0.5359  0.2799 -0.0021
  668ERGO    C2 9050  15.231  13.971   7.428  0.0275 -0.2450  0.1789
  669ERGO   ROH 9051   0.422   2.891   9.386 -0.1982 -0.0658 -0.0472
  669ERGO    R1 9052   0.472   2.894   9.107 -0.3160 -0.0883 -0.0700
  669ERGO    R2 9053   0.274   2.938   8.920 -0.3309  0.3064  0.0247
  669ERGO    R3 9054   0.442   3.133   8.835 -0.0197  0.0382  0.0051
  669ERGO    R4 9055   0.306   3.042   8.592 -0.2031  0.2647  0.0240
  669ERGO    R5 9056   0.521   3.056   8.623 -0.1730 -0.0863 -0.0063
  669ERGO    C1 9057   0.483   3.287   8.322  0.1634 -0.0114  0.0054
  669ERGO    C2 9058   0.451   3.465   7.945 -0.0308 -0.0351 -0.1340
  670ERGO   ROH 9059   3.191   2.328   8.800 -0.4094 -0.0194 -0.1869
  670ERGO    R1 9060   3.258   2.292   8.528 -0.1542 -0.0189 -0.1267
  670ERGO    R2 9061   3.067   2.277   8.328  0.0157 -0.2821 -0.2760
  670ERGO    R3 9062   3.213   2.478   8.218 -0.1165 -0.1484 -0.2105
  670ERGO    R4 9063   3.132   2.311   7.991  0.0811 -0.1843 -0.2540
  670ERGO    R5 9064   3.335   2.372   8.041  0.0181 -0.0257 -0.1915
  670ERGO    C1 9065   3.307   2.519   7.690 -0.0050 -0.0018 -0.1797
  670ERGO    C2 9066   3.099   2.711   7.565 -0.1219 -0.3000 -0.1141
  671ERGO   ROH 9067   3.923   3.675   5.867  0.1825  0.3223 -0.1444
  671ERGO    R1 9068   3.755   3.620   6.088  0.1379  0.1721 -0.2141
  671ERGO    R2 9069   3.847   3.499   6.319  0.1160  0.1127 -0.2348
  671ERGO    R3 9070   3.739   3.717   6.438  0.0019  0.0271 -0.1794
  671ERGO    R4 9071   3.750   3.516   6.650  0.2581  0.0348 -0.1881
  671ERGO    R5 9072   3.575   3.629   6.588  0.1411 -0.1006 -0.1022
  671ERGO    C1 9073   3.592   3.732   6.955  0.2337 -0.0908 -0.1090
  671ERGO    C2 9074   3.614   3.732   7.245  0.1215  0.2436  0.0612
  672ERGO   ROH 9075   7.443  12.826   6.202 -0.0647  0.0896  0.1444
  672ERGO    R1 9076   7.553  12.969   6.419 -0.0290  0.0468  0.1539
  672ERGO    R2 9077   7.464  12.939   6.679  0.0265 -0.0185  0.1648
  672ERGO    R3 9078   7.726  12.888   6.729  0.0408 -0.0131  0.0994
  672ERGO    R4 9079   7.601  12.898   6.993  0.0709 -0.2319  0.1199
  672ERGO    R5 9080   7.774  13.012   6.928  0.0437 -0.1543  0.1872
  672ERGO    C1 9081   7.927  12.826   7.223  0.1100 -0.3511  0.0325
  672ERGO    C2 9082   7.958  12.951   7.520  0.0507  0.4171  0.1997
  673ERGO   ROH 9083  11.804  13.284   6.449 -0.0043 -0.1839 -0.0078
  673ERGO    R1 9084  11.924  13.382   6.686 -0.1060 -0.1322  0.0226
  673ERGO    R2 9085  11.862  13.629   6.793 -0.1444 -0.1038 -0.0641
  673ERGO    R3 9086  11.810  13.484   7.016 -0.2498 -0.0488 -0.0513
  673ERGO    R4 9087  11.774  13.762   7.100  0.0424 -0.0089 -0.0501
  673ERGO    R5 9088  11.902  13.614   7.195 -0.0869 -0.1355 -0.0704
  673ERGO    C1 9089  11.675  13.702   7.488  0.0521  0.0981 -0.0299
  673ERGO    C2 9090  11.648  13.466   7.912 -0.1114  0.1118  0.1740
  674ERGO   ROH 9091   5.116   7.918   7.066 -0.4107 -0.1185 -0.0539
  674ERGO    R1 9092   5.009   7.899   7.328 -0.4707 -0.0836 -0.0765
  674ERGO    R2 9093   5.126   8.023   7.545 -0.1758 -0.5364  0.0311
  674ERGO    R3 9094   4.877   8.128   7.577  0.0605  0.0365  0.1097
  674ERGO    R4 9095   5.007   8.161   7.839  0.1474 -0.5203  0.1595
  674ERGO    R5 9096   4.815   8.065   7.800 -0.0975 -0.0322  0.0521
  674ERGO    C1 9097   4.704   8.340   8.040  0.5575  0.0269  0.3078
  674ERGO    C2 9098   4.453   8.523   8.236 -0.1291  0.0214 -0.0242
  675PSPI    C1 9099   8.481   8.127   6.331  0.4538 -0.2265 -0.4738
  675PSPI    C2 9100   8.126   8.024   6.180  0.0481  0.1224  0.1935
  675PSPI    C3 9101   8.346   8.304   5.999 -0.0515 -0.0304 -0.1748
  675PSPI   PO4 9102   8.443   8.104   6.547 -0.1119  0.0423  0.0134
  675PSPI   GL1 9103   8.568   7.870   6.821 -0.0059  0.0606  0.3443
  675PSPI   GL2 9104   8.464   8.125   7.041  0.0699 -0.2169 -0.2276
  675PSPI   C1A 9105   8.777   7.816   7.313  0.1990  0.2087  0.3538
  675PSPI   C2A 9106   8.721   7.859   7.698 -0.0985 -0.0087  0.0236
  675PSPI   C3A 9107   8.890   7.906   8.046 -0.0605 -0.0428 -0.0019
  675PSPI   C4A 9108   8.732   8.151   8.355  0.1660  0.1683 -0.2181
  675PSPI   C1B 9109   8.578   8.386   7.316  0.2377 -0.3980 -0.1838
  675PSPI   C2B 9110   8.624   8.368   7.720  0.0725  0.4828  0.1093
  675PSPI   C3B 9111   8.499   8.545   8.074  0.2934  0.1258 -0.0147
  675PSPI   C4B 9112   8.201   8.829   8.327 -0.0413 -0.1520 -0.2657
  676PSPI    C1 9113  11.854   0.716   5.896 -0.0542  0.0943 -0.3423
  676PSPI    C2 9114  11.847   1.116   5.877 -0.0051  0.1059 -0.1331
  676PSPI    C3 9115  11.969   0.903   5.561 -0.0210  0.2562 -0.2414
  676PSPI   PO4 9116  11.687   0.685   6.163  0.1324  0.3269 -0.0612
  676PSPI   GL1 9117  11.660   0.692   6.561 -0.1085 -0.2478  0.1444
  676PSPI   GL2 9118  11.346   0.825   6.571 -0.0443 -0.0194 -0.1858
  676PSPI   C1A 9119  11.789   0.783   6.944  0.2926  0.1736 -0.1855
  676PSPI   C2A 9120  11.813   0.716   7.411 -0.0606 -0.1362 -0.0565
  676PSPI   C3A 9121  11.723   0.797   7.810  0.3111 -0.1129  0.2170
  676PSPI   C4A 9122  11.730   1.047   8.266 -0.0700  0.0130 -0.0978
  676PSPI   C1B 9123  11.323   0.699   7.057  0.4749 -0.2019 -0.0885
  676PSPI   C2B 9124  11.373   0.532   7.540  0.0707  0.2486 -0.3114
  676PSPI   C3B 9125  11.496   0.192   7.821 -0.1063  0.1696 -0.0987
  676PSPI   C4B 9126  11.510   0.016   8.208  0.1436  0.0104  0.2753
  677PSPI    C1 9127  13.559  17.255   6.002 -0.1185 -0.0879  0.0351
  677PSPI    C2 9128  13.608  17.183   5.612 -0.1206  0.0236  0.0137
  677PSPI    C3 9129  13.271  17.354   5.743  0.0215  0.3020  0.0219
  677PSPI   PO4 9130  13.821  17.358   6.023 -0.4491 -0.3552  0.1929
  677PSPI   GL1 9131  14.102  17.162   6.250  0.1869  0.0059 -0.1013
  677PSPI   GL2 9132  14.180  16.891   6.261 -0.0108  0.0228 -0.0528
  677PSPI   C1A 9133  14.093  17.359   6.579  0.3021  0.0203  0.0305
  677PSPI   C2A 9134  14.369  17.554   6.906 -0.0342 -0.0804  0.0215
  677PSPI   C3A 9135  14.806  17.684   6.904  0.0948 -0.0152 -0.1769
  677PSPI   C4A 9136  15.295  17.759   6.868  0.3051  0.3443 -0.4586
  677PSPI   C1B 9137  14.166  16.840   6.681  0.2402 -0.0432 -0.0105
  677PSPI   C2B 9138  14.170  17.029   7.031 -0.1727  0.1292  0.0109
  677PSPI   C3B 9139  14.328  16.767   7.439  0.0547 -0.0370 -0.0149
  677PSPI   C4B 9140  14.408  16.787   7.869 -0.1858  0.2776 -0.0399
  678PSPI    C1 9141   8.484   4.464   5.916  0.0796 -0.0962 -0.0476
  678PSPI    C2 9142   8.123   4.326   5.810  0.0720 -0.0830 -0.0391
  678PSPI    C3 9143   8.448   4.100   5.754  0.0548 -0.1211  0.0135
  678PSPI   PO4 9144   8.488   4.540   6.166 -0.0948 -0.1451 -0.0612
  678PSPI   GL1 9145   8.345   4.788   6.499 -0.0257 -0.1183 -0.1698
  678PSPI   GL2 9146   8.473   4.667   6.733  0.0018  0.0497 -0.1058
  678PSPI   C1A 9147   8.183   5.108   6.813 -0.2947  0.3226 -0.3080
  678PSPI   C2A 9148   8.236   5.253   7.323  0.1058 -0.4216 -0.2848
  678PSPI   C3A 9149   8.099   5.105   7.776 -0.4507  0.0417 -0.2522
  678PSPI   C4A 9150   7.916   4.749   7.928 -0.0070 -0.1985  0.2947
  678PSPI   C1B 9151   8.256   4.697   7.125 -0.0292  0.1712  0.0506
  678PSPI   C2B 9152   7.828   4.507   7.313  0.2532 -0.2376 -0.1460
  678PSPI   C3B 9153   7.765   4.322   7.718 -0.1939  0.0020  0.2169
  678PSPI   C4B 9154   8.006   4.317   8.206  0.3605 -0.1950 -0.0305
  679PSPI    C1 9155   7.524   7.724   6.166 -0.3259 -0.2440  0.0570
  679PSPI    C2 9156   7.865   7.584   6.010 -0.2003 -0.0154  0.1209
  679PSPI    C3 9157   7.536   7.357   6.009 -0.0113 -0.2943  0.1906
  679PSPI   PO4 9158   7.534   7.787   6.347  0.0483 -0.3350  0.0002
  679PSPI   GL1 9159   7.475   7.708   6.822  0.1618 -0.0052 -0.1607
  679PSPI   GL2 9160   7.571   8.051   7.030  0.0419 -0.1076 -0.3458
  679PSPI   C1A 9161   7.260   7.718   7.364  0.0025  0.0518  0.0024
  679PSPI   C2A 9162   7.369   7.547   7.847  0.0201  0.3806  0.2260
  679PSPI   C3A 9163   7.380   7.410   8.268  0.1167  0.1753 -0.1460
  679PSPI   C4A 9164   7.313   7.449   8.708  0.2793 -0.0569  0.1410
  679PSPI   C1B 9165   7.713   7.762   7.302 -0.1094  0.0243  0.1150
  679PSPI   C2B 9166   7.639   7.382   7.450 -0.2883 -0.0017 -0.0895
  679PSPI   C3B 9167   7.489   7.079   7.786  0.1200  0.0788 -0.1525
  679PSPI   C4B 9168   7.305   6.886   8.198 -0.1164  0.1960 -0.0258
  680PSPI    C1 9169  15.186   3.297   6.088 -0.0093  0.0821  0.2309
  680PSPI    C2 9170  15.059   3.079   5.777 -0.1053 -0.0250  0.3445
  680PSPI    C3 9171  14.984   3.472   5.790  0.0810  0.0197  0.1321
  680PSPI   PO4 9172  15.074   3.169   6.327  0.0296 -0.1326  0.5487
  680PSPI   GL1 9173  15.149   3.067   6.738 -0.2225  0.0787  0.0466
  680PSPI   GL2 9174  14.980   3.306   6.847  0.1575  0.3606  0.1491
  680PSPI   C1A 9175  15.045   2.914   7.150 -0.1913  0.2346 -0.0996
  680PSPI   C2A 9176  14.721   2.739   7.501 -0.1062 -0.0467  0.0161
  680PSPI   C3A 9177  14.682   2.405   7.761 -0.1053 -0.2457  0.0893
  680PSPI   C4A 9178  14.366   2.171   7.914 -0.1975  0.0100 -0.0861
  680PSPI   C1B 9179  15.349   3.423   7.098  0.0883  0.0170  0.0691
  680PSPI   C2B 9180  15.321   3.284   7.443 -0.0356  0.5092  0.0976
  680PSPI   C3B 9181  15.425   3.233   7.912  0.3811  0.2571 -0.2630
  680PSPI   C4B 9182  15.457   2.979   8.264  0.0821  0.0367 -0.2941
  681PSPI    C1 9183  12.807  14.636   5.614 -0.0258  0.0372  0.0191
  681PSPI    C2 9184  12.910  14.349   5.355 -0.1868  0.2434 -0.2801
  681PSPI    C3 9185  13.132  14.681   5.384 -0.0757  0.1503 -0.0297
  681PSPI   PO4 9186  12.812  14.562   5.857 -0.2523  0.1789 -0.4602
  681PSPI   GL1 9187  12.926  14.860   6.092  0.2156  0.0575 -0.2270
  681PSPI   GL2 9188  13.189  14.761   6.136  0.2173 -0.1903  0.0554
  681PSPI   C1A 9189  12.926  15.208   6.479  0.1561 -0.1084  0.0009
  681PSPI   C2A 9190  12.703  15.702   6.630  0.0824  0.1416 -0.1083
  681PSPI   C3A 9191  12.587  16.131   6.830 -0.3445 -0.2805 -0.2122
  681PSPI   C4A 9192  12.763  16.545   6.969 -0.0630  0.1705  0.2006
  681PSPI   C1B 9193  13.146  14.801   6.582 -0.4384  0.0674  0.1943
  681PSPI   C2B 9194  13.065  14.806   6.974 -0.0001  0.3166  0.2224
  681PSPI   C3B 9195  13.237  14.897   7.351 -0.2811 -0.2806 -0.0967
  681PSPI   C4B 9196  13.626  14.896   7.458 -0.0674  0.1193 -0.2667
  682PSPI    C1 9197   3.052  11.972   5.857 -0.1707  0.4185  0.1778
  682PSPI    C2 9198   3.368  12.132   6.042  0.0378  0.1739  0.0399
  682PSPI    C3 9199   3.404  11.994   5.668 -0.1768 -0.0499  0.0994
  682PSPI   PO4 9200   3.021  11.797   6.085 -0.1846  0.1512  0.0638
  682PSPI   GL1 9201   3.092  12.022   6.432  0.0397 -0.0042 -0.1707
  682PSPI   GL2 9202   3.429  11.924   6.572  0.0692 -0.0672  0.0926
  682PSPI   C1A 9203   3.076  11.936   6.881  0.0637 -0.3929 -0.1443
  682PSPI   C2A 9204   2.732  11.841   7.191 -0.0056 -0.3079  0.0043
  682PSPI   C3A 9205   2.524  11.434   7.252 -0.1649  0.0215  0.2735
  682PSPI   C4A 9206   2.074  11.382   7.393  0.2551 -0.0971 -0.1707
  682PSPI   C1B 9207   3.548  11.945   7.000  0.0147 -0.2383  0.0736
  682PSPI   C2B 9208   3.312  11.920   7.314 -0.2278  0.0429 -0.2643
  682PSPI   C3B 9209   3.013  11.678   7.588  0.0151 -0.3424 -0.1503
  682PSPI   C4B 9210   2.772  11.303   7.760  0.0476  0.0488 -0.0233
  683PSPI    C1 9211   0.981  13.471   5.461 -0.1460  0.0167  0.1400
  683PSPI    C2 9212   0.710  13.184   5.526 -0.0193 -0.1682 -0.1296
  683PSPI    C3 9213   0.638  13.469   5.255 -0.1167  0.0208  0.0911
  683PSPI   PO4 9214   1.082  13.498   5.697 -0.0821 -0.0059 -0.0783
  683PSPI   GL1 9215   0.897  13.276   6.035 -0.1567 -0.0117  0.2693
  683PSPI   GL2 9216   0.673  13.335   6.226  0.2230  0.0809 -0.2348
  683PSPI   C1A 9217   1.253  13.215   6.320 -0.0314  0.0812 -0.3117
  683PSPI   C2A 9218   1.530  13.043   6.224 -0.1147 -0.1612  0.1297
  683PSPI   C3A 9219   1.613  12.941   6.618 -0.1437 -0.1266  0.0030
  683PSPI   C4A 9220   1.623  12.721   7.091 -0.0027  0.1075 -0.1356
  683PSPI   C1B 9221   0.935  13.459   6.625  0.2811 -0.0767  0.1138
  683PSPI   C2B 9222   0.965  13.436   7.030 -0.1156 -0.1287  0.2217
  683PSPI   C3B 9223   1.007  13.195   7.359  0.1746  0.0700 -0.0643
  683PSPI   C4B 9224   1.395  12.993   7.458 -0.1925 -0.1152 -0.0216
  684PSPI    C1 9225  17.159   9.872   5.864 -0.1516 -0.1867 -0.1834
  684PSPI    C2 9226  17.108  10.222   6.052  0.0409 -0.2474 -0.0140
  684PSPI    C3 9227  16.845  10.103   5.775 -0.1891 -0.1073  0.1409
  684PSPI   PO4 9228  17.463   9.776   6.010  0.0902 -0.0841  0.2073
  684PSPI   GL1 9229  17.702   9.931   6.324 -0.0670  0.4236 -0.0956
  684PSPI   GL2 9230  17.754  10.214   6.109  0.0289 -0.2286 -0.1510
  684PSPI   C1A 9231  17.620   9.903   6.778 -0.1111  0.1157  0.3616
  684PSPI   C2A 9232  17.577   9.970   7.201  0.2164 -0.1876 -0.0325
  684PSPI   C3A 9233  17.620  10.201   7.570  0.0554  0.0543 -0.0336
  684PSPI   C4A 9234  17.517  10.332   7.958 -0.2786 -0.1349  0.2482
  684PSPI   C1B 9235  17.825  10.356   6.567 -0.2023  0.0464 -0.1299
  684PSPI   C2B 9236  18.130  10.494   6.849  0.3621  0.0086  0.1788
  684PSPI   C3B 9237  18.459  10.633   7.075  0.0311 -0.2480 -0.0831
  684PSPI   C4B 9238  18.519  10.536   7.521 -0.1117  0.0534 -0.0577
  685PSPI    C1 9239   6.273   2.268   5.308  0.1825  0.0306 -0.0083
  685PSPI    C2 9240   5.947   2.455   5.170  0.3401  0.3995  0.1072
  685PSPI    C3 9241   6.205   2.287   4.914  0.0059  0.0035  0.0197
  685PSPI   PO4 9242   6.248   2.181   5.565  0.2242  0.0868  0.1312
  685PSPI   GL1 9243   5.922   1.976   5.761 -0.2489 -0.0869  0.2758
  685PSPI   GL2 9244   5.659   1.955   5.875 -0.0769  0.0731 -0.2478
  685PSPI   C1A 9245   5.781   2.200   6.224 -0.2720 -0.3350 -0.0525
  685PSPI   C2A 9246   5.827   2.396   6.528  0.0399 -0.0013  0.0606
  685PSPI   C3A 9247   5.602   2.332   6.902  0.0078 -0.2044  0.0956
  685PSPI   C4A 9248   5.308   2.503   7.345 -0.3462 -0.0298 -0.0395
  685PSPI   C1B 9249   5.269   1.782   6.101 -0.1568  0.1199 -0.3370
  685PSPI   C2B 9250   5.138   1.807   6.526  0.2613  0.1044 -0.2527
  685PSPI   C3B 9251   5.206   2.070   6.910  0.1340  0.3407 -0.2241
  685PSPI   C4B 9252   5.090   2.068   7.392 -0.0798  0.0030  0.1960
  686PSPI    C1 9253   9.755   5.869   6.256  0.3083  0.0439  0.2692
  686PSPI    C2 9254   9.903   5.789   5.893  0.0132 -0.0132  0.1582
  686PSPI    C3 9255  10.139   5.767   6.215  0.3176  0.1918 -0.0455
  686PSPI   PO4 9256   9.564   6.130   6.247  0.1762  0.3081  0.0435
  686PSPI   GL1 9257   9.132   6.082   6.460  0.0919 -0.1224 -0.2794
  686PSPI   GL2 9258   9.300   6.089   6.705 -0.2158 -0.0683 -0.2084
  686PSPI   C1A 9259   8.850   5.856   6.751 -0.2555  0.0173  0.1473
  686PSPI   C2A 9260   8.647   5.932   7.036  0.0662 -0.0440  0.1928
  686PSPI   C3A 9261   8.743   5.936   7.486 -0.0264 -0.0190 -0.2192
  686PSPI   C4A 9262   8.672   6.085   7.843 -0.5356 -0.1351  0.0438
  686PSPI   C1B 9263   9.370   6.145   7.093 -0.1712 -0.1339 -0.2046
  686PSPI   C2B 9264   9.241   6.066   7.600  0.0233 -0.0441  0.2512
  686PSPI   C3B 9265   9.146   5.758   8.013  0.0974 -0.4107 -0.0383
  686PSPI   C4B 9266   9.471   5.403   8.178  0.0567  0.0341  0.0667
  687PSPI    C1 9267   5.599   9.182   6.316 -0.1715 -0.1907  0.1814
  687PSPI    C2 9268   5.360   9.366   6.054  0.2332  0.0592 -0.0222
  687PSPI    C3 9269   5.415   8.971   6.030  0.0717  0.0435 -0.1552
  687PSPI   PO4 9270   5.912   9.248   6.344 -0.0018 -0.1247 -0.0981
  687PSPI   GL1 9271   6.327   9.258   6.546 -0.2665 -0.0219 -0.2956
  687PSPI   GL2 9272   6.255   8.947   6.667  0.3184  0.2002  0.0426
  687PSPI   C1A 9273   6.525   9.240   7.054  0.0549 -0.2891 -0.1483
  687PSPI   C2A 9274   6.582   9.199   7.528 -0.0820 -0.2194 -0.2077
  687PSPI   C3A 9275   6.626   9.007   7.863 -0.1312 -0.1756 -0.2202
  687PSPI   C4A 9276   6.492   9.217   8.249  0.0684 -0.0146  0.1048
  687PSPI   C1B 9277   6.053   9.037   7.033  0.0026 -0.1637  0.0386
  687PSPI   C2B 9278   6.064   9.018   7.441  0.0569 -0.2875  0.0244
  687PSPI   C3B 9279   6.181   8.889   7.872 -0.1766 -0.1355  0.1903
  687PSPI   C4B 9280   6.473   8.553   8.015 -0.1700  0.0193 -0.1309
  688PSPI    C1 9281   7.486  13.120   5.789 -0.0334 -0.2113 -0.0831
  688PSPI    C2 9282   7.271  13.262   6.095  0.2622  0.0519  0.0083
  688PSPI    C3 9283   7.107  13.235   5.731 -0.1460 -0.4181  0.2144
  688PSPI   PO4 9284   7.754  13.246   5.842  0.1708 -0.0568 -0.1598
  688PSPI   GL1 9285   7.816  13.534   6.094 -0.0989  0.1432  0.0102
  688PSPI   GL2 9286   7.628  13.518   6.411 -0.0345  0.1570 -0.1611
  688PSPI   C1A 9287   8.084  13.250   6.467 -0.1377  0.0475 -0.0366
  688PSPI   C2A 9288   8.256  12.920   6.793  0.2490 -0.1383 -0.1333
  688PSPI   C3A 9289   8.480  13.019   7.127  0.1919  0.0146 -0.1539
  688PSPI   C4A 9290   8.408  13.175   7.529 -0.0323 -0.2743 -0.0209
  688PSPI   C1B 9291   7.539  13.408   6.797 -0.0443  0.0749  0.1347
  688PSPI   C2B 9292   7.392  13.416   7.136 -0.3333  0.2220 -0.0179
  688PSPI   C3B 9293   7.546  13.387   7.533  0.0044  0.1675  0.3209
  688PSPI   C4B 9294   7.737  13.578   7.848  0.0535 -0.0934  0.2714
  689PSPI    C1 9295   8.828  11.771   5.854 -0.0711 -0.1960 -0.1588
  689PSPI    C2 9296   8.769  11.885   5.475 -0.1379  0.1353 -0.0515
  689PSPI    C3 9297   8.487  11.677   5.667 -0.1651  0.0932 -0.1369
  689PSPI   PO4 9298   9.007  12.065   5.928 -0.1312  0.0050  0.0892
  689PSPI   GL1 9299   8.987  12.477   6.105  0.0568 -0.1973  0.1404
  689PSPI   GL2 9300   8.787  12.272   6.328  0.1109  0.2751 -0.1883
  689PSPI   C1A 9301   9.283  12.432   6.475 -0.1625  0.2587 -0.0802
  689PSPI   C2A 9302   9.391  12.276   6.849  0.1523 -0.4053  0.0393
  689PSPI   C3A 9303   9.403  12.279   7.278  0.1050  0.1922 -0.0160
  689PSPI   C4A 9304   9.322  12.416   7.626  0.2074 -0.0415 -0.2476
  689PSPI   C1B 9305   8.416  12.282   6.493  0.0218 -0.4306 -0.0558
  689PSPI   C2B 9306   8.183  12.424   6.765 -0.0202  0.1211 -0.3248
  689PSPI   C3B 9307   7.852  12.420   6.978  0.1858 -0.0545 -0.0818
  689PSPI   C4B 9308   7.388  12.375   6.992 -0.0571  0.1304  0.0830
  690PSPI    C1 9309   1.259   5.773   5.621 -0.2232  0.2728  0.0859
  690PSPI    C2 9310   1.198   5.403   5.759 -0.0969  0.1910 -0.0746
  690PSPI    C3 9311   1.249   5.464   5.367 -0.0266  0.3672 -0.0389
  690PSPI   PO4 9312   1.151   5.997   5.943  0.2537  0.0037 -0.3522
  690PSPI   GL1 9313   1.136   5.845   6.363  0.2307 -0.1107  0.0408
  690PSPI   GL2 9314   1.171   5.519   6.237  0.0430  0.1098  0.0599
  690PSPI   C1A 9315   0.907   5.815   6.691 -0.1735  0.0482  0.0281
  690PSPI   C2A 9316   1.044   5.774   7.200  0.1153 -0.1449 -0.5446
  690PSPI   C3A 9317   1.351   5.892   7.607 -0.1508  0.0086  0.0256
  690PSPI   C4A 9318   1.847   6.032   7.648  0.3165 -0.1848 -0.3988
  690PSPI   C1B 9319   1.466   5.423   6.523  0.3628  0.0931  0.0236
  690PSPI   C2B 9320   1.608   5.756   6.836 -0.1269 -0.1481 -0.2180
  690PSPI   C3B 9321   1.667   5.937   7.212 -0.2035  0.1278 -0.2009
  690PSPI   C4B 9322   2.027   6.091   7.151 -0.0829 -0.3318  0.1224
  691PSPI    C1 9323   3.496  13.552   5.302 -0.2133 -0.0897  0.1764
  691PSPI    C2 9324   3.246  13.521   4.991  0.0055  0.2641 -0.0414
  691PSPI    C3 9325   3.607  13.350   4.975 -0.0610  0.1066  0.1050
  691PSPI   PO4 9326   3.378  13.495   5.509 -0.1823 -0.2367  0.3174
  691PSPI   GL1 9327   3.560  13.564   5.909  0.2265  0.1258 -0.1020
  691PSPI   GL2 9328   3.813  13.670   5.759 -0.0618  0.0423  0.0517
  691PSPI   C1A 9329   3.369  13.373   6.300  0.4284 -0.1082 -0.2829
  691PSPI   C2A 9330   3.441  13.416   6.679  0.0234  0.0528  0.1446
  691PSPI   C3A 9331   3.535  13.518   7.020  0.1839  0.0851  0.0274
  691PSPI   C4A 9332   3.308  13.502   7.286 -0.3592 -0.1198  0.0541
  691PSPI   C1B 9333   3.796  13.793   6.274  0.1456 -0.0325 -0.0047
  691PSPI   C2B 9334   3.727  13.865   6.679  0.0541 -0.2153  0.1476
  691PSPI   C3B 9335   3.821  13.969   7.051 -0.0115 -0.2672  0.0507
  691PSPI   C4B 9336   3.729  13.784   7.401 -0.1207  0.3690 -0.2757
  692PSPI    C1 9337   6.630  14.596   5.737  0.1934 -0.1583  0.0751
  692PSPI    C2 9338   6.940  14.397   5.580  0.2048  0.0058 -0.1141
  692PSPI    C3 9339   6.860  14.771   5.461 -0.1013 -0.0556 -0.1107
  692PSPI   PO4 9340   6.683  14.585   6.041 -0.0250  0.3293  0.1331
  692PSPI   GL1 9341   7.022  14.475   6.117 -0.0921 -0.0792 -0.1687
  692PSPI   GL2 9342   6.887  14.243   6.281 -0.2498 -0.2717  0.0316
  692PSPI   C1A 9343   7.272  14.371   6.502 -0.2688 -0.0121  0.0808
  692PSPI   C2A 9344   7.432  14.464   6.812  0.0802  0.2255 -0.0173
  692PSPI   C3A 9345   7.647  14.487   7.181 -0.0982 -0.2759 -0.0451
  692PSPI   C4A 9346   7.600  14.737   7.528 -0.3397  0.1286  0.0525
  692PSPI   C1B 9347   6.848  14.042   6.631  0.3363 -0.1775 -0.0362
  692PSPI   C2B 9348   7.006  14.181   6.990  0.3152  0.3760 -0.1737
  692PSPI   C3B 9349   7.197  14.339   7.301 -0.0956 -0.1033  0.0537
  692PSPI   C4B 9350   7.488  14.298   7.711 -0.2369  0.0237 -0.1869
  693PSPI    C1 9351   1.023   7.439   5.547  0.0763 -0.0448 -0.0337
  693PSPI    C2 9352   1.068   7.824   5.448 -0.2766  0.0518  0.1638
  693PSPI    C3 9353   0.881   7.574   5.198 -0.0116 -0.0043  0.0174
  693PSPI   PO4 9354   0.914   7.449   5.801 -0.2169 -0.1211 -0.1321
  693PSPI   GL1 9355   0.952   7.222   6.127 -0.1297 -0.1147 -0.1271
  693PSPI   GL2 9356   1.125   7.505   6.228  0.2168  0.1248  0.2181
  693PSPI   C1A 9357   0.563   7.131   6.366  0.3447 -0.2640 -0.1534
  693PSPI   C2A 9358   0.342   7.044   6.826  0.1397  0.0821  0.2774
  693PSPI   C3A 9359   0.107   7.424   6.957 -0.0414  0.1811  0.0368
  693PSPI   C4A 9360   0.088   7.765   7.169  0.2936  0.0681 -0.2325
  693PSPI   C1B 9361   0.841   7.541   6.553  0.1593 -0.0139 -0.0317
  693PSPI   C2B 9362   0.448   7.592   6.664  0.1884 -0.0994  0.0112
  693PSPI   C3B 9363   0.130   7.886   6.722  0.2204  0.4644  0.3205
  693PSPI   C4B 9364  -0.264   8.113   6.808  0.3196  0.2194  0.0553
  694PSPI    C1 9365  14.007   5.380   6.154 -0.0412 -0.1327  0.1634
  694PSPI    C2 9366  14.259   5.565   5.904 -0.4178  0.2240  0.0351
  694PSPI    C3 9367  14.174   5.177   5.854 -0.1461  0.1819 -0.1144
  694PSPI   PO4 9368  14.114   5.417   6.407  0.1931  0.0899 -0.0966
  694PSPI   GL1 9369  13.791   5.251   6.670 -0.0591 -0.4015  0.2182
  694PSPI   GL2 9370  13.934   5.003   6.684  0.1268  0.0078  0.0039
  694PSPI   C1A 9371  13.663   5.158   7.088 -0.2547 -0.1119 -0.1870
  694PSPI   C2A 9372  13.469   5.176   7.439  0.4726  0.1771 -0.2563
  694PSPI   C3A 9373  13.387   4.963   7.896 -0.0095 -0.0949 -0.1457
  694PSPI   C4A 9374  13.223   4.780   8.370  0.2893 -0.0541  0.3134
  694PSPI   C1B 9375  14.185   5.245   6.992  0.0655  0.1432 -0.2030
  694PSPI   C2B 9376  13.982   5.358   7.517  0.3765 -0.2455 -0.1216
  694PSPI   C3B 9377  13.831   5.382   7.899  0.1460  0.1790 -0.2029
  694PSPI   C4B 9378  13.814   5.077   8.269 -0.0224 -0.0550  0.2310
  695POPI    C1 9379   9.818   2.217   5.679 -0.0858  0.1718 -0.0784
  695POPI    C2 9380   9.939   1.969   5.389 -0.1792  0.1260 -0.0787
  695POPI    C3 9381  10.163   2.285   5.489 -0.1345  0.1279 -0.1838
  695POPI   PO4 9382   9.683   1.985   5.891 -0.0064 -0.2101 -0.0481
  695POPI   GL1 9383   9.736   1.876   6.286  0.1992 -0.3824 -0.0902
  695POPI   GL2 9384   9.701   1.517   6.357  0.3674  0.0902 -0.1582
  695POPI   C1A 9385   9.738   1.921   6.743 -0.0088  0.0232  0.1396
  695POPI   D2A 9386   9.788   1.807   7.204  0.0420 -0.2589  0.0536
  695POPI   C3A 9387   9.395   1.807   7.411  0.0187  0.0409 -0.0763
  695POPI   C4A 9388   9.308   1.993   7.764  0.0835 -0.2230  0.1548
  695POPI   C1B 9389   9.834   1.465   6.793 -0.3003  0.0783  0.0192
  695POPI   C2B 9390   9.669   1.290   7.188  0.0019  0.1003 -0.2242
  695POPI   C3B 9391   9.582   1.326   7.594  0.3370  0.0540  0.1642
  695POPI   C4B 9392   9.616   1.622   7.862  0.0901  0.1591 -0.1070
  696POPI    C1 9393  10.867  15.890   5.843  0.4457  0.2098 -0.0861
  696POPI    C2 9394  10.866  16.193   5.582  0.2310  0.2751 -0.0114
  696POPI    C3 9395  10.948  15.822   5.457 -0.0211  0.2819 -0.2025
  696POPI   PO4 9396  10.900  16.030   6.103  0.3942  0.2604 -0.0150
  696POPI   GL1 9397  10.999  15.852   6.458  0.1553  0.0754  0.1384
  696POPI   GL2 9398  11.108  15.504   6.425 -0.0839 -0.0341 -0.0280
  696POPI   C1A 9399  10.951  15.891   6.981  0.2809 -0.2311 -0.1911
  696POPI   D2A 9400  10.691  15.710   7.142  0.0684 -0.0516  0.0963
  696POPI   C3A 9401  10.469  15.967   7.431 -0.2938  0.1265  0.0143
  696POPI   C4A 9402  10.516  16.227   7.783  0.0104  0.1511  0.3313
  696POPI   C1B 9403  11.067  15.443   6.844 -0.1886 -0.3983 -0.1943
  696POPI   C2B 9404  11.118  15.363   7.323 -0.3336 -0.2784 -0.1355
  696POPI   C3B 9405  11.249  15.119   7.454  0.2304 -0.1525  0.1043
  696POPI   C4B 9406  11.106  14.894   7.384 -0.2024 -0.1298  0.0262
  697POPI    C1 9407   5.787   6.644   5.918  0.0548 -0.0002  0.0884
  697POPI    C2 9408   5.723   6.300   5.724 -0.4302  0.0043  0.2269
  697POPI    C3 9409   5.745   6.643   5.520  0.1989 -0.1139  0.0725
  697POPI   PO4 9410   5.647   6.411   6.203 -0.1303 -0.1498 -0.4001
  697POPI   GL1 9411   5.650   6.464   6.650  0.1889 -0.4156 -0.2419
  697POPI   GL2 9412   5.751   6.655   6.924  0.2639 -0.1902  0.0935
  697POPI   C1A 9413   5.268   6.365   6.729 -0.1323  0.0515 -0.2597
  697POPI   D2A 9414   4.954   6.070   6.764 -0.1471  0.2965 -0.2516
  697POPI   C3A 9415   4.868   6.103   7.264  0.2420  0.3312 -0.0786
  697POPI   C4A 9416   5.036   6.047   7.696  0.3800 -0.0766  0.0930
  697POPI   C1B 9417   6.051   6.788   7.221  0.0792 -0.2405 -0.0520
  697POPI   C2B 9418   5.983   6.926   7.681 -0.2476 -0.0585  0.0802
  697POPI   C3B 9419   5.894   7.013   8.112 -0.0713  0.0649 -0.1094
  697POPI   C4B 9420   5.559   7.325   8.160 -0.2045 -0.1310 -0.2951
  698POPI    C1 9421  13.611  10.102   5.827  0.0975  0.0514 -0.0201
  698POPI    C2 9422  13.912  10.337   5.947  0.1623 -0.2507  0.4365
  698POPI    C3 9423  13.940  10.136   5.602  0.0651  0.4675 -0.0126
  698POPI   PO4 9424  13.479  10.027   6.056 -0.2360 -0.2929 -0.0330
  698POPI   GL1 9425  13.340   9.821   6.352  0.0899  0.0875 -0.0458
  698POPI   GL2 9426  13.690   9.892   6.562  0.5393  0.0138  0.0438
  698POPI   C1A 9427  13.061  10.165   6.621  0.2564  0.2699 -0.1682
  698POPI   D2A 9428  12.771  10.371   6.815 -0.0284  0.1795  0.2978
  698POPI   C3A 9429  12.836  10.484   7.204  0.0869  0.0621 -0.2869
  698POPI   C4A 9430  13.041  10.739   7.522  0.0421 -0.1707  0.1725
  698POPI   C1B 9431  13.467  10.082   6.891  0.0589  0.0141 -0.2337
  698POPI   C2B 9432  13.633  10.052   7.296  0.5348  0.1204  0.0976
  698POPI   C3B 9433  13.973  10.211   7.563  0.0666 -0.3345 -0.2513
  698POPI   C4B 9434  14.244  10.042   7.864 -0.1256  0.3434  0.4004
  699POPI    C1 9435   6.946   7.822   6.079 -0.0919 -0.0343  0.1832
  699POPI    C2 9436   6.576   7.669   6.087 -0.1549  0.1038 -0.0042
  699POPI    C3 9437   6.664   7.966   5.833  0.0823  0.0797  0.0474
  699POPI   PO4 9438   6.983   7.769   6.333  0.2488 -0.1105 -0.2461
  699POPI   GL1 9439   6.698   7.962   6.838 -0.1024 -0.0327  0.4735
  699POPI   GL2 9440   6.941   7.669   7.008  0.0226  0.1050 -0.0011
  699POPI   C1A 9441   6.684   8.274   7.142  0.0872 -0.1629  0.0704
  699POPI   D2A 9442   6.789   8.408   7.468 -0.1705  0.0004  0.1217
  699POPI   C3A 9443   7.148   8.356   7.640 -0.2475 -0.1172 -0.0860
  699POPI   C4A 9444   7.533   8.621   7.817 -0.0958  0.1015 -0.4073
  699POPI   C1B 9445   6.862   7.426   7.278  0.0708  0.0454  0.0251
  699POPI   C2B 9446   6.947   7.369   7.626  0.0328  0.0697  0.1558
  699POPI   C3B 9447   6.944   7.205   8.048 -0.0934 -0.0139  0.1079
  699POPI   C4B 9448   6.908   7.193   8.380 -0.1674 -0.0255  0.1936
  700POPI    C1 9449  15.089   4.010   5.795 -0.0783  0.2899  0.0490
  700POPI    C2 9450  15.443   4.145   5.668 -0.0857  0.1808 -0.0901
  700POPI    C3 9451  15.343   3.763   5.609 -0.2123  0.2026 -0.0194
  700POPI   PO4 9452  15.035   4.156   6.189 -0.0582  0.5930  0.1826
  700POPI   GL1 9453  15.378   4.063   6.568  0.1541 -0.0909  0.0776
  700POPI   GL2 9454  15.634   4.232   6.673  0.0003  0.0020  0.1641
  700POPI   C1A 9455  15.355   4.010   7.032  0.0165 -0.0421 -0.1577
  700POPI   D2A 9456  15.325   3.814   7.375 -0.3216  0.1542 -0.2724
  700POPI   C3A 9457  14.983   3.982   7.535  0.1233  0.0795 -0.3119
  700POPI   C4A 9458  14.472   3.925   7.581  0.1217 -0.1156 -0.1573
  700POPI   C1B 9459  15.802   4.139   7.216 -0.2522 -0.2267 -0.1939
  700POPI   C2B 9460  15.893   4.133   7.632 -0.1242 -0.2084 -0.3210
  700POPI   C3B 9461  16.081   4.503   7.785 -0.1301  0.0888 -0.1170
  700POPI   C4B 9462  16.002   4.831   8.022 -0.3142  0.2832 -0.0822
  701POPI    C1 9463  16.539   6.233   6.180  0.0024  0.1969  0.0001
  701POPI    C2 9464  16.266   6.270   5.890 -0.0314 -0.0735 -0.0046
  701POPI    C3 9465  16.631   6.129   5.805  0.0698  0.1663  0.0249
  701POPI   PO4 9466  16.451   6.441   6.338  0.0772 -0.2459  0.0559
  701POPI   GL1 9467  16.381   6.639   6.693 -0.4128  0.2608 -0.1231
  701POPI   GL2 9468  16.176   6.362   6.707  0.0645 -0.1218 -0.3660
  701POPI   C1A 9469  16.252   6.768   7.080 -0.0907 -0.0620 -0.0732
  701POPI   D2A 9470  16.173   6.814   7.542  0.0605 -0.2589  0.0279
  701POPI   C3A 9471  16.162   6.990   8.018  0.0798 -0.2975 -0.0020
  701POPI   C4A 9472  15.730   6.945   8.268 -0.0819 -0.1817  0.0826
  701POPI   C1B 9473  16.349   6.277   7.093 -0.0039 -0.0539 -0.0222
  701POPI   C2B 9474  16.522   6.404   7.382  0.1038  0.0216 -0.1112
  701POPI   C3B 9475  16.520   6.532   7.818 -0.3518 -0.1380  0.1125
  701POPI   C4B 9476  16.706   6.607   8.202 -0.3662 -0.2901  0.2092
  702POPI    C1 9477   6.129  12.520   5.820 -0.0078  0.0719 -0.1917
  702POPI    C2 9478   5.869  12.767   5.644 -0.0965  0.2164  0.1345
  702POPI    C3 9479   6.145  12.912   5.894  0.1599  0.0379 -0.0404
  702POPI   PO4 9480   5.959  12.337   5.931  0.0085 -0.0338 -0.1216
  702POPI   GL1 9481   5.583  12.277   6.150 -0.0942 -0.1397  0.0357
  702POPI   GL2 9482   5.543  12.530   6.391 -0.4111 -0.2704 -0.0557
  702POPI   C1A 9483   5.803  12.021   6.522 -0.3312  0.0551  0.2236
  702POPI   D2A 9484   5.584  11.634   6.635  0.2660  0.0076 -0.2408
  702POPI   C3A 9485   5.666  11.423   7.032  0.2796  0.1647  0.0105
  702POPI   C4A 9486   5.852  11.362   7.383  0.1630 -0.1974 -0.0887
  702POPI   C1B 9487   5.573  12.262   6.883 -0.3085 -0.1610 -0.0126
  702POPI   C2B 9488   5.918  12.060   7.021 -0.0214 -0.0559  0.2202
  702POPI   C3B 9489   5.977  11.927   7.429  0.3206  0.2798 -0.3515
  702POPI   C4B 9490   5.983  11.661   7.828 -0.2290 -0.0472 -0.0865
  703POPI    C1 9491   4.106   0.751   4.823 -0.1128 -0.0111 -0.1808
  703POPI    C2 9492   3.718   0.729   4.918 -0.0714 -0.0899 -0.0248
  703POPI    C3 9493   3.909   1.081   4.933 -0.0506 -0.1113  0.2483
  703POPI   PO4 9494   4.224   0.483   4.907  0.3912 -0.2194 -0.3428
  703POPI   GL1 9495   4.513   0.388   5.180  0.0495  0.0724  0.0270
  703POPI   GL2 9496   4.732   0.133   5.361 -0.3385 -0.1981 -0.1303
  703POPI   C1A 9497   4.689   0.632   5.545  0.1006 -0.1659 -0.0061
  703POPI   D2A 9498   4.922   0.526   5.878 -0.0131  0.2343  0.0421
  703POPI   C3A 9499   4.817   0.315   6.190 -0.0459 -0.1950 -0.6685
  703POPI   C4A 9500   5.076   0.081   6.382 -0.0442 -0.0401  0.0760
  703POPI   C1B 9501   4.510   0.225   5.758 -0.0029 -0.0382  0.3194
  703POPI   C2B 9502   4.353   0.430   6.067  0.2190 -0.2465 -0.0860
  703POPI   C3B 9503   4.205   0.707   6.357  0.1408 -0.6378 -0.0968
  703POPI   C4B 9504   3.931   0.665   6.739  0.0046  0.1149 -0.0848
  704POPI    C1 9505  14.859  17.864   5.865 -0.0765  0.2263 -0.0907
  704POPI    C2 9506  14.648  17.598   5.655  0.2750 -0.0988 -0.0446
  704POPI    C3 9507  14.572  17.989   5.617 -0.2012 -0.1967 -0.1670
  704POPI   PO4 9508  14.803  17.790   6.108 -0.0890 -0.1042 -0.0504
  704POPI   GL1 9509  14.440  17.731   6.451 -0.0386  0.0346 -0.2181
  704POPI   GL2 9510  14.116  17.867   6.498 -0.2031 -0.0617  0.0574
  704POPI   C1A 9511  14.505  18.107   6.743 -0.0484  0.0667 -0.2061
  704POPI   D2A 9512  14.179  18.168   6.966 -0.2511 -0.0736 -0.2469
  704POPI   C3A 9513  14.386  17.904   7.315 -0.0463  0.0714  0.2506
  704POPI   C4A 9514  14.533  17.474   7.343 -0.1032  0.2850  0.2420
  704POPI   C1B 9515  13.942  17.736   6.895 -0.1258 -0.2187  0.1655
  704POPI   C2B 9516  13.967  17.500   7.376  0.2222 -0.0048 -0.2126
  704POPI   C3B 9517  14.207  17.683   7.769  0.1709  0.2969  0.1324
  704POPI   C4B 9518  14.653  17.840   7.772 -0.2952 -0.1809  0.3288
  705POPI    C1 9519  18.058  17.542   5.033  0.1010 -0.1729 -0.0166
  705POPI    C2 9520  17.844  17.416   4.719 -0.0356  0.1007 -0.0364
  705POPI    C3 9521  18.232  17.504   4.675  0.0064 -0.0981 -0.0712
  705POPI   PO4 9522  18.074  17.398   5.240 -0.0823  0.3078  0.1498
  705POPI   GL1 9523  18.180  17.454   5.637 -0.0715 -0.0262 -0.0673
  705POPI   GL2 9524  17.958  17.417   5.735 -0.2937  0.2346 -0.0660
  705POPI   C1A 9525  18.384  17.593   5.994 -0.1962 -0.0031 -0.3216
  705POPI   D2A 9526  18.430  17.569   6.414 -0.2834 -0.0686  0.2298
  705POPI   C3A 9527  18.565  17.092   6.447  0.0929 -0.1794  0.0043
  705POPI   C4A 9528  18.948  17.058   6.705 -0.0262 -0.2485 -0.2265
  705POPI   C1B 9529  18.090  17.168   6.204 -0.0265 -0.0025  0.4350
  705POPI   C2B 9530  18.082  16.881   6.465  0.2183  0.0675 -0.0081
  705POPI   C3B 9531  18.087  16.719   6.881 -0.1103  0.5858 -0.1433
  705POPI   C4B 9532  17.743  16.496   7.022  0.2096 -0.1903 -0.0125
  706POPI    C1 9533  10.884   5.069   6.233 -0.2760  0.1715 -0.4296
  706POPI    C2 9534  11.277   5.075   6.160 -0.1730 -0.0477  0.0657
  706POPI    C3 9535  11.034   4.862   5.925  0.0544 -0.2089 -0.0277
  706POPI   PO4 9536  10.840   5.311   6.446 -0.1003  0.0232 -0.2415
  706POPI   GL1 9537  10.790   5.319   6.895  0.3641  0.2204  0.0926
  706POPI   GL2 9538  10.591   5.522   7.101  0.0482  0.1583 -0.0032
  706POPI   C1A 9539  11.133   5.162   7.198 -0.0491 -0.1784 -0.2148
  706POPI   D2A 9540  11.474   5.207   7.430  0.1873  0.1456  0.3684
  706POPI   C3A 9541  11.581   4.985   7.766  0.2733 -0.1559  0.2708
  706POPI   C4A 9542  11.872   4.659   7.832 -0.1160 -0.0231  0.3467
  706POPI   C1B 9543  10.518   5.544   7.450  0.0342  0.2622 -0.1201
  706POPI   C2B 9544  10.561   5.397   7.809  0.3400  0.3574  0.0100
  706POPI   C3B 9545  10.636   5.032   8.156  0.0186 -0.2205  0.1706
  706POPI   C4B 9546  10.593   4.590   8.481 -0.1068 -0.0688 -0.1674
  707POPI    C1 9547  15.103  11.010   6.103 -0.0778 -0.1589  0.2146
  707POPI    C2 9548  14.908  10.728   6.308 -0.3590 -0.1777 -0.0720
  707POPI    C3 9549  14.939  10.701   5.910  0.1815 -0.1424 -0.0397
  707POPI   PO4 9550  15.298  11.087   6.327 -0.0293  0.2322  0.1316
  707POPI   GL1 9551  15.309  11.048   6.868  0.1819 -0.1016 -0.0871
  707POPI   GL2 9552  15.001  11.069   6.828 -0.3814 -0.0439 -0.0572
  707POPI   C1A 9553  15.564  11.161   7.131  0.2522 -0.1272 -0.1137
  707POPI   D2A 9554  15.953  10.954   6.988 -0.0304 -0.0731  0.1932
  707POPI   C3A 9555  16.146  10.761   7.199 -0.0590 -0.5924  0.0983
  707POPI   C4A 9556  16.068  10.555   7.567 -0.0494 -0.3206  0.0085
  707POPI   C1B 9557  15.094  11.156   7.348 -0.2056  0.0306  0.4364
  707POPI   C2B 9558  15.085  11.460   7.677  0.0498 -0.3487  0.0846
  707POPI   C3B 9559  15.059  11.596   8.142 -0.2060 -0.0223 -0.0388
  707POPI   C4B 9560  14.613  11.701   8.268 -0.0411  0.4495 -0.0543
  708POPI    C1 9561  15.630   0.878   5.930  0.0628  0.1198 -0.0536
  708POPI    C2 9562  15.815   0.789   5.587 -0.3071 -0.2860 -0.1574
  708POPI    C3 9563  15.536   1.074   5.595  0.2504  0.2797 -0.0146
  708POPI   PO4 9564  15.737   0.899   6.074 -0.0989 -0.1604  0.1223
  708POPI   GL1 9565  15.690   0.787   6.462 -0.3785 -0.3235 -0.0386
  708POPI   GL2 9566  15.876   1.104   6.483 -0.0794 -0.0903 -0.0539
  708POPI   C1A 9567  15.549   0.493   6.693 -0.2332  0.0721 -0.0397
  708POPI   D2A 9568  15.640   0.496   7.191  0.2883  0.1099  0.0901
  708POPI   C3A 9569  15.269   0.352   7.453  0.1223  0.0125  0.0358
  708POPI   C4A 9570  14.868   0.309   7.431  0.2935 -0.1103  0.1374
  708POPI   C1B 9571  15.906   0.904   6.948  0.1279 -0.1369 -0.1172
  708POPI   C2B 9572  16.064   0.972   7.386 -0.4876 -0.2567  0.1041
  708POPI   C3B 9573  15.867   1.206   7.741  0.0110  0.1448  0.0195
  708POPI   C4B 9574  15.623   1.321   8.097 -0.0301 -0.0039 -0.0929
  709POPI    C1 9575  16.298   1.487   5.534  0.0583 -0.3328 -0.0538
  709POPI    C2 9576  15.954   1.384   5.358 -0.0344 -0.1384  0.0108
  709POPI    C3 9577  16.286   1.424   5.140 -0.1288  0.0117 -0.1063
  709POPI   PO4 9578  16.200   1.638   5.766  0.3021 -0.1095  0.0057
  709POPI   GL1 9579  16.115   1.511   6.240  0.0792 -0.1080 -0.0237
  709POPI   GL2 9580  16.021   1.755   6.385 -0.0617 -0.1292 -0.2112
  709POPI   C1A 9581  16.316   1.180   6.387 -0.1809  0.0016  0.1293
  709POPI   D2A 9582  16.423   0.825   6.652 -0.0530 -0.2765  0.3672
  709POPI   C3A 9583  16.661   0.608   6.482  0.3083 -0.4454  0.1756
  709POPI   C4A 9584  17.017   0.364   6.366 -0.0665 -0.1863  0.0310
  709POPI   C1B 9585  16.037   1.630   6.755 -0.0369  0.0316 -0.2448
  709POPI   C2B 9586  16.240   1.325   6.994 -0.1193 -0.0151 -0.5234
  709POPI   C3B 9587  16.361   1.347   7.319  0.1733  0.1057 -0.0130
  709POPI   C4B 9588  16.389   1.044   7.723  0.0288 -0.1842 -0.0476
  710POPI    C1 9589  12.419   7.490   6.049 -0.1038 -0.0237  0.1178
  710POPI    C2 9590  12.624   7.175   6.185 -0.0327 -0.0158  0.0295
  710POPI    C3 9591  12.438   7.155   5.832  0.0514  0.0730 -0.0203
  710POPI   PO4 9592  12.332   7.557   6.326  0.1880  0.0956  0.2282
  710POPI   GL1 9593  12.454   7.485   6.676 -0.1652  0.0777 -0.0921
  710POPI   GL2 9594  12.345   7.879   6.770  0.0389 -0.0249 -0.1598
  710POPI   C1A 9595  12.571   7.367   7.098  0.0423 -0.0567 -0.0165
  710POPI   D2A 9596  12.402   7.496   7.486 -0.0007 -0.0465 -0.2584
  710POPI   C3A 9597  12.527   7.214   7.801 -0.1028  0.2035  0.0992
  710POPI   C4A 9598  12.447   6.902   7.994  0.1157  0.0254 -0.0269
  710POPI   C1B 9599  12.318   7.927   7.268 -0.1235  0.0554 -0.1374
  710POPI   C2B 9600  12.705   7.884   7.539  0.4343 -0.1001  0.0224
  710POPI   C3B 9601  12.927   7.575   7.785  0.1221 -0.1844  0.4498
  710POPI   C4B 9602  13.100   7.673   8.145 -0.0753  0.0094 -0.3363
  711POPI    C1 9603  11.045  14.284   5.661 -0.1778  0.3080 -0.4378
  711POPI    C2 9604  11.192  14.052   5.370 -0.0376 -0.2277  0.0420
  711POPI    C3 9605  11.365  14.403   5.452  0.3505 -0.3886 -0.0666
  711POPI   PO4 9606  10.946  14.124   5.824 -0.3005  0.1123 -0.1437
  711POPI   GL1 9607  10.831  14.078   6.334 -0.0997  0.2699  0.3277
  711POPI   GL2 9608  10.990  13.935   6.540  0.0828 -0.0020  0.1298
  711POPI   C1A 9609  10.531  13.931   6.689  0.0953 -0.1368 -0.1570
  711POPI   D2A 9610  10.208  13.791   7.000  0.2386  0.2187 -0.0759
  711POPI   C3A 9611   9.918  13.938   7.055  0.1262 -0.3056  0.0804
  711POPI   C4A 9612   9.779  14.087   7.379  0.0742 -0.2112 -0.1048
  711POPI   C1B 9613  10.990  13.991   6.958 -0.1653  0.2490  0.1335
  711POPI   C2B 9614  10.624  14.096   7.158  0.1672  0.1454 -0.2138
  711POPI   C3B 9615  10.564  14.284   7.532 -0.4437  0.0486 -0.2604
  711POPI   C4B 9616  10.554  14.336   7.883 -0.1478  0.0541 -0.0842
  712POPI    C1 9617   8.432  17.169   5.646 -0.0573  0.1058  0.0245
  712POPI    C2 9618   8.579  17.426   5.377  0.0172 -0.0153 -0.0513
  712POPI    C3 9619   8.703  17.045   5.379  0.2065  0.0431  0.3151
  712POPI   PO4 9620   8.428  17.162   5.832 -0.2217  0.3152  0.0717
  712POPI   GL1 9621   8.279  16.998   6.147 -0.1708 -0.1524  0.0281
  712POPI   GL2 9622   8.540  16.934   6.409 -0.0908  0.1891  0.4685
  712POPI   C1A 9623   7.850  17.024   6.443  0.1337  0.3069 -0.0388
  712POPI   D2A 9624   7.424  17.196   6.491  0.1974 -0.2571  0.1710
  712POPI   C3A 9625   7.344  17.677   6.520 -0.2027 -0.3011 -0.2394
  712POPI   C4A 9626   7.337  18.184   6.430  0.2930  0.0912  0.0843
  712POPI   C1B 9627   8.503  16.666   6.758  0.1674 -0.0390 -0.0294
  712POPI   C2B 9628   8.490  16.381   7.115  0.2071 -0.2232  0.3674
  712POPI   C3B 9629   8.592  16.321   7.558 -0.3253 -0.1328  0.0225
  712POPI   C4B 9630   8.792  16.363   8.059  0.1319 -0.0893 -0.1885
  713POPI    C1 9631  11.553   1.852   5.956  0.0932 -0.1041  0.2205
  713POPI    C2 9632  11.177   1.957   5.866  0.1778 -0.0633 -0.0974
  713POPI    C3 9633  11.449   2.239   5.947  0.1830 -0.0842 -0.0420
  713POPI   PO4 9634  11.619   1.594   6.156  0.1266 -0.2549  0.1184
  713POPI   GL1 9635  11.588   1.603   6.563 -0.2085 -0.0391 -0.1445
  713POPI   GL2 9636  11.951   1.763   6.578  0.1730  0.1001 -0.0305
  713POPI   C1A 9637  11.485   1.274   6.974 -0.0376 -0.0268  0.3541
  713POPI   D2A 9638  11.513   1.128   7.376 -0.0974 -0.0741 -0.1422
  713POPI   C3A 9639  11.514   1.274   7.841  0.0423 -0.2318 -0.2096
  713POPI   C4A 9640  11.518   1.628   8.018 -0.1623  0.2554  0.2997
  713POPI   C1B 9641  11.886   1.757   6.989  0.1136 -0.0349 -0.1142
  713POPI   C2B 9642  11.939   1.999   7.328  0.0499  0.0390 -0.0907
  713POPI   C3B 9643  11.864   2.096   7.771 -0.0660  0.0177  0.0309
  713POPI   C4B 9644  11.735   2.183   8.152  0.3318  0.2248  0.0817
  714POPI    C1 9645   2.579  14.642   4.720  0.1385 -0.0760  0.1044
  714POPI    C2 9646   2.765  14.303   4.620 -0.2123 -0.2061 -0.1261
  714POPI    C3 9647   2.833  14.637   4.412 -0.4826 -0.3336 -0.4290
  714POPI   PO4 9648   2.527  14.692   5.083  0.1435  0.0587 -0.2854
  714POPI   GL1 9649   2.375  14.416   5.368  0.2816  0.1609 -0.2644
  714POPI   GL2 9650   2.577  14.412   5.681 -0.4047  0.0529 -0.0138
  714POPI   C1A 9651   2.232  14.776   5.760  0.0207 -0.0279  0.0745
  714POPI   D2A 9652   2.028  15.033   6.117 -0.1296  0.0075 -0.1093
  714POPI   C3A 9653   1.741  15.240   5.898  0.2908  0.0661  0.0035
  714POPI   C4A 9654   1.343  15.484   5.867 -0.0543  0.0716  0.2035
  714POPI   C1B 9655   2.575  14.637   6.108 -0.0300  0.0987 -0.0441
  714POPI   C2B 9656   2.497  14.541   6.621  0.0715  0.0473 -0.0537
  714POPI   C3B 9657   2.608  14.609   6.975  0.0015 -0.0404 -0.2439
  714POPI   C4B 9658   2.776  14.367   7.344  0.0586 -0.0661  0.0325
  715POPI    C1 9659  17.699   0.377   5.038 -0.0873  0.1358 -0.1513
  715POPI    C2 9660  17.318   0.414   4.921 -0.1478 -0.1838 -0.0667
  715POPI    C3 9661  17.557   0.147   4.743 -0.0855 -0.2863  0.1659
  715POPI   PO4 9662  17.599   0.321   5.359 -0.2538 -0.1669  0.0002
  715POPI   GL1 9663  17.736   0.215   5.764 -0.3361 -0.1778  0.4874
  715POPI   GL2 9664  17.841   0.515   5.763 -0.1973  0.3129  0.0925
  715POPI   C1A 9665  17.471   0.247   6.061 -0.1164 -0.1446 -0.0060
  715POPI   D2A 9666  17.507   0.266   6.502 -0.2730  0.0492  0.1563
  715POPI   C3A 9667  17.821   0.160   6.874 -0.0477 -0.2005 -0.2974
  715POPI   C4A 9668  18.168   0.191   7.139 -0.0591 -0.0202 -0.0291
  715POPI   C1B 9669  17.853   0.583   6.245 -0.0867  0.2515  0.2144
  715POPI   C2B 9670  17.757   0.614   6.693  0.1421 -0.0570  0.1330
  715POPI   C3B 9671  17.753   0.996   6.982  0.2811 -0.1437 -0.1445
  715POPI   C4B 9672  18.117   0.985   7.181 -0.0632  0.2991 -0.2971
  716POPI    C1 9673   3.653  12.667   5.962 -0.1553  0.1812 -0.1219
  716POPI    C2 9674   3.846  12.925   6.199  0.1195  0.0422 -0.1904
  716POPI    C3 9675   3.692  13.050   5.852  0.0172  0.1709 -0.0997
  716POPI   PO4 9676   3.783  12.445   5.925  0.0186 -0.1537 -0.0535
  716POPI   GL1 9677   4.128  12.288   6.105  0.1657  0.3543  0.0838
  716POPI   GL2 9678   3.886  12.030   6.138 -0.3438 -0.3165  0.1709
  716POPI   C1A 9679   4.223  12.261   6.552  0.5144  0.2807  0.1798
  716POPI   D2A 9680   4.490  12.156   6.875  0.0693 -0.1126  0.2561
  716POPI   C3A 9681   4.670  12.543   7.031 -0.1157  0.1752  0.0595
  716POPI   C4A 9682   4.910  12.551   7.448 -0.2016  0.0248  0.0390
  716POPI   C1B 9683   3.866  11.823   6.616 -0.0397  0.3471 -0.0327
  716POPI   C2B 9684   4.070  11.944   6.933 -0.0166  0.1346  0.0662
  716POPI   C3B 9685   4.263  12.251   7.328 -0.2453 -0.3436 -0.3720
  716POPI   C4B 9686   4.148  12.592   7.634  0.1758  0.2497 -0.1186
  717POPI    C1 9687  13.162   2.730   6.109  0.1392  0.3017  0.0936
  717POPI    C2 9688  13.337   2.563   5.791  0.0545 -0.2152  0.3081
  717POPI    C3 9689  12.939   2.600   5.804  0.0738  0.0341  0.2527
  717POPI   PO4 9690  13.301   2.582   6.299  0.1021 -0.2381 -0.4488
  717POPI   GL1 9691  13.478   2.513   6.648  0.2609  0.0689  0.0329
  717POPI   GL2 9692  13.652   2.754   6.851 -0.1499  0.2304  0.2362
  717POPI   C1A 9693  13.249   2.575   7.051  0.1105  0.1695  0.1934
  717POPI   D2A 9694  13.242   2.440   7.462  0.0699 -0.4380 -0.2860
  717POPI   C3A 9695  13.550   2.521   7.815  0.2708 -0.0195  0.1734
  717POPI   C4A 9696  13.764   2.643   8.220 -0.2259  0.0644  0.0686
  717POPI   C1B 9697  13.687   2.644   7.240 -0.1296 -0.1706  0.0387
  717POPI   C2B 9698  13.766   2.870   7.555  0.4484 -0.3370  0.2130
  717POPI   C3B 9699  13.958   2.944   7.881 -0.0920  0.2795 -0.0760
  717POPI   C4B 9700  14.143   3.085   8.213  0.1912  0.2543  0.0199
  718POPI    C1 9701  17.652   6.112   5.815  0.0515  0.1348 -0.1913
  718POPI    C2 9702  17.721   5.765   5.628  0.0868  0.1146 -0.1414
  718POPI    C3 9703  17.766   6.111   5.432  0.0791  0.0921 -0.1831
  718POPI   PO4 9704  17.803   6.126   5.994 -0.0834  0.0193  0.3709
  718POPI   GL1 9705  17.841   6.277   6.343  0.2354  0.1062 -0.0439
  718POPI   GL2 9706  17.907   5.930   6.552 -0.2580 -0.2023 -0.0466
  718POPI   C1A 9707  17.989   6.371   6.824  0.0568 -0.2017  0.2169
  718POPI   D2A 9708  18.035   6.457   7.336 -0.4307  0.1167  0.0804
  718POPI   C3A 9709  18.254   6.773   7.582  0.1895  0.1676  0.1137
  718POPI   C4A 9710  18.166   7.150   7.777 -0.1902  0.0187  0.1391
  718POPI   C1B 9711  17.921   5.970   7.072 -0.0932 -0.1082  0.1121
  718POPI   C2B 9712  17.937   5.989   7.576  0.0869  0.0187  0.0153
  718POPI   C3B 9713  17.673   5.738   7.934  0.1535 -0.1905 -0.2690
  718POPI   C4B 9714  17.624   5.393   8.294 -0.1929  0.2311  0.0948
  719POPI    C1 9715  17.310  12.391   5.538  0.0503  0.0147  0.0684
  719POPI    C2 9716  16.966  12.535   5.683 -0.0161 -0.1013  0.0282
  719POPI    C3 9717  17.279  12.779   5.632 -0.0502 -0.0218  0.1904
  719POPI   PO4 9718  17.305  12.118   5.680 -0.2587 -0.0789 -0.1472
  719POPI   GL1 9719  17.494  12.297   6.040  0.1703  0.2095 -0.3461
  719POPI   GL2 9720  17.235  12.396   6.136  0.2918  0.2360 -0.0150
  719POPI   C1A 9721  17.666  12.660   6.344 -0.1346  0.1171 -0.0150
  719POPI   D2A 9722  18.089  12.423   6.570 -0.2874  0.0261  0.0249
  719POPI   C3A 9723  17.882  12.389   6.830 -0.0397  0.1229  0.0443
  719POPI   C4A 9724  17.917  12.149   7.199 -0.1694  0.2108 -0.2121
  719POPI   C1B 9725  17.115  12.606   6.512  0.3332 -0.2368 -0.0473
  719POPI   C2B 9726  17.030  12.649   6.854 -0.2003  0.0627 -0.3082
  719POPI   C3B 9727  17.245  12.534   7.239 -0.0091 -0.0595  0.0358
  719POPI   C4B 9728  17.377  12.252   7.311 -0.2889 -0.1726  0.0417
  720POPI    C1 9729   2.036   6.556   5.315 -0.0574 -0.2289  0.0411
  720POPI    C2 9730   1.674   6.576   5.148  0.0346  0.3835 -0.1071
  720POPI    C3 9731   1.974   6.400   4.952 -0.1149  0.1147 -0.0999
  720POPI   PO4 9732   1.986   6.370   5.516  0.0908  0.5595  0.1146
  720POPI   GL1 9733   2.032   6.297   6.026  0.2563  0.2060 -0.1064
  720POPI   GL2 9734   2.407   6.277   5.916  0.3298 -0.2434  0.1985
  720POPI   C1A 9735   1.987   5.970   6.286 -0.4103 -0.0456 -0.1439
  720POPI   D2A 9736   2.057   5.481   6.357 -0.0197  0.1084  0.0318
  720POPI   C3A 9737   1.929   5.286   6.682 -0.0308  0.1394 -0.0622
  720POPI   C4A 9738   1.873   5.413   7.060  0.2420  0.0072  0.3236
  720POPI   C1B 9739   2.407   6.338   6.381  0.0930 -0.5599 -0.1262
  720POPI   C2B 9740   2.388   6.342   6.806  0.1102 -0.0644  0.5026
  720POPI   C3B 9741   2.622   6.167   7.173 -0.1708  0.0593 -0.0393
  720POPI   C4B 9742   2.864   6.236   7.452 -0.0726 -0.0413 -0.3278
  721POPI    C1 9743   5.793   7.097   6.658 -0.3414 -0.2255 -0.0587
  721POPI    C2 9744   5.871   7.133   6.268 -0.4185  0.0543 -0.0509
  721POPI    C3 9745   5.589   6.879   6.393 -0.1667 -0.2817 -0.1488
  721POPI   PO4 9746   5.816   7.426   6.682  0.2058  0.1695 -0.0056
  721POPI   GL1 9747   5.794   7.507   7.182 -0.2537  0.0283  0.1222
  721POPI   GL2 9748   5.632   7.760   7.163  0.3626  0.3386 -0.0584
  721POPI   C1A 9749   5.835   7.370   7.541  0.3570 -0.1712 -0.1221
  721POPI   D2A 9750   5.965   7.425   7.849  0.2536  0.0334  0.2050
  721POPI   C3A 9751   6.110   7.626   8.208 -0.0582  0.0828 -0.0330
  721POPI   C4A 9752   6.455   7.673   8.303 -0.2255  0.2337  0.0639
  721POPI   C1B 9753   5.705   7.959   7.459  0.3045 -0.1471 -0.1260
  721POPI   C2B 9754   5.512   8.232   7.848 -0.3259  0.1077 -0.1081
  721POPI   C3B 9755   5.252   8.564   8.065  0.2161 -0.0295 -0.1003
  721POPI   C4B 9756   5.036   8.673   8.452  0.2081  0.2137  0.1779
  722POPI    C1 9757   1.956  10.663   5.876 -0.0070  0.4212  0.0450
  722POPI    C2 9758   1.944  10.873   5.536  0.1317 -0.0032 -0.2305
  722POPI    C3 9759   2.253  10.630   5.610 -0.0451 -0.1451  0.0603
  722POPI   PO4 9760   1.856  10.916   6.093  0.2228  0.0675  0.3637
  722POPI   GL1 9761   1.781  10.909   6.522  0.1238 -0.2348 -0.1117
  722POPI   GL2 9762   1.447  10.838   6.420 -0.2170  0.1907  0.0107
  722POPI   C1A 9763   1.574  11.170   6.775 -0.1696 -0.2327 -0.0204
  722POPI   D2A 9764   1.502  11.427   7.050  0.0330  0.2873  0.4122
  722POPI   C3A 9765   1.646  11.863   7.126 -0.1382 -0.0155 -0.1090
  722POPI   C4A 9766   1.885  12.232   7.027 -0.2297 -0.0521  0.0613
  722POPI   C1B 9767   1.164  11.267   6.612  0.3150 -0.1063 -0.1879
  722POPI   C2B 9768   1.028  11.290   6.992  0.0420  0.1538  0.1163
  722POPI   C3B 9769   1.077  11.349   7.446 -0.2787 -0.0185  0.1232
  722POPI   C4B 9770   0.962  11.613   7.705  0.0654 -0.2884 -0.1611
  723POPI    C1 9771  12.409   5.887   6.147 -0.1908  0.1247 -0.1220
  723POPI    C2 9772  12.690   5.846   5.865 -0.0534 -0.1420  0.0495
  723POPI    C3 9773  12.306   5.887   5.760  0.0054 -0.1562 -0.1770
  723POPI   PO4 9774  12.487   5.601   6.399 -0.0074 -0.2768 -0.1087
  723POPI   GL1 9775  12.280   5.445   6.815 -0.0527 -0.3437 -0.1188
  723POPI   GL2 9776  12.580   5.303   6.836  0.4829 -0.0323 -0.2294
  723POPI   C1A 9777  12.107   5.440   7.178  0.2516  0.1397 -0.1491
  723POPI   D2A 9778  11.981   5.311   7.526 -0.1649 -0.5049 -0.0739
  723POPI   C3A 9779  12.192   5.373   7.969  0.0998 -0.1055  0.0544
  723POPI   C4A 9780  12.265   5.571   8.239  0.0376 -0.1138 -0.1391
  723POPI   C1B 9781  12.590   5.234   7.268  0.4123 -0.0387  0.4441
  723POPI   C2B 9782  12.569   5.223   7.695 -0.2480  0.0659 -0.3080
  723POPI   C3B 9783  12.551   5.088   8.146  0.1177  0.1098 -0.1726
  723POPI   C4B 9784  12.650   4.891   8.504 -0.1754  0.0143 -0.4157
  724POPI    C1 9785   8.318  12.928   5.394  0.0405  0.1922  0.1526
  724POPI    C2 9786   8.119  12.586   5.447 -0.1777  0.2402 -0.3039
  724POPI    C3 9787   8.503  12.578   5.339 -0.0713  0.1460  0.0657
  724POPI   PO4 9788   8.263  13.042   5.662 -0.2077 -0.1864  0.0207
  724POPI   GL1 9789   8.297  13.090   6.033 -0.0778  0.2034  0.3712
  724POPI   GL2 9790   8.472  13.535   6.055  0.1317  0.4253 -0.2225
  724POPI   C1A 9791   8.184  12.738   6.302 -0.1142  0.2852  0.0147
  724POPI   D2A 9792   7.757  12.468   6.461  0.0776 -0.3639  0.0742
  724POPI   C3A 9793   7.261  12.461   6.546  0.0680 -0.0473 -0.0673
  724POPI   C4A 9794   7.018  12.798   6.586 -0.2815 -0.2796 -0.3004
  724POPI   C1B 9795   8.316  13.767   6.439 -0.0763 -0.1450 -0.0949
  724POPI   C2B 9796   8.058  13.691   6.682  0.5793  0.4307 -0.3167
  724POPI   C3B 9797   8.100  13.410   7.029 -0.1125 -0.0105 -0.0079
  724POPI   C4B 9798   7.994  13.502   7.424  0.0227  0.0176  0.0219
  725POPI    C1 9799  14.630   4.770   6.159  0.1143  0.1027  0.1007
  725POPI    C2 9800  14.929   5.012   6.048 -0.0634  0.2140 -0.1449
  725POPI    C3 9801  14.571   5.165   6.142 -0.1087  0.0644 -0.0700
  725POPI   PO4 9802  14.746   4.538   6.205 -0.1712 -0.2599 -0.2619
  725POPI   GL1 9803  14.727   4.363   6.675  0.0254 -0.0692 -0.2146
  725POPI   GL2 9804  15.043   4.305   6.819 -0.0571 -0.0716 -0.0258
  725POPI   C1A 9805  14.471   4.087   6.946 -0.0316  0.2632  0.0486
  725POPI   D2A 9806  14.293   3.798   7.146 -0.0583 -0.0031 -0.1635
  725POPI   C3A 9807  13.990   3.836   7.495 -0.1793 -0.1190 -0.1338
  725POPI   C4A 9808  13.727   3.862   7.799 -0.2295 -0.4671 -0.0981
  725POPI   C1B 9809  14.854   4.284   7.169  0.0159  0.0278 -0.0481
  725POPI   C2B 9810  14.685   4.454   7.579 -0.2116 -0.0965 -0.1478
  725POPI   C3B 9811  14.369   4.682   7.696  0.0097 -0.3138 -0.2481
  725POPI   C4B 9812  14.215   5.027   7.924 -0.0046 -0.1084 -0.3149
  726POPI    C1 9813   5.658  17.010   4.975 -0.0067  0.0913 -0.0808
  726POPI    C2 9814   5.378  16.889   4.715 -0.0008 -0.1808  0.0358
  726POPI    C3 9815   5.366  17.261   4.864  0.0064 -0.0152 -0.3641
  726POPI   PO4 9816   5.616  16.767   5.187 -0.1045 -0.1435  0.3654
  726POPI   GL1 9817   5.744  16.811   5.654  0.0118 -0.2167  0.1598
  726POPI   GL2 9818   5.952  16.749   5.871 -0.1037  0.1474  0.0562
  726POPI   C1A 9819   5.463  16.661   5.983 -0.0282  0.0077 -0.1127
  726POPI   D2A 9820   5.010  16.421   6.222  0.1139  0.2308 -0.1734
  726POPI   C3A 9821   4.932  16.426   6.663 -0.0141  0.0807  0.0257
  726POPI   C4A 9822   4.685  16.544   7.069 -0.1156 -0.0354 -0.2709
  726POPI   C1B 9823   6.103  16.642   6.375 -0.0328  0.0438  0.1557
  726POPI   C2B 9824   6.033  16.787   6.807  0.3044 -0.0369 -0.0570
  726POPI   C3B 9825   5.853  16.877   7.115  0.1553  0.1309 -0.0234
  726POPI   C4B 9826   5.730  16.879   7.477  0.2032  0.1425 -0.1198
  727POPI    C1 9827  11.235  17.187   5.567  0.0268  0.2122 -0.0691
  727POPI    C2 9828  11.094  17.246   5.197  0.1630 -0.0953 -0.1737
  727POPI    C3 9829  11.408  17.457   5.327  0.0718  0.0626 -0.2066
  727POPI   PO4 9830  11.085  17.217   5.770 -0.2862 -0.2755  0.4456
  727POPI   GL1 9831  11.103  17.331   6.275  0.0306 -0.2998  0.0415
  727POPI   GL2 9832  11.456  17.323   6.201 -0.1896  0.1432 -0.2105
  727POPI   C1A 9833  11.069  17.336   6.697 -0.1806 -0.4031  0.1322
  727POPI   D2A 9834  10.665  17.252   6.907  0.1349  0.1435  0.1511
  727POPI   C3A 9835  10.514  16.944   7.261  0.2784 -0.2579  0.1270
  727POPI   C4A 9836  10.487  16.673   7.573  0.1272 -0.2305 -0.0617
  727POPI   C1B 9837  11.489  17.510   6.608  0.3375  0.0003 -0.1061
  727POPI   C2B 9838  11.472  17.284   6.999 -0.1076  0.0120  0.0409
  727POPI   C3B 9839  11.474  17.286   7.394 -0.1938 -0.1185  0.0157
  727POPI   C4B 9840  11.361  17.120   7.757 -0.0007 -0.2164  0.2557
  728POPI    C1 9841   5.072  14.145   5.518  0.1124  0.1471  0.1451
  728POPI    C2 9842   5.352  13.883   5.404  0.0364 -0.0046  0.3024
  728POPI    C3 9843   4.971  13.827   5.298  0.1143  0.4022 -0.2334
  728POPI   PO4 9844   5.176  14.408   5.508  0.0842  0.1279 -0.3112
  728POPI   GL1 9845   5.019  14.595   5.849 -0.1200  0.0840 -0.2302
  728POPI   GL2 9846   4.880  14.344   6.001 -0.0275  0.1169  0.3154
  728POPI   C1A 9847   5.384  14.573   6.135 -0.3812  0.2085  0.1942
  728POPI   D2A 9848   5.472  14.430   6.530 -0.2764  0.3440 -0.3852
  728POPI   C3A 9849   5.730  14.267   6.814 -0.2042 -0.1180  0.1133
  728POPI   C4A 9850   5.762  13.956   7.073 -0.1786  0.3662  0.2578
  728POPI   C1B 9851   5.109  14.156   6.314 -0.0875 -0.0266 -0.0997
  728POPI   C2B 9852   5.147  14.140   6.775 -0.0762  0.2648 -0.0210
  728POPI   C3B 9853   5.203  14.152   7.185 -0.2374 -0.0490 -0.1174
  728POPI   C4B 9854   5.546  14.052   7.486  0.2761 -0.0011 -0.2092
  729POPI    C1 9855   8.596   1.520   5.409 -0.3383 -0.0470  0.0318
  729POPI    C2 9856   8.677   1.230   5.146 -0.0311 -0.0449  0.1207
  729POPI    C3 9857   8.775   1.608   5.063  0.0322 -0.0388  0.2213
  729POPI   PO4 9858   8.392   1.360   5.673 -0.2042  0.1773  0.0219
  729POPI   GL1 9859   8.187   1.065   6.052 -0.4169 -0.1916  0.0325
  729POPI   GL2 9860   8.510   1.170   6.157  0.1453  0.2070 -0.1499
  729POPI   C1A 9861   7.870   0.825   6.422  0.0630  0.1790 -0.0903
  729POPI   D2A 9862   7.822   0.689   6.844 -0.1981 -0.1650 -0.1141
  729POPI   C3A 9863   7.825   0.787   7.287  0.1497 -0.0504  0.2195
  729POPI   C4A 9864   7.955   0.762   7.733 -0.3909  0.3209 -0.0761
  729POPI   C1B 9865   8.385   0.941   6.536 -0.0305 -0.0292 -0.0306
  729POPI   C2B 9866   8.326   0.741   6.919 -0.0604  0.1992 -0.0660
  729POPI   C3B 9867   8.191   0.388   7.117 -0.1688  0.0589  0.1902
  729POPI   C4B 9868   7.919   0.332   7.491 -0.2248  0.3280 -0.2015
  730POPI    C1 9869   4.818   6.074   5.853  0.3022 -0.4091  0.0981
  730POPI    C2 9870   5.016   5.942   5.532  0.0139  0.0035 -0.2607
  730POPI    C3 9871   4.616   5.936   5.536  0.0138  0.0849  0.0566
  730POPI   PO4 9872   4.842   5.919   5.994  0.4289  0.1372  0.2025
  730POPI   GL1 9873   5.092   5.656   6.242 -0.3555  0.0084 -0.2461
  730POPI   GL2 9874   5.147   5.362   6.299 -0.2028  0.1776 -0.0732
  730POPI   C1A 9875   5.356   5.777   6.663  0.0909 -0.1239 -0.0442
  730POPI   D2A 9876   5.608   6.079   6.997 -0.1463 -0.3412 -0.2500
  730POPI   C3A 9877   5.761   5.914   7.337 -0.2057 -0.0507 -0.2317
  730POPI   C4A 9878   5.628   6.094   7.747  0.2138 -0.0857  0.1984
  730POPI   C1B 9879   5.368   5.193   6.581 -0.0287  0.1635 -0.0305
  730POPI   C2B 9880   5.391   5.006   6.958  0.0978 -0.3100  0.6323
  730POPI   C3B 9881   5.291   5.169   7.423 -0.0915  0.0520 -0.0315
  730POPI   C4B 9882   5.175   5.244   7.851 -0.1304 -0.2704  0.3739
  731POPI    C1 9883  16.755   7.900   5.890  0.1472  0.0720 -0.1203
  731POPI    C2 9884  16.371   7.807   5.832  0.2047 -0.0888 -0.2526
  731POPI    C3 9885  16.653   7.528   5.784  0.3339  0.0146 -0.1023
  731POPI   PO4 9886  16.756   8.017   6.086 -0.1697  0.1408  0.2294
  731POPI   GL1 9887  16.463   7.976   6.324  0.0550 -0.0574  0.2688
  731POPI   GL2 9888  16.608   7.846   6.586  0.4037  0.1012  0.3494
  731POPI   C1A 9889  16.651   8.337   6.635 -0.1390  0.0483 -0.2892
  731POPI   D2A 9890  16.648   8.395   7.133 -0.0774 -0.0719 -0.3244
  731POPI   C3A 9891  16.959   8.587   7.309  0.0196  0.1850  0.0165
  731POPI   C4A 9892  17.408   8.505   7.356 -0.2885 -0.0683  0.1724
  731POPI   C1B 9893  16.486   7.906   6.960  0.2120  0.4566 -0.1915
  731POPI   C2B 9894  16.539   7.893   7.314  0.0326 -0.3781  0.0445
  731POPI   C3B 9895  16.360   7.962   7.766  0.0164  0.1606  0.0765
  731POPI   C4B 9896  16.293   8.068   8.188 -0.1939  0.2626 -0.1316
  732POPI    C1 9897   6.206   8.138   6.255  0.0220  0.2193 -0.0594
  732POPI    C2 9898   6.161   7.917   5.925  0.0864  0.1492 -0.0216
  732POPI    C3 9899   6.125   8.315   5.906  0.0148  0.1394 -0.0985
  732POPI   PO4 9900   6.414   7.946   6.430  0.1256 -0.0596 -0.1792
  732POPI   GL1 9901   6.192   7.831   6.750  0.0522  0.1504  0.1572
  732POPI   GL2 9902   5.964   7.897   6.817 -0.0566 -0.2242 -0.1632
  732POPI   C1A 9903   6.208   7.882   7.246  0.0663  0.0979  0.1559
  732POPI   D2A 9904   6.224   7.796   7.719  0.0154 -0.0278  0.0768
  732POPI   C3A 9905   6.494   8.085   7.810  0.1046  0.5121 -0.1441
  732POPI   C4A 9906   6.644   8.140   8.261  0.3505  0.0562 -0.0665
  732POPI   C1B 9907   5.766   8.379   6.951  0.0984 -0.0307  0.2115
  732POPI   C2B 9908   5.596   8.847   7.084 -0.0469 -0.0994  0.0445
  732POPI   C3B 9909   5.305   8.933   7.280  0.1757  0.1647 -0.2196
  732POPI   C4B 9910   5.120   8.635   7.575  0.2199  0.0785  0.2775
  733POPI    C1 9911  13.059   0.153   5.908  0.0936  0.0194  0.2227
  733POPI    C2 9912  13.193  -0.223   5.916  0.0515  0.0036  0.1816
  733POPI    C3 9913  12.873  -0.129   5.694  0.0976  0.0752  0.1453
  733POPI   PO4 9914  13.250   0.243   6.071  0.0585  0.0023  0.0639
  733POPI   GL1 9915  13.576   0.085   6.334  0.0341  0.3829 -0.2449
  733POPI   GL2 9916  13.405   0.012   6.506 -0.0530  0.0267  0.2894
  733POPI   C1A 9917  13.716   0.272   6.773  0.0777  0.0355 -0.2267
  733POPI   D2A 9918  13.820  -0.014   7.161  0.3182  0.2553 -0.2860
  733POPI   C3A 9919  13.532   0.033   7.408 -0.1972  0.0704  0.0383
  733POPI   C4A 9920  13.447   0.034   7.801  0.2578 -0.3295  0.0110
  733POPI   C1B 9921  13.355   0.004   6.968 -0.1228  0.2497 -0.2202
  733POPI   C2B 9922  13.083  -0.161   7.278 -0.0439  0.0470 -0.3001
  733POPI   C3B 9923  12.987  -0.030   7.628 -0.3458  0.1608 -0.1916
  733POPI   C4B 9924  12.679   0.184   7.950  0.3491 -0.3615  0.0270
  734POPI    C1 9925   7.695   9.743   6.030 -0.1678 -0.2085 -0.0739
  734POPI    C2 9926   7.378   9.571   6.202 -0.0449 -0.3405  0.0234
  734POPI    C3 9927   7.431   9.543   5.806 -0.1481 -0.3272  0.0083
  734POPI   PO4 9928   7.766   9.990   6.275 -0.2312 -0.2585  0.1973
  734POPI   GL1 9929   7.574  10.019   6.680  0.2319 -0.0722 -0.2238
  734POPI   GL2 9930   7.323   9.969   6.489 -0.1896  0.1648  0.2474
  734POPI   C1A 9931   7.366  10.459   6.668  0.0151 -0.0692 -0.3591
  734POPI   D2A 9932   7.341  10.844   6.959 -0.2080  0.0105  0.1327
  734POPI   C3A 9933   7.452  10.907   7.315  0.0365  0.1327 -0.2431
  734POPI   C4A 9934   7.728  10.856   7.578  0.1475  0.2428  0.0159
  734POPI   C1B 9935   7.175   9.844   6.917  0.0356 -0.0373 -0.1325
  734POPI   C2B 9936   7.110   9.809   7.372 -0.0460 -0.1292  0.1997
  734POPI   C3B 9937   7.306  10.091   7.659  0.0092 -0.0740 -0.2415
  734POPI   C4B 9938   7.336  10.456   7.764 -0.1791 -0.0758  0.3458
  735POPI    C1 9939   6.851  10.841   6.058  0.3585  0.0670  0.0537
  735POPI    C2 9940   6.831  10.981   5.684 -0.0407  0.1514  0.1024
  735POPI    C3 9941   6.599  10.675   5.795  0.1324  0.0760  0.2616
  735POPI   PO4 9942   7.118  10.879   6.120  0.0014  0.0544  0.1391
  735POPI   GL1 9943   7.198  10.975   6.496  0.1824  0.0066 -0.1173
  735POPI   GL2 9944   7.524  10.900   6.334  0.1101  0.0145 -0.1332
  735POPI   C1A 9945   6.874  10.946   6.778 -0.0672 -0.4966 -0.0740
  735POPI   D2A 9946   6.595  11.106   7.093  0.0103 -0.2650 -0.2131
  735POPI   C3A 9947   6.627  11.232   7.418  0.3902  0.0370  0.0497
  735POPI   C4A 9948   6.350  11.375   7.831 -0.3199 -0.2981  0.1414
  735POPI   C1B 9949   7.768  10.907   6.763  0.3318 -0.1513  0.2294
  735POPI   C2B 9950   8.058  10.986   7.173 -0.1012 -0.3205 -0.1503
  735POPI   C3B 9951   8.172  11.075   7.531  0.0492  0.3039 -0.0201
  735POPI   C4B 9952   8.337  11.360   7.671  0.1991 -0.2795 -0.0440
  736POPI    C1 9953  15.014   1.337   5.826 -0.2816 -0.2233  0.1602
  736POPI    C2 9954  14.687   1.309   5.597 -0.2284  0.1604  0.0299
  736POPI    C3 9955  15.050   1.288   5.431 -0.1781 -0.3586  0.1856
  736POPI   PO4 9956  14.858   1.433   6.055  0.0333  0.0515  0.1137
  736POPI   GL1 9957  14.880   1.168   6.428  0.1083  0.0789 -0.0545
  736POPI   GL2 9958  14.935   0.835   6.347  0.2497  0.1934 -0.0309
  736POPI   C1A 9959  14.862   1.023   6.811  0.1624 -0.2278  0.2531
  736POPI   D2A 9960  14.747   0.751   7.211 -0.2729  0.1617  0.0536
  736POPI   C3A 9961  15.004   0.744   7.636  0.2731 -0.1944  0.2256
  736POPI   C4A 9962  14.987   0.319   7.903 -0.4099  0.1353  0.1661
  736POPI   C1B 9963  15.071   0.596   6.656 -0.1313 -0.0596  0.0818
  736POPI   C2B 9964  15.165   0.139   7.012  0.1263 -0.0085 -0.1334
  736POPI   C3B 9965  15.265  -0.130   7.255  0.0468 -0.0908 -0.3026
  736POPI   C4B 9966  15.493  -0.336   7.454  0.0747  0.0459 -0.1596
  737POPI    C1 9967   7.420   3.465   5.785  0.0194 -0.1463 -0.1889
  737POPI    C2 9968   7.771   3.554   5.614 -0.0609  0.0793 -0.2400
  737POPI    C3 9969   7.451   3.785   5.547 -0.2099 -0.1009 -0.1603
  737POPI   PO4 9970   7.571   3.351   6.110 -0.2619 -0.0804  0.0705
  737POPI   GL1 9971   7.406   3.068   6.380  0.0907  0.1398  0.1263
  737POPI   GL2 9972   7.631   2.886   6.445  0.2161 -0.3105 -0.0724
  737POPI   C1A 9973   7.245   3.090   6.861  0.0806  0.4184 -0.2718
  737POPI   D2A 9974   7.325   3.410   7.146 -0.4952 -0.1288 -0.1936
  737POPI   C3A 9975   7.103   3.436   7.579 -0.1124 -0.1572 -0.0620
  737POPI   C4A 9976   6.711   3.488   7.614  0.0513 -0.0752  0.0638
  737POPI   C1B 9977   7.674   2.672   6.847  0.1027 -0.0902  0.1065
  737POPI   C2B 9978   7.658   2.646   7.243  0.0595  0.2033  0.0694
  737POPI   C3B 9979   7.634   2.596   7.629 -0.0250 -0.5303 -0.0731
  737POPI   C4B 9980   7.437   2.787   8.042 -0.1214 -0.1678 -0.1621
  738POPI    C1 9981  14.582   2.486   5.974  0.0413  0.0002 -0.2553
  738POPI    C2 9982  14.527   2.249   5.657  0.0130 -0.1785 -0.1182
  738POPI    C3 9983  14.309   2.582   5.698 -0.2016 -0.3157 -0.1310
  738POPI   PO4 9984  14.832   2.568   6.027 -0.2969 -0.0350  0.3620
  738POPI   GL1 9985  14.965   2.669   6.423  0.1964  0.2805  0.0680
  738POPI   GL2 9986  14.836   2.357   6.557 -0.0264  0.4528  0.0502
  738POPI   C1A 9987  15.302   2.586   6.766  0.0731  0.3094  0.1787
  738POPI   D2A 9988  15.402   2.460   7.091 -0.0563  0.2213 -0.1008
  738POPI   C3A 9989  15.349   2.582   7.384  0.5587  0.0631  0.1876
  738POPI   C4A 9990  15.260   2.744   7.865 -0.3261  0.0319  0.2075
  738POPI   C1B 9991  14.574   2.050   6.801 -0.0922 -0.0912 -0.3233
  738POPI   C2B 9992  14.599   1.802   7.099 -0.3470 -0.0284 -0.1207
  738POPI   C3B 9993  14.784   1.840   7.502  0.2306  0.0680 -0.0000
  738POPI   C4B 9994  14.643   1.734   8.001 -0.0154  0.1817  0.1020
  739POPI    C1 9995  17.391   4.206   5.916  0.0608 -0.0020 -0.0767
  739POPI    C2 9996  17.458   4.248   5.524  0.1181 -0.0109 -0.0679
  739POPI    C3 9997  17.087   4.183   5.658  0.0690  0.1876 -0.1048
  739POPI   PO4 9998  17.660   4.254   6.007  0.3421  0.3086 -0.2327
  739POPI   GL1 9999  18.054   4.325   6.362  0.0186 -0.0334  0.1177
  739POPI   GL210000  17.880   4.063   6.453  0.0307 -0.0281 -0.2158
  739POPI   C1A10001  18.247   4.385   6.690  0.0086  0.1514  0.1561
  739POPI   D2A10002  18.455   4.411   7.013 -0.3705 -0.1009  0.0674
  739POPI   C3A10003  18.394   4.087   7.317  0.1948 -0.0341  0.2741
  739POPI   C4A10004  18.306   3.956   7.664  0.0156  0.1116  0.1441
  739POPI   C1B10005  18.053   4.009   6.917  0.0099 -0.0390  0.2763
  739POPI   C2B10006  18.240   3.644   7.069 -0.0832 -0.3213  0.0011
  739POPI   C3B10007  18.427   3.579   7.400 -0.3263  0.0136  0.0742
  739POPI   C4B10008  18.806   3.694   7.470  0.1883 -0.3172  0.0718
  740POPI    C110009  10.430   0.268   6.061 -0.0100 -0.2181  0.1203
  740POPI    C210010  10.508  -0.055   5.839  0.2349 -0.1113  0.0479
  740POPI    C310011  10.806   0.185   5.955  0.0455  0.1399  0.0233
  740POPI   PO410012  10.252   0.078   6.289 -0.2246 -0.0779  0.1310
  740POPI   GL110013   9.867  -0.191   6.434  0.0616  0.2437  0.2199
  740POPI   GL210014   9.650   0.114   6.433  0.0007 -0.2823 -0.0715
  740POPI   C1A10015   9.770  -0.529   6.625  0.0614  0.2237  0.0909
  740POPI   D2A10016   9.679  -0.555   7.067 -0.1220  0.1038  0.0482
  740POPI   C3A10017   9.716  -0.800   7.436  0.0963  0.1326 -0.2124
  740POPI   C4A10018   9.626  -0.887   7.885  0.3352  0.4074  0.1861
  740POPI   C1B10019   9.459   0.074   6.797  0.0409  0.1717 -0.2844
  740POPI   C2B10020   9.546  -0.134   7.227  0.0297 -0.0110  0.1123
  740POPI   C3B10021   9.547  -0.214   7.700 -0.1508 -0.0154  0.1708
  740POPI   C4B10022   9.775  -0.001   8.030 -0.2860 -0.0677 -0.0666
  741POPI    C110023   3.255   9.435   5.803  0.1276  0.3401 -0.2572
  741POPI    C210024   2.913   9.362   5.996  0.2738  0.0380 -0.1064
  741POPI    C310025   2.911   9.582   5.662 -0.0255  0.2886  0.0559
  741POPI   PO410026   3.403   9.530   6.099 -0.0018  0.0977  0.1031
  741POPI   GL110027   3.592   9.194   6.420 -0.1705 -0.1305 -0.1831
  741POPI   GL210028   3.595   8.962   6.675  0.2533 -0.1609  0.0820
  741POPI   C1A10029   3.642   9.442   6.744 -0.0819 -0.3133 -0.4963
  741POPI   D2A10030   3.679   9.729   7.097  0.5006  0.1892  0.0319
  741POPI   C3A10031   3.253  10.033   6.966  0.0954 -0.0204  0.1018
  741POPI   C4A10032   3.061  10.303   6.609 -0.1071  0.1256  0.1469
  741POPI   C1B10033   3.401   9.095   7.104 -0.1086  0.0936 -0.0739
  741POPI   C2B10034   3.131   9.089   7.516  0.0741 -0.3602  0.1540
  741POPI   C3B10035   3.246   9.049   7.855  0.3435 -0.2622  0.1569
  741POPI   C4B10036   3.509   9.252   8.200  0.2707 -0.4749 -0.0055
  742POPS   CNO10037   4.210  14.094   5.195  0.2815 -0.3463  0.2631
  742POPS   PO410038   3.870  14.066   5.435  0.1297  0.0555  0.0704
  742POPS   GL110039   4.101  14.114   5.712 -0.2239  0.2768  0.1684
  742POPS   GL210040   4.212  14.392   5.578 -0.0493  0.1293  0.1420
  742POPS   C1A10041   4.075  14.220   6.179 -0.0156  0.0900  0.0744
  742POPS   D2A10042   4.074  14.258   6.647  0.0304  0.0028 -0.0091
  742POPS   C3A10043   4.056  14.626   6.845  0.1477  0.0333 -0.0777
  742POPS   C4A10044   4.053  14.787   7.151  0.1407 -0.2945  0.1596
  742POPS   C1B10045   4.447  14.587   5.895  0.3438 -0.0556 -0.1875
  742POPS   C2B10046   4.559  14.903   6.209 -0.0030 -0.1358 -0.1475
  742POPS   C3B10047   4.445  15.071   6.659 -0.1816 -0.1309 -0.0336
  742POPS   C4B10048   4.159  15.188   6.813  0.0264 -0.1435  0.1790
  743POPS   CNO10049   2.108  14.826   4.840 -0.3119 -0.3792 -0.1521
  743POPS   PO410050   1.835  14.623   5.171  0.1275 -0.0402 -0.0130
  743POPS   GL110051   1.860  14.507   5.537 -0.0657  0.1414  0.1504
  743POPS   GL210052   1.674  14.235   5.642  0.1243 -0.0654  0.0864
  743POPS   C1A10053   1.676  14.619   5.939 -0.0690  0.2994 -0.1132
  743POPS   D2A10054   1.640  14.689   6.338  0.1852 -0.1930 -0.0329
  743POPS   C3A10055   1.935  14.758   6.586  0.2074 -0.0108  0.2614
  743POPS   C4A10056   2.157  14.798   6.988  0.0455 -0.0677  0.0122
  743POPS   C1B10057   2.024  14.232   5.911  0.0883  0.3749 -0.0443
  743POPS   C2B10058   2.125  14.392   6.222 -0.1895  0.2760  0.1951
  743POPS   C3B10059   2.067  14.230   6.650 -0.1053  0.0463 -0.0233
  743POPS   C4B10060   1.986  13.905   6.928  0.0455  0.3108  0.2861
  744POPS   CNO10061  13.572   6.240   6.740  0.0101  0.3174  0.1138
  744POPS   PO410062  13.291   5.939   6.549 -0.2079 -0.2114 -0.1158
  744POPS   GL110063  13.378   5.859   7.036 -0.1356  0.0816  0.0990
  744POPS   GL210064  13.654   5.601   7.161 -0.2649  0.0024  0.0392
  744POPS   C1A10065  13.156   6.030   7.373 -0.0572 -0.1714 -0.1249
  744POPS   D2A10066  13.017   5.955   7.741 -0.0875  0.2219 -0.2303
  744POPS   C3A10067  12.637   6.232   7.765 -0.1017  0.1030 -0.1012
  744POPS   C4A10068  12.361   6.416   8.001  0.2003  0.0390 -0.2723
  744POPS   C1B10069  13.517   5.690   7.595 -0.0085 -0.0407  0.0300
  744POPS   C2B10070  13.331   5.605   8.006 -0.1159  0.0161 -0.4414
  744POPS   C3B10071  13.472   5.376   8.354  0.2926 -0.0346  0.2682
  744POPS   C4B10072  13.481   5.087   8.759 -0.1752  0.0180  0.3504
  745POPS   CNO10073  13.996  14.637   5.084  0.1082 -0.0188 -0.1737
  745POPS   PO410074  13.630  14.862   5.085 -0.0851  0.2629  0.0089
  745POPS   GL110075  13.647  14.785   5.490  0.1631  0.2049  0.3489
  745POPS   GL210076  13.919  14.564   5.652  0.2164  0.1818 -0.1344
  745POPS   C1A10077  13.631  14.938   5.833 -0.0269  0.0668  0.2018
  745POPS   D2A10078  13.547  15.374   5.890  0.2344 -0.5098  0.2276
  745POPS   C3A10079  13.067  15.344   6.033 -0.0461  0.1045  0.0436
  745POPS   C4A10080  12.635  15.563   6.171  0.3071 -0.2723  0.1855
  745POPS   C1B10081  13.676  14.413   6.049  0.0268 -0.1143  0.3027
  745POPS   C2B10082  13.763  13.969   6.192  0.0522  0.1870  0.0207
  745POPS   C3B10083  13.802  13.878   6.696 -0.1723 -0.4999 -0.1322
  745POPS   C4B10084  13.632  14.138   7.096 -0.0130  0.0415 -0.4111
  746POPS   CNO10085   9.417  17.115   5.912  0.0235  0.2860  0.2515
  746POPS   PO410086   8.916  17.156   5.844 -0.2250  0.0817  0.1278
  746POPS   GL110087   9.079  17.255   6.210 -0.0517  0.1286 -0.3036
  746POPS   GL210088   9.082  17.656   6.259  0.0241  0.0525 -0.0534
  746POPS   C1A10089   9.074  17.033   6.572 -0.0189  0.0928  0.2518
  746POPS   D2A10090   8.936  17.027   7.010 -0.0565  0.2723 -0.1096
  746POPS   C3A10091   8.971  17.018   7.466 -0.2612 -0.1673 -0.1776
  746POPS   C4A10092   8.777  16.860   7.853  0.1053  0.1555  0.0236
  746POPS   C1B10093   8.943  17.519   6.675  0.1318  0.2348  0.0394
  746POPS   C2B10094   8.807  17.519   7.135 -0.2479  0.1681  0.0538
  746POPS   C3B10095   8.566  17.383   7.452  0.2818 -0.1765 -0.1280
  746POPS   C4B10096   8.159  17.508   7.585  0.2736  0.2555 -0.1048
  747POPS   CNO10097  12.963  11.310   5.830  0.3327 -0.1847  0.0711
  747POPS   PO410098  12.585  11.375   5.765 -0.0681  0.1283  0.1119
  747POPS   GL110099  12.513  11.305   6.242  0.0407  0.0940 -0.0748
  747POPS   GL210100  12.398  10.976   6.333 -0.2740 -0.1155  0.2438
  747POPS   C1A10101  12.235  11.458   6.644  0.0565  0.2623  0.1230
  747POPS   D2A10102  12.051  11.433   7.086  0.0292 -0.1926  0.0682
  747POPS   C3A10103  12.222  11.300   7.466 -0.1907  0.2171 -0.0228
  747POPS   C4A10104  12.377  11.046   7.853  0.0803  0.0492  0.0647
  747POPS   C1B10105  12.610  11.057   6.659 -0.0912  0.3503  0.1508
  747POPS   C2B10106  12.497  11.191   7.019  0.0063  0.0378 -0.1692
  747POPS   C3B10107  12.511  10.849   7.349 -0.1255 -0.0303 -0.2060
  747POPS   C4B10108  12.631  10.613   7.718  0.3778  0.1172  0.0820
  748POPS   CNO10109  15.401  18.004   5.135 -0.1868  0.0687  0.2205
  748POPS   PO410110  15.514  18.220   5.396  0.0001 -0.4184 -0.0707
  748POPS   GL110111  15.775  18.177   5.780 -0.1180 -0.0803 -0.1535
  748POPS   GL210112  15.924  18.405   5.995  0.2647 -0.1564  0.0160
  748POPS   C1A10113  15.709  17.984   6.160  0.0535  0.0947 -0.3121
  748POPS   D2A10114  15.770  17.722   6.454 -0.1208 -0.0081 -0.2093
  748POPS   C3A10115  15.477  17.416   6.526  0.0192 -0.1366 -0.1445
  748POPS   C4A10116  15.042  17.372   6.557  0.1676 -0.2234 -0.2456
  748POPS   C1B10117  15.977  18.315   6.474 -0.0219 -0.0505  0.5148
  748POPS   C2B10118  16.174  18.346   6.757 -0.0484 -0.0696 -0.0495
  748POPS   C3B10119  16.460  18.459   7.207  0.1139  0.2051 -0.2827
  748POPS   C4B10120  16.645  18.768   7.444  0.0278  0.1179 -0.1669
  749POPS   CNO10121   5.248   4.544   5.457  0.0620  0.0955 -0.0473
  749POPS   PO410122   5.402   4.547   5.859  0.0414  0.0100 -0.1159
  749POPS   GL110123   5.470   4.491   6.327 -0.1292 -0.0065  0.0258
  749POPS   GL210124   5.744   4.147   6.341  0.2259 -0.0077 -0.0109
  749POPS   C1A10125   5.431   4.318   6.692 -0.0056 -0.0379 -0.0581
  749POPS   D2A10126   5.479   4.355   7.032 -0.0810  0.3942 -0.0282
  749POPS   C3A10127   5.327   4.643   7.411 -0.0310 -0.1183  0.1103
  749POPS   C4A10128   5.372   4.753   7.846  0.2425  0.3859 -0.1666
  749POPS   C1B10129   5.941   4.103   6.730 -0.0081 -0.1971 -0.1469
  749POPS   C2B10130   5.958   4.044   7.198  0.1196  0.3435  0.1559
  749POPS   C3B10131   5.707   4.371   7.454  0.2121 -0.0575  0.1022
  749POPS   C4B10132   5.836   4.817   7.373 -0.4189  0.1773 -0.1657
  750POPS   CNO10133   4.707   4.693   5.306 -0.0160 -0.1036  0.3561
  750POPS   PO410134   4.540   4.982   5.758  0.1874 -0.1855 -0.0928
  750POPS   GL110135   4.672   5.038   6.121 -0.1886 -0.2009 -0.1383
  750POPS   GL210136   4.946   4.873   6.307  0.0043 -0.0787  0.0894
  750POPS   C1A10137   4.467   5.189   6.473  0.1199 -0.2717 -0.3280
  750POPS   D2A10138   4.440   5.086   6.964  0.2282 -0.2514  0.3590
  750POPS   C3A10139   4.296   5.225   7.395 -0.3945 -0.2768 -0.1910
  750POPS   C4A10140   4.273   5.101   7.829 -0.1022 -0.2276 -0.2408
  750POPS   C1B10141   4.916   4.904   6.702 -0.1919 -0.1074  0.0076
  750POPS   C2B10142   4.913   4.924   7.105 -0.0500 -0.2086  0.1072
  750POPS   C3B10143   4.856   4.888   7.599  0.0803 -0.0159 -0.0926
  750POPS   C4B10144   4.910   4.904   8.050 -0.0604  0.1439 -0.3025
  751POPS   CNO10145   8.608  16.692   5.866 -0.2718  0.0979  0.1227
  751POPS   PO410146   8.213  16.509   5.877 -0.3800 -0.0481  0.1743
  751POPS   GL110147   8.121  16.504   6.176 -0.3657 -0.3090  0.1566
  751POPS   GL210148   7.740  16.706   6.119 -0.2912 -0.1858  0.3189
  751POPS   C1A10149   8.043  16.580   6.572  0.4819 -0.3566  0.0456
  751POPS   D2A10150   8.062  16.614   7.002  0.2112 -0.5261 -0.1883
  751POPS   C3A10151   8.031  16.425   7.389 -0.2177 -0.0837 -0.0071
  751POPS   C4A10152   8.000  16.520   7.744  0.1707 -0.2113  0.2930
  751POPS   C1B10153   7.543  16.667   6.457  0.4278 -0.0893  0.0998
  751POPS   C2B10154   7.643  16.865   6.912 -0.1110 -0.2098 -0.0186
  751POPS   C3B10155   7.884  16.850   7.376 -0.1266 -0.3794  0.0747
  751POPS   C4B10156   8.225  17.007   7.739  0.2689  0.1197 -0.0242
  752POPS   CNO10157  15.896  16.627   5.317  0.1956 -0.0242  0.0155
  752POPS   PO410158  15.969  16.420   5.670 -0.0366 -0.3567  0.0605
  752POPS   GL110159  15.732  16.329   6.117  0.4841 -0.0514  0.3677
  752POPS   GL210160  15.527  16.529   6.182  0.2074 -0.2631  0.1152
  752POPS   C1A10161  15.916  16.108   6.497  0.0765  0.0675 -0.2340
  752POPS   D2A10162  16.064  15.838   6.868  0.2492 -0.2394  0.1408
  752POPS   C3A10163  16.318  15.932   7.144  0.3268 -0.0789 -0.1906
  752POPS   C4A10164  16.450  15.851   7.552  0.0553 -0.0520  0.0628
  752POPS   C1B10165  15.638  16.808   6.424 -0.0741  0.0419  0.4007
  752POPS   C2B10166  15.839  17.004   6.650  0.0626  0.0793 -0.3218
  752POPS   C3B10167  16.289  17.033   6.928  0.0040 -0.1541  0.0685
  752POPS   C4B10168  16.655  17.284   7.100 -0.1776  0.1727  0.3614
  753POPS   CNO10169  18.466   3.377   5.384  0.0353 -0.1088 -0.1434
  753POPS   PO410170  18.069   3.511   5.487 -0.2816  0.0271 -0.1029
  753POPS   GL110171  18.139   3.442   5.841 -0.1449 -0.2426 -0.2816
  753POPS   GL210172  18.324   3.401   6.010  0.0608 -0.0976  0.0540
  753POPS   C1A10173  17.931   3.199   6.193  0.3415 -0.0224  0.0548
  753POPS   D2A10174  17.949   2.963   6.510  0.0224  0.1336  0.0167
  753POPS   C3A10175  18.055   3.298   6.754  0.0065  0.1213  0.1747
  753POPS   C4A10176  17.760   3.633   6.816 -0.2307 -0.2247  0.2792
  753POPS   C1B10177  18.199   3.584   6.370 -0.3413 -0.1843  0.0037
  753POPS   C2B10178  18.324   3.851   6.527 -0.0174 -0.2325  0.1048
  753POPS   C3B10179  18.636   3.933   6.934 -0.0682  0.3202  0.0605
  753POPS   C4B10180  19.098   3.856   7.010 -0.3120 -0.1424 -0.1494
  754POPS   CNO10181   0.153  16.445   5.051  0.2165  0.3095  0.1567
  754POPS   PO410182   0.322  16.835   4.832 -0.1354  0.2643  0.1507
  754POPS   GL110183   0.629  16.605   5.201 -0.5068  0.2797 -0.0978
  754POPS   GL210184   0.945  16.739   5.315  0.1914  0.2023  0.2109
  754POPS   C1A10185   0.338  16.523   5.457 -0.3220 -0.0118  0.1954
  754POPS   D2A10186   0.052  16.259   5.671  0.0421 -0.1311  0.2817
  754POPS   C3A10187  -0.301  16.483   5.882 -0.0701  0.1357 -0.1042
  754POPS   C4A10188  -0.695  16.162   6.032 -0.2050  0.2599 -0.0690
  754POPS   C1B10189   1.204  16.876   5.697  0.1429  0.3622  0.1002
  754POPS   C2B10190   1.389  16.835   6.059  0.3035  0.2551 -0.0300
  754POPS   C3B10191   1.384  16.895   6.552 -0.2616 -0.1122 -0.0466
  754POPS   C4B10192   1.293  17.020   6.944  0.2648 -0.0411 -0.1322
  755POPS   CNO10193   6.573   8.465   5.835  0.4220  0.0529 -0.2646
  755POPS   PO410194   6.493   8.594   6.183 -0.0693 -0.1262  0.0571
  755POPS   GL110195   6.689   8.645   6.628  0.0290  0.2424  0.0482
  755POPS   GL210196   6.777   8.968   6.625  0.0358  0.1256  0.3092
  755POPS   C1A10197   6.701   8.770   7.110  0.1383  0.1060 -0.1111
  755POPS   D2A10198   6.925   8.912   7.344  0.0539 -0.1354 -0.1794
  755POPS   C3A10199   7.094   8.918   7.780  0.0901 -0.1199  0.0780
  755POPS   C4A10200   7.342   8.916   8.189  0.0237  0.0400  0.2952
  755POPS   C1B10201   7.120   8.960   6.905 -0.1437  0.2176 -0.2249
  755POPS   C2B10202   7.339   8.726   7.231 -0.2769  0.0579 -0.0118
  755POPS   C3B10203   7.588   9.058   7.514  0.1133 -0.0250 -0.0964
  755POPS   C4B10204   7.759   8.972   8.002 -0.0768  0.0986 -0.0146
  756POPS   CNO10205   0.221   7.953   6.241 -0.3406  0.0300  0.0990
  756POPS   PO410206  -0.155   8.083   6.080  0.2974 -0.1978 -0.1170
  756POPS   GL110207  -0.526   8.112   6.339  0.1331  0.0551 -0.1599
  756POPS   GL210208  -0.724   8.365   6.432  0.2251 -0.1964  0.0195
  756POPS   C1A10209  -0.784   7.918   6.665 -0.3111 -0.3005 -0.0886
  756POPS   D2A10210  -1.126   7.886   6.919 -0.0473 -0.1353  0.1842
  756POPS   C3A10211  -1.414   8.133   7.199  0.2120  0.1493 -0.1209
  756POPS   C4A10212  -1.723   8.240   7.690  0.0965  0.0207  0.1017
  756POPS   C1B10213  -0.699   8.430   6.891  0.0730  0.0710  0.2824
  756POPS   C2B10214  -0.800   8.091   7.188  0.0370 -0.1014 -0.3110
  756POPS   C3B10215  -0.978   7.926   7.542 -0.3112  0.0259 -0.2061
  756POPS   C4B10216  -1.017   8.223   7.916 -0.1083  0.2281 -0.1403
  757POPS   CNO10217  11.295  17.951   5.446 -0.0431 -0.0552  0.0538
  757POPS   PO410218  11.341  18.210   5.918 -0.0884  0.1922 -0.0730
  757POPS   GL110219  11.221  18.063   6.378 -0.2649 -0.2783  0.1208
  757POPS   GL210220  11.124  17.875   6.265  0.1406 -0.2336 -0.1027
  757POPS   C1A10221  11.248  17.887   6.815 -0.1022  0.3448 -0.1531
  757POPS   D2A10222  11.179  17.646   7.175 -0.0799  0.3706  0.2221
  757POPS   C3A10223  11.392  17.805   7.469  0.3036  0.0957  0.0355
  757POPS   C4A10224  11.475  17.640   7.883 -0.3999  0.1160 -0.1040
  757POPS   C1B10225  10.769  17.744   6.669 -0.1335 -0.3847 -0.2307
  757POPS   C2B10226  10.626  17.687   7.145 -0.1261  0.2177  0.1781
  757POPS   C3B10227  10.647  17.697   7.600  0.1232  0.0587  0.0849
  757POPS   C4B10228  10.652  17.692   8.000 -0.1175 -0.0982 -0.1725
  758POPS   CNO10229  16.351  10.212   5.822 -0.2855  0.1315  0.2146
  758POPS   PO410230  16.673  10.546   6.027 -0.0414 -0.2335  0.2906
  758POPS   GL110231  16.484  10.518   6.414 -0.2520 -0.0793 -0.1439
  758POPS   GL210232  16.150  10.555   6.582  0.1780  0.1048  0.1166
  758POPS   C1A10233  16.645  10.616   6.861 -0.0159 -0.1632 -0.3744
  758POPS   D2A10234  16.664  10.578   7.259 -0.1239  0.0826 -0.4660
  758POPS   C3A10235  16.692  10.378   7.593 -0.1474 -0.0738  0.1391
  758POPS   C4A10236  16.709  10.348   8.016 -0.3589 -0.3540  0.4152
  758POPS   C1B10237  16.184  10.349   6.995 -0.1129  0.0635  0.1030
  758POPS   C2B10238  16.312  10.170   7.339  0.1668  0.0223 -0.6004
  758POPS   C3B10239  16.091   9.961   7.735  0.0588  0.0176 -0.2471
  758POPS   C4B10240  15.970  10.022   8.204  0.0228  0.2080  0.2335
  759POPS   CNO10241   9.687   2.366   6.152 -0.0875  0.0397  0.3381
  759POPS   PO410242   9.720   2.768   6.090  0.0456 -0.3707  0.1259
  759POPS   GL110243   9.697   2.954   6.462 -0.0596 -0.3174  0.0914
  759POPS   GL210244  10.062   2.864   6.621  0.0567 -0.2691 -0.2370
  759POPS   C1A10245   9.365   2.961   6.737 -0.1042  0.5014  0.0041
  759POPS   D2A10246   9.298   3.229   7.121  0.2395  0.3189 -0.0962
  759POPS   C3A10247   9.049   3.140   7.464  0.1259  0.1808  0.1591
  759POPS   C4A10248   8.971   3.151   7.818  0.1105  0.0695 -0.2640
  759POPS   C1B10249   9.811   2.900   7.002  0.3116  0.3343 -0.2260
  759POPS   C2B10250   9.651   2.990   7.450  0.0733  0.1534  0.0859
  759POPS   C3B10251   9.313   2.759   7.755 -0.0328  0.0134 -0.0292
  759POPS   C4B10252   9.140   2.546   7.939 -0.0258 -0.1095 -0.2549
  760POPS   CNO10253   8.698  15.672   5.219 -0.0067  0.2700  0.2488
  760POPS   PO410254   8.401  15.454   5.601  0.2647 -0.0300  0.1623
  760POPS   GL110255   8.633  15.270   5.970  0.1597 -0.2382 -0.1061
  760POPS   GL210256   8.767  15.501   6.107  0.0667 -0.3612 -0.1801
  760POPS   C1A10257   8.470  15.098   6.354  0.0554  0.1956 -0.0050
  760POPS   D2A10258   8.187  14.999   6.785 -0.1943 -0.0962  0.0688
  760POPS   C3A10259   8.387  14.853   7.200  0.1059  0.0214 -0.1436
  760POPS   C4A10260   8.773  14.854   7.494  0.0788  0.1150  0.0708
  760POPS   C1B10261   8.706  15.623   6.462 -0.3874  0.0231  0.2487
  760POPS   C2B10262   8.456  15.630   6.774  0.2443  0.0070 -0.3330
  760POPS   C3B10263   8.239  15.787   7.136 -0.0274 -0.1590 -0.3689
  760POPS   C4B10264   8.307  15.930   7.465 -0.2667 -0.1541 -0.1812
  761POPS   CNO10265  11.772  15.355   5.677 -0.1527  0.2134 -0.0351
  761POPS   PO410266  12.117  15.282   5.719  0.1556 -0.0206  0.0962
  761POPS   GL110267  12.170  15.297   6.118  0.2394 -0.0349 -0.0375
  761POPS   GL210268  12.112  15.555   6.179 -0.1722 -0.0496  0.0408
  761POPS   C1A10269  12.067  15.107   6.525 -0.2462 -0.2660 -0.0815
  761POPS   D2A10270  11.962  15.188   6.851  0.1080 -0.2238 -0.1060
  761POPS   C3A10271  12.231  15.235   7.207 -0.1215  0.1159  0.1177
  761POPS   C4A10272  12.566  15.157   7.567 -0.0036 -0.1882  0.3286
  761POPS   C1B10273  12.101  15.601   6.582 -0.2122  0.3045  0.2737
  761POPS   C2B10274  12.310  15.670   6.932 -0.2346 -0.0419  0.3506
  761POPS   C3B10275  12.502  15.603   7.333  0.2324 -0.0070  0.1969
  761POPS   C4B10276  12.654  15.609   7.800  0.0865 -0.2512 -0.2780
  762POPS   CNO10277   7.933   8.836   6.552  0.1460  0.1058 -0.1469
  762POPS   PO410278   8.083   8.519   6.356 -0.0828 -0.0613 -0.2173
  762POPS   GL110279   8.091   8.387   6.762  0.0571 -0.2006 -0.1068
  762POPS   GL210280   8.286   8.652   6.927  0.0546  0.0594  0.2536
  762POPS   C1A10281   8.073   8.200   7.332  0.1801  0.0188  0.4889
  762POPS   D2A10282   8.041   8.466   7.750 -0.2787  0.1768  0.0808
  762POPS   C3A10283   7.945   8.349   8.128 -0.0057 -0.1199  0.0590
  762POPS   C4A10284   7.553   8.384   8.245  0.2857  0.3693 -0.5183
  762POPS   C1B10285   7.787   8.513   7.103  0.0114  0.1527  0.0262
  762POPS   C2B10286   7.611   8.206   7.505 -0.3038 -0.0502 -0.1948
  762POPS   C3B10287   7.604   8.038   7.859 -0.0916  0.1777  0.1008
  762POPS   C4B10288   7.646   7.820   8.204  0.3672 -0.0035  0.0410
  763POPS   CNO10289  17.289   3.749   5.420  0.3509  0.2149 -0.1911
  763POPS   PO410290  17.163   3.672   5.891 -0.0769  0.0314 -0.3086
  763POPS   GL110291  17.470   3.426   6.232  0.2330 -0.0110 -0.0641
  763POPS   GL210292  17.449   3.110   6.121  0.0521  0.0681  0.0071
  763POPS   C1A10293  17.518   3.268   6.601  0.1505  0.3763 -0.2767
  763POPS   D2A10294  17.651   3.102   6.930  0.0838  0.1953 -0.0145
  763POPS   C3A10295  17.683   3.338   7.221  0.0789 -0.1500 -0.0833
  763POPS   C4A10296  17.755   3.695   7.306 -0.3017  0.0550  0.2293
  763POPS   C1B10297  17.637   2.796   6.201  0.1799  0.3206 -0.0067
  763POPS   C2B10298  17.823   2.408   6.376 -0.0347 -0.0022 -0.0482
  763POPS   C3B10299  18.101   2.120   6.383  0.0028  0.0646  0.1839
  763POPS   C4B10300  18.490   2.042   6.600  0.0192 -0.0808  0.2567
  764POPS   CNO10301   3.472   7.180   5.567  0.0237  0.2731 -0.1580
  764POPS   PO410302   3.611   7.243   6.004  0.2239  0.0418 -0.1229
  764POPS   GL110303   3.602   6.956   6.325 -0.2706  0.1017 -0.0456
  764POPS   GL210304   3.799   6.635   6.322 -0.3535  0.0006  0.0105
  764POPS   C1A10305   3.341   6.985   6.724 -0.2298 -0.3328 -0.0283
  764POPS   D2A10306   3.429   7.232   7.125  0.1385  0.1303  0.3253
  764POPS   C3A10307   3.434   7.014   7.484  0.1495  0.3184  0.0670
  764POPS   C4A10308   3.624   7.104   8.014  0.1189  0.0788 -0.2978
  764POPS   C1B10309   3.963   6.602   6.743  0.1428  0.1801 -0.0308
  764POPS   C2B10310   4.145   6.585   7.155  0.1007  0.1898 -0.0661
  764POPS   C3B10311   4.348   6.309   7.345 -0.2606 -0.1840 -0.1083
  764POPS   C4B10312   4.516   5.845   7.555  0.1595  0.0863 -0.5224
  765POPS   CNO10313   5.601  12.931   6.085  0.2644  0.3889 -0.0140
  765POPS   PO410314   5.674  13.311   6.259 -0.1353 -0.0815  0.2624
  765POPS   GL110315   5.464  13.067   6.529 -0.2385 -0.2621  0.1831
  765POPS   GL210316   5.794  12.934   6.578  0.0287 -0.0338 -0.0070
  765POPS   C1A10317   5.333  12.749   6.779  0.1120 -0.0071 -0.0696
  765POPS   D2A10318   5.319  12.706   7.242 -0.0742  0.1669  0.0071
  765POPS   C3A10319   5.420  12.385   7.356  0.0549 -0.1505 -0.3450
  765POPS   C4A10320   5.583  12.090   7.679  0.1865 -0.0961  0.1470
  765POPS   C1B10321   5.681  13.050   7.056  0.4392  0.0420 -0.1651
  765POPS   C2B10322   5.579  13.090   7.413  0.0361  0.0264 -0.2709
  765POPS   C3B10323   5.436  13.290   7.829 -0.0748  0.2079 -0.0206
  765POPS   C4B10324   5.131  13.433   8.158  0.0993  0.2030  0.2363
  766POPS   CNO10325  15.669   4.710   6.098  0.4158  0.1366  0.0709
  766POPS   PO410326  15.958   4.492   6.348 -0.1311 -0.0858 -0.1551
  766POPS   GL110327  16.166   4.200   6.560  0.2560 -0.1150  0.1338
  766POPS   GL210328  16.122   4.458   6.887 -0.0037  0.3548 -0.0950
  766POPS   C1A10329  16.214   3.972   6.952  0.0679 -0.1278  0.2276
  766POPS   D2A10330  16.189   3.855   7.350 -0.3699  0.0963 -0.1153
  766POPS   C3A10331  16.105   3.686   7.780 -0.2079 -0.2279 -0.1639
  766POPS   C4A10332  15.890   3.442   8.153  0.1528 -0.0710 -0.3965
  766POPS   C1B10333  16.268   4.343   7.310  0.0004 -0.0702 -0.1149
  766POPS   C2B10334  16.530   4.145   7.530 -0.2773  0.1325 -0.0031
  766POPS   C3B10335  16.685   3.881   7.910 -0.0541 -0.2178  0.2063
  766POPS   C4B10336  16.920   3.782   8.216 -0.0083 -0.1039 -0.0317
  767POPS   CNO10337   1.310  16.014   4.754 -0.0302  0.5959  0.2640
  767POPS   PO410338   0.996  16.205   4.883 -0.0362  0.2027 -0.3097
  767POPS   GL110339   0.994  16.249   5.361  0.0556 -0.0881  0.0166
  767POPS   GL210340   1.265  16.343   5.570  0.5289 -0.0677 -0.0296
  767POPS   C1A10341   0.798  16.391   5.683  0.0307 -0.1075  0.2489
  767POPS   D2A10342   0.832  16.482   6.090 -0.0082  0.4296 -0.0177
  767POPS   C3A10343   1.014  16.533   6.512  0.1584  0.1425 -0.2873
  767POPS   C4A10344   0.718  16.696   6.852  0.1868 -0.1554 -0.1528
  767POPS   C1B10345   1.287  16.357   5.996  0.2584  0.0511 -0.1458
  767POPS   C2B10346   1.507  16.453   6.387 -0.0908 -0.3504  0.0787
  767POPS   C3B10347   1.747  16.524   6.722 -0.1991  0.3113 -0.3311
  767POPS   C4B10348   1.507  16.568   7.167 -0.0486 -0.3860  0.1863
  768POPS   CNO10349   6.909  12.652   6.153  0.1593 -0.3960  0.0292
  768POPS   PO410350   6.690  12.492   5.804 -0.0530 -0.0151  0.2367
  768POPS   GL110351   6.455  12.754   6.274 -0.4349  0.0235  0.0594
  768POPS   GL210352   6.081  12.692   6.328  0.0520 -0.0590 -0.1308
  768POPS   C1A10353   6.305  12.995   6.673 -0.1416  0.4965  0.3378
  768POPS   D2A10354   6.201  13.064   7.009 -0.1738 -0.1158  0.1172
  768POPS   C3A10355   6.454  13.053   7.442  0.5755  0.1186  0.4271
  768POPS   C4A10356   6.869  12.815   7.741 -0.0640  0.1700 -0.0116
  768POPS   C1B10357   6.068  12.513   6.761 -0.2077  0.1866 -0.0395
  768POPS   C2B10358   5.843  12.574   7.182 -0.0988 -0.1086  0.1543
  768POPS   C3B10359   6.058  12.359   7.623 -0.1683  0.0371 -0.0706
  768POPS   C4B10360   6.065  12.120   7.900  0.0051  0.0364  0.2802
  769POPS   CNO10361  14.388  13.318   5.366 -0.2306 -0.1752 -0.0816
  769POPS   PO410362  13.940  13.256   5.455  0.2326  0.2099 -0.0646
  769POPS   GL110363  14.112  13.424   5.885 -0.0152  0.0074 -0.1465
  769POPS   GL210364  14.347  13.275   6.160  0.0894 -0.2129 -0.1588
  769POPS   C1A10365  13.941  13.456   6.349  0.1036 -0.1496 -0.1860
  769POPS   D2A10366  13.778  13.348   6.742 -0.2944 -0.0350  0.0624
  769POPS   C3A10367  14.051  13.090   7.004 -0.0042  0.1228 -0.0773
  769POPS   C4A10368  14.314  12.885   7.360 -0.2226  0.0550 -0.4925
  769POPS   C1B10369  14.337  13.291   6.632 -0.0762 -0.1289 -0.0072
  769POPS   C2B10370  14.249  13.664   6.837 -0.1882  0.0138  0.0670
  769POPS   C3B10371  14.236  13.937   7.155 -0.2871 -0.1975  0.2163
  769POPS   C4B10372  14.027  14.061   7.585  0.2279  0.0028  0.0906
  770POPS   CNO10373  10.643  12.304   5.976  0.2456 -0.0452  0.0369
  770POPS   PO410374  11.044  12.010   5.986 -0.0187  0.0016 -0.2837
  770POPS   GL110375  11.248  12.212   6.429 -0.0484 -0.1280 -0.1021
  770POPS   GL210376  10.909  12.260   6.397 -0.3345 -0.0329  0.1475
  770POPS   C1A10377  11.445  12.481   6.769 -0.1794 -0.1415 -0.0360
  770POPS   D2A10378  11.342  12.735   7.173 -0.1134 -0.1271  0.0237
  770POPS   C3A10379  11.704  12.717   7.424  0.0240 -0.1100  0.0755
  770POPS   C4A10380  11.903  12.517   7.846  0.1361  0.2059  0.0400
  770POPS   C1B10381  10.716  12.108   6.675  0.1976 -0.0731 -0.0575
  770POPS   C2B10382  10.814  11.948   7.127 -0.1267 -0.1684  0.4857
  770POPS   C3B10383  10.736  11.748   7.408 -0.1641  0.0109  0.0071
  770POPS   C4B10384  10.503  11.485   7.740  0.0542  0.1367  0.0295
  771POPS   CNO10385  11.374  13.152   5.644 -0.3755  0.1065  0.0428
  771POPS   PO410386  11.474  12.880   5.916  0.1405 -0.1143  0.5863
  771POPS   GL110387  11.386  12.972   6.334  0.0587  0.2326  0.0976
  771POPS   GL210388  11.141  12.799   6.410  0.0912  0.2101  0.4379
  771POPS   C1A10389  11.475  13.052   6.790  0.2426 -0.0417 -0.3226
  771POPS   D2A10390  11.536  13.170   7.239 -0.0354 -0.1607 -0.0679
  771POPS   C3A10391  11.994  13.191   7.382 -0.2007  0.3962  0.0227
  771POPS   C4A10392  12.132  13.393   7.723 -0.4410  0.1908  0.1696
  771POPS   C1B10393  10.936  12.572   6.782 -0.0336  0.0576  0.0393
  771POPS   C2B10394  10.869  12.501   7.159  0.1472  0.0887  0.2514
  771POPS   C3B10395  10.923  12.654   7.650 -0.0589 -0.0541  0.1875
  771POPS   C4B10396  11.124  12.857   8.049  0.3131  0.0280 -0.1507
  772POPS   CNO10397   0.647  13.959   5.382 -0.4960  0.0792  0.1170
  772POPS   PO410398   0.348  14.252   5.489  0.3659  0.4793  0.1480
  772POPS   GL110399   0.446  14.396   5.792 -0.2108  0.0539 -0.2235
  772POPS   GL210400   0.260  14.605   5.949  0.1942 -0.0418  0.0570
  772POPS   C1A10401   0.651  14.339   6.164  0.1935  0.0381 -0.0150
  772POPS   D2A10402   0.588  14.427   6.561  0.1691 -0.0197 -0.1174
  772POPS   C3A10403   0.816  14.510   6.977 -0.1817  0.1160 -0.1507
  772POPS   C4A10404   1.168  14.695   7.134 -0.1891 -0.0015  0.0045
  772POPS   C1B10405   0.340  14.804   6.253  0.2513 -0.2108 -0.1146
  772POPS   C2B10406   0.544  15.220   6.423  0.1311 -0.1973 -0.0799
  772POPS   C3B10407   0.814  15.544   6.664  0.1521 -0.0496  0.2080
  772POPS   C4B10408   0.786  15.877   6.931 -0.1028 -0.1936 -0.0283
  773POPS   CNO10409  10.935  16.760   5.500 -0.1282 -0.1418  0.1676
  773POPS   PO410410  11.096  16.580   5.857  0.0495  0.0132  0.3272
  773POPS   GL110411  11.277  16.539   6.287 -0.1559  0.0341 -0.0727
  773POPS   GL210412  11.227  16.844   6.370 -0.1737 -0.0546 -0.1433
  773POPS   C1A10413  11.250  16.413   6.718 -0.0530 -0.1688 -0.1376
  773POPS   D2A10414  11.326  16.284   7.172  0.1150  0.3738 -0.3664
  773POPS   C3A10415  10.979  16.114   7.438  0.0532  0.3229  0.1235
  773POPS   C4A10416  10.968  15.759   7.590 -0.3107  0.0514 -0.0624
  773POPS   C1B10417  11.460  16.917   6.707 -0.3532 -0.0291  0.2085
  773POPS   C2B10418  11.446  16.741   7.133  0.4314 -0.0977  0.2003
  773POPS   C3B10419  11.400  16.633   7.539 -0.1022 -0.1401 -0.0177
  773POPS   C4B10420  11.498  16.371   7.843  0.2379 -0.1565  0.0478
  774POPS   CNO10421   5.136  18.254   5.299  0.0612  0.0880  0.0894
  774POPS   PO410422   4.722  18.094   5.082  0.1438  0.0763  0.1940
  774POPS   GL110423   4.652  18.098   5.558 -0.3698  0.0257  0.0564
  774POPS   GL210424   4.508  17.838   5.498 -0.0780  0.1876 -0.1602
  774POPS   C1A10425   4.318  18.225   5.816 -0.0009 -0.1078 -0.1635
  774POPS   D2A10426   4.217  18.471   6.194  0.0266  0.0344 -0.1612
  774POPS   C3A10427   3.861  18.311   6.227 -0.0928  0.0004 -0.2491
  774POPS   C4A10428   3.447  18.111   6.101 -0.0750 -0.0143  0.0968
  774POPS   C1B10429   4.284  17.485   5.613  0.2081  0.0518  0.2329
  774POPS   C2B10430   4.272  17.130   5.857  0.1299 -0.1004  0.2349
  774POPS   C3B10431   4.286  16.744   5.953  0.2096 -0.0247  0.1415
  774POPS   C4B10432   4.176  16.413   5.770  0.1588  0.1590 -0.0072
  775POPS   CNO10433  10.111  15.367   5.471  0.1362 -0.0351  0.0196
  775POPS   PO410434  10.497  15.563   5.646 -0.0332 -0.3643  0.0035
  775POPS   GL110435  10.545  15.646   6.193 -0.3436 -0.2266  0.1723
  775POPS   GL210436  10.621  15.362   6.227 -0.2893 -0.1078 -0.0972
  775POPS   C1A10437  10.502  15.657   6.671 -0.0846 -0.2763  0.0678
  775POPS   D2A10438  10.236  15.800   7.005  0.1427 -0.2236  0.2976
  775POPS   C3A10439  10.157  15.529   7.332 -0.1414 -0.2890  0.2400
  775POPS   C4A10440  10.077  15.763   7.637 -0.1663 -0.0635 -0.0012
  775POPS   C1B10441  10.676  15.183   6.702  0.2258  0.0455  0.0030
  775POPS   C2B10442  10.692  15.199   7.149 -0.0895 -0.0616 -0.0670
  775POPS   C3B10443  10.642  15.268   7.566 -0.2107 -0.3126  0.0859
  775POPS   C4B10444  11.031  15.124   7.898  0.2118 -0.3257 -0.0951
  776POPS   CNO10445   3.397   4.188   5.703  0.2607 -0.2615 -0.0125
  776POPS   PO410446   3.013   4.123   5.357  0.1518  0.2102  0.0254
  776POPS   GL110447   2.872   4.077   5.672 -0.0175 -0.1714 -0.1010
  776POPS   GL210448   2.896   4.252   5.889 -0.3143 -0.0442 -0.0545
  776POPS   C1A10449   2.846   3.767   6.063  0.1310  0.0540  0.0386
  776POPS   D2A10450   3.041   3.469   6.402  0.1958  0.3854  0.1983
  776POPS   C3A10451   3.131   3.878   6.634 -0.1283 -0.1832 -0.0856
  776POPS   C4A10452   3.123   3.962   7.016 -0.1774  0.4661  0.3653
  776POPS   C1B10453   2.752   4.198   6.310 -0.0838 -0.1107 -0.1847
  776POPS   C2B10454   2.639   3.975   6.810 -0.1026  0.2970  0.0508
  776POPS   C3B10455   2.707   3.703   7.274  0.4455  0.0139  0.1962
  776POPS   C4B10456   2.932   3.472   7.600 -0.2755  0.2900  0.4204
  777POPS   CNO10457   0.322   0.659   5.014  0.0044  0.0517 -0.0138
  777POPS   PO410458   0.392   0.376   5.250 -0.0440 -0.1235 -0.1137
  777POPS   GL110459   0.374   0.538   5.639 -0.0735 -0.1534 -0.1006
  777POPS   GL210460   0.645   0.662   5.793 -0.1146 -0.3377 -0.0882
  777POPS   C1A10461   0.267   0.264   6.025 -0.0426  0.0730  0.0254
  777POPS   D2A10462   0.181   0.409   6.313 -0.0662  0.0639 -0.0959
  777POPS   C3A10463   0.277   0.357   6.769  0.0723 -0.0752  0.1350
  777POPS   C4A10464   0.194   0.269   7.160  0.0407 -0.0110 -0.0096
  777POPS   C1B10465   0.856   0.526   6.190  0.4203  0.3804  0.0989
  777POPS   C2B10466   1.184   0.451   6.536 -0.1669  0.0864 -0.0781
  777POPS   C3B10467   1.434   0.353   6.813 -0.0292  0.0338 -0.0802
  777POPS   C4B10468   1.487   0.229   7.255 -0.0135 -0.0769  0.2588
  778POPS   CNO10469   1.375   3.256   5.451 -0.0583  0.0611 -0.0825
  778POPS   PO410470   1.147   2.874   5.541 -0.1286  0.1300  0.0414
  778POPS   GL110471   0.917   3.194   5.651  0.0088  0.0396  0.1548
  778POPS   GL210472   0.614   3.198   5.852 -0.2894 -0.1133 -0.3075
  778POPS   C1A10473   1.060   3.405   6.042  0.1923 -0.1983 -0.0089
  778POPS   D2A10474   1.204   3.454   6.460  0.2854  0.1366  0.0594
  778POPS   C3A10475   1.715   3.325   6.606 -0.0792  0.1278  0.1959
  778POPS   C4A10476   2.116   3.236   6.710 -0.2797 -0.1801  0.1055
  778POPS   C1B10477   0.703   3.156   6.248 -0.0927  0.1224  0.4325
  778POPS   C2B10478   0.712   2.919   6.601  0.0937  0.0433 -0.2023
  778POPS   C3B10479   0.748   2.891   6.960 -0.0720  0.3398  0.0026
  778POPS   C4B10480   0.949   2.906   7.295 -0.0075  0.1524  0.1847
  779POPS   CNO10481  16.434   4.695   6.553 -0.1941  0.0083 -0.1757
  779POPS   PO410482  16.118   4.942   6.388  0.1642  0.0698 -0.2553
  779POPS   GL110483  16.106   5.064   6.811 -0.1108 -0.2430 -0.0618
  779POPS   GL210484  16.270   4.899   6.970 -0.1764  0.1613 -0.0720
  779POPS   C1A10485  15.962   5.200   7.291 -0.2352 -0.1636 -0.2419
  779POPS   D2A10486  16.135   5.113   7.653  0.2244  0.0100  0.0545
  779POPS   C3A10487  16.460   4.943   7.816 -0.4223  0.1102 -0.1936
  779POPS   C4A10488  16.525   4.573   7.894 -0.0658  0.0001  0.4855
  779POPS   C1B10489  15.915   4.705   7.287 -0.3730 -0.2739  0.0052
  779POPS   C2B10490  15.664   4.745   7.600  0.2004  0.2211  0.2583
  779POPS   C3B10491  15.618   4.562   7.981  0.0246 -0.4218  0.0177
  779POPS   C4B10492  15.752   4.221   8.122  0.2650 -0.0157  0.0118
  780POPS   CNO10493   7.262   5.604   5.591  0.0654 -0.2575  0.1892
  780POPS   PO410494   7.041   5.873   5.830  0.1674 -0.2381 -0.1121
  780POPS   GL110495   6.951   5.864   6.217 -0.0153 -0.0335 -0.0192
  780POPS   GL210496   6.899   5.550   6.263 -0.2544  0.1267 -0.0079
  780POPS   C1A10497   7.119   5.913   6.620 -0.2840  0.2159 -0.2815
  780POPS   D2A10498   7.066   5.910   7.033  0.1260  0.1968 -0.3667
  780POPS   C3A10499   7.426   5.825   7.244  0.3266 -0.0698 -0.0602
  780POPS   C4A10500   7.816   5.535   7.178 -0.0320 -0.0679  0.0245
  780POPS   C1B10501   7.245   5.343   6.462 -0.0554  0.0746 -0.0862
  780POPS   C2B10502   7.581   5.607   6.615 -0.1151 -0.0562 -0.1870
  780POPS   C3B10503   8.109   5.648   6.762 -0.0747 -0.0419 -0.0188
  780POPS   C4B10504   8.373   5.959   6.664  0.0896  0.0266 -0.0760
  781POPS   CNO10505  11.265   0.849   5.866 -0.1617  0.2760 -0.0395
  781POPS   PO410506  11.096   1.044   6.141 -0.1474  0.4554 -0.0420
  781POPS   GL110507  11.024   1.172   6.580  0.0215 -0.0135  0.0507
  781POPS   GL210508  11.104   1.436   6.654  0.0126  0.2212  0.1186
  781POPS   C1A10509  11.041   1.115   7.055 -0.0365  0.2600  0.1473
  781POPS   D2A10510  11.043   1.277   7.408 -0.1378 -0.1539 -0.1243
  781POPS   C3A10511  11.089   0.969   7.674  0.2918  0.2374 -0.1620
  781POPS   C4A10512  11.210   0.806   8.024 -0.1521 -0.0709  0.3158
  781POPS   C1B10513  11.279   1.740   6.916  0.0072  0.0450  0.3987
  781POPS   C2B10514  11.468   1.655   7.322  0.0437  0.0118 -0.1685
  781POPS   C3B10515  11.864   1.637   7.626  0.2320 -0.1012  0.2611
  781POPS   C4B10516  11.976   1.467   8.042 -0.1081 -0.1600  0.1678
  782POPS   CNO10517  13.773   8.460   5.851  0.0806  0.0128  0.0679
  782POPS   PO410518  13.999   8.694   6.048  0.3217  0.2617  0.1253
  782POPS   GL110519  13.929   8.745   6.465 -0.0185 -0.0632  0.1784
  782POPS   GL210520  14.348   8.826   6.531 -0.1413 -0.1873 -0.0283
  782POPS   C1A10521  13.874   8.808   6.903 -0.1807 -0.3069 -0.1648
  782POPS   D2A10522  14.099   9.209   7.171  0.0090  0.0802 -0.0222
  782POPS   C3A10523  13.728   9.523   7.155 -0.0769  0.1636  0.1029
  782POPS   C4A10524  13.957   9.876   6.967  0.1726 -0.1564 -0.0034
  782POPS   C1B10525  14.389   8.816   6.884 -0.1239  0.0025 -0.0619
  782POPS   C2B10526  14.418   8.765   7.269  0.2283  0.1021  0.1065
  782POPS   C3B10527  14.354   8.931   7.624 -0.0385 -0.0468 -0.1237
  782POPS   C4B10528  14.168   9.070   7.946 -0.1054  0.2897 -0.0665
  783POPS   CNO10529  15.542   7.971   5.907  0.1634  0.0876 -0.0504
  783POPS   PO410530  15.382   8.262   6.238 -0.1076  0.3472  0.1005
  783POPS   GL110531  15.184   8.455   6.632 -0.0191  0.1632  0.2227
  783POPS   GL210532  14.798   8.578   6.652  0.1603 -0.2908 -0.1376
  783POPS   C1A10533  15.052   8.336   7.039  0.0612  0.1827 -0.0077
  783POPS   D2A10534  14.979   8.179   7.407 -0.2482  0.1465 -0.1285
  783POPS   C3A10535  14.888   8.451   7.584  0.1230 -0.3028  0.1178
  783POPS   C4A10536  14.608   8.465   7.929 -0.4835 -0.1508 -0.2765
  783POPS   C1B10537  14.981   8.806   7.164  0.3443 -0.1292  0.0171
  783POPS   C2B10538  14.910   9.004   7.600  0.3025  0.1410  0.4026
  783POPS   C3B10539  14.633   9.153   7.956 -0.2375 -0.3536  0.0517
  783POPS   C4B10540  14.669   9.189   8.309 -0.0595 -0.1312  0.1765
  784POPS   CNO10541  17.021   1.996   5.599  0.0300  0.2843  0.1692
  784POPS   PO410542  17.442   2.125   5.607 -0.3764 -0.2241  0.1901
  784POPS   GL110543  17.476   1.871   6.048 -0.0736 -0.1442  0.2414
  784POPS   GL210544  17.249   1.706   5.992  0.0449  0.1587  0.0204
  784POPS   C1A10545  17.633   1.835   6.406 -0.0190 -0.3011 -0.1902
  784POPS   D2A10546  17.802   2.054   6.802 -0.1285 -0.0091  0.0519
  784POPS   C3A10547  18.169   1.948   7.048  0.0222 -0.0170 -0.1072
  784POPS   C4A10548  18.176   1.936   7.445 -0.0566 -0.1075  0.0803
  784POPS   C1B10549  17.185   1.564   6.407  0.2011  0.0196  0.2822
  784POPS   C2B10550  17.152   1.459   6.820  0.1827  0.0397 -0.0945
  784POPS   C3B10551  17.325   1.262   7.117  0.3243  0.0425 -0.1482
  784POPS   C4B10552  17.736   1.310   7.384 -0.0455 -0.1046 -0.0691
  785POPS   CNO10553  12.711  12.285   5.590 -0.0997 -0.0690 -0.0515
  785POPS   PO410554  12.579  12.269   6.001  0.1690  0.0224 -0.2198
  785POPS   GL110555  12.871  12.282   6.387 -0.0603  0.1722 -0.1594
  785POPS   GL210556  13.060  12.578   6.329 -0.0108  0.1952  0.0826
  785POPS   C1A10557  12.750  12.228   6.840 -0.4476 -0.1458  0.1704
  785POPS   D2A10558  12.562  12.335   7.249 -0.5625 -0.0618 -0.0431
  785POPS   C3A10559  12.666  12.588   7.527 -0.1418 -0.1288 -0.0610
  785POPS   C4A10560  13.043  12.748   7.756  0.1403 -0.0329 -0.2341
  785POPS   C1B10561  13.082  12.622   6.712  0.0847  0.0619  0.1167
  785POPS   C2B10562  12.677  12.757   6.985  0.3951  0.0513  0.1667
  785POPS   C3B10563  12.371  12.880   7.178 -0.0544  0.3310 -0.1602
  785POPS   C4B10564  11.934  12.860   7.006 -0.1810 -0.3481  0.0959
  786POPS   CNO10565   0.350  18.009   5.062 -0.2377 -0.0117  0.0595
  786POPS   PO410566   0.576  17.569   4.940  0.1045  0.1899  0.4743
  786POPS   GL110567   0.550  17.517   5.367  0.0180 -0.2552  0.1202
  786POPS   GL210568   0.717  17.773   5.450  0.2523 -0.1109  0.0711
  786POPS   C1A10569   0.456  17.525   5.840 -0.3731  0.1107 -0.2171
  786POPS   D2A10570   0.453  17.502   6.256 -0.1770 -0.0118 -0.0105
  786POPS   C3A10571   0.778  17.601   6.559  0.2071 -0.0184  0.3231
  786POPS   C4A10572   0.736  17.477   6.967  0.1336  0.0372  0.0434
  786POPS   C1B10573   0.492  17.994   5.685 -0.3346 -0.1299 -0.1280
  786POPS   C2B10574   0.389  18.174   5.998  0.3247  0.0585 -0.0962
  786POPS   C3B10575   0.403  18.318   6.395  0.1129 -0.2541  0.0000
  786POPS   C4B10576   0.276  17.964   6.486  0.1174  0.1932 -0.1348
  787POPS   CNO10577   4.067   5.067   5.648  0.2736  0.0863  0.0148
  787POPS   PO410578   3.838   4.692   5.792 -0.1954 -0.0914 -0.1978
  787POPS   GL110579   3.573   4.610   6.051  0.0481  0.2205 -0.1917
  787POPS   GL210580   3.767   4.594   6.299  0.4458 -0.3104 -0.0055
  787POPS   C1A10581   3.204   4.489   6.444 -0.1042 -0.2221  0.0315
  787POPS   D2A10582   2.971   4.345   6.781 -0.1763  0.1715  0.0480
  787POPS   C3A10583   3.125   4.474   7.187  0.1343 -0.0746  0.1462
  787POPS   C4A10584   3.134   4.697   7.566 -0.0423 -0.2885  0.0559
  787POPS   C1B10585   3.939   4.558   6.808  0.0070 -0.2856 -0.0304
  787POPS   C2B10586   4.047   4.879   7.063 -0.1281  0.0880  0.0917
  787POPS   C3B10587   3.930   5.306   7.096  0.2816  0.1178  0.0172
  787POPS   C4B10588   4.150   5.675   7.250 -0.2033  0.2077  0.1562
  788POPS   CNO10589  13.313   6.861   6.183 -0.1045  0.0386  0.1159
  788POPS   PO410590  13.632   6.625   6.222 -0.0913  0.1611 -0.2084
  788POPS   GL110591  13.684   6.675   6.543  0.1465 -0.0299 -0.1845
  788POPS   GL210592  13.366   6.792   6.680  0.2152  0.0318 -0.2292
  788POPS   C1A10593  13.903   6.673   6.986 -0.0241  0.1668  0.0648
  788POPS   D2A10594  14.110   6.478   7.334 -0.1041  0.0406 -0.1062
  788POPS   C3A10595  13.990   6.349   7.729  0.2049 -0.1460 -0.1230
  788POPS   C4A10596  13.687   6.010   7.924 -0.0824  0.1150  0.0299
  788POPS   C1B10597  13.423   6.702   7.165  0.0150 -0.0797 -0.1854
  788POPS   C2B10598  13.694   6.741   7.494  0.0351  0.0893  0.0571
  788POPS   C3B10599  13.686   6.798   7.881  0.1483 -0.0679 -0.2678
  788POPS   C4B10600  13.811   6.481   8.248 -0.2390 -0.0577 -0.1904
  789POPS   CNO10601   9.177  10.613   5.732 -0.1256 -0.1241 -0.0751
  789POPS   PO410602   9.313  10.276   6.062 -0.1124 -0.3067  0.2827
  789POPS   GL110603   9.613   9.912   6.289 -0.0690  0.1347 -0.0748
  789POPS   GL210604   9.533   9.709   6.589 -0.1240 -0.2095  0.1057
  789POPS   C1A10605   9.975   9.964   6.589  0.0192  0.0704  0.0887
  789POPS   D2A10606  10.316  10.098   6.966  0.0182  0.1704 -0.5361
  789POPS   C3A10607  10.355   9.735   7.175  0.0682  0.0528  0.0160
  789POPS   C4A10608  10.457   9.619   7.614  0.1738 -0.0345 -0.2584
  789POPS   C1B10609   9.421   9.650   6.986  0.2019  0.0345 -0.1371
  789POPS   C2B10610   9.388   9.478   7.381 -0.3429 -0.1589  0.1652
  789POPS   C3B10611   9.226   9.638   7.698  0.4597 -0.0417  0.1068
  789POPS   C4B10612   9.242   9.427   8.046 -0.0576 -0.0393 -0.0582
  790POPS   CNO10613   6.310  10.085   5.502 -0.2840 -0.1126 -0.1078
  790POPS   PO410614   6.669  10.143   5.694 -0.3183  0.0056 -0.0284
  790POPS   GL110615   6.559  10.218   6.079 -0.0494 -0.0146  0.0272
  790POPS   GL210616   6.478  10.197   6.371  0.2407  0.1213  0.2026
  790POPS   C1A10617   6.422  10.665   6.292  0.1035 -0.3212  0.1900
  790POPS   D2A10618   5.974  10.924   6.392  0.1330  0.1200  0.0347
  790POPS   C3A10619   5.889  11.044   6.821  0.0438 -0.0274 -0.2448
  790POPS   C4A10620   6.080  10.994   7.118 -0.0401 -0.0906 -0.1807
  790POPS   C1B10621   6.385  10.220   6.795 -0.0034 -0.0465 -0.0773
  790POPS   C2B10622   6.330  10.167   7.221 -0.1751  0.1019 -0.0034
  790POPS   C3B10623   6.250  10.380   7.672  0.0617  0.1248 -0.0131
  790POPS   C4B10624   6.056  10.209   8.031 -0.0835  0.0845  0.1044
  791POPS   CNO10625  17.357  12.937   6.150  0.0483  0.1489  0.1687
  791POPS   PO410626  17.105  13.307   5.904  0.0608 -0.0534 -0.1356
  791POPS   GL110627  17.004  13.423   6.292  0.3168  0.2965 -0.0488
  791POPS   GL210628  16.781  13.692   6.268 -0.3020  0.0340 -0.1815
  791POPS   C1A10629  17.095  13.384   6.736  0.0402  0.0776  0.3468
  791POPS   D2A10630  17.015  13.590   7.211 -0.3726  0.0782  0.0886
  791POPS   C3A10631  17.321  13.426   7.533  0.0646 -0.1589  0.1532
  791POPS   C4A10632  17.598  13.527   7.904  0.3996 -0.2138  0.2068
  791POPS   C1B10633  16.796  13.860   6.703  0.1108  0.1233 -0.3226
  791POPS   C2B10634  16.946  14.140   6.957  0.1747 -0.1689 -0.1230
  791POPS   C3B10635  16.971  14.489   7.211 -0.2558 -0.0676 -0.1305
  791POPS   C4B10636  17.240  14.737   7.592  0.1227  0.1300  0.0717
  792POPS   CNO10637   7.383  16.866   5.184  0.0864 -0.0300 -0.0363
  792POPS   PO410638   7.438  16.792   5.602  0.0726 -0.1205  0.4172
  792POPS   GL110639   7.156  16.929   5.905  0.1098 -0.1226  0.0599
  792POPS   GL210640   7.080  17.245   5.965  0.3898 -0.2259 -0.0153
  792POPS   C1A10641   6.945  16.868   6.368 -0.2664  0.0224 -0.0153
  792POPS   D2A10642   7.083  16.983   6.786 -0.1793  0.1942 -0.0221
  792POPS   C3A10643   7.309  17.367   6.974 -0.0867  0.1382  0.0838
  792POPS   C4A10644   7.317  17.511   7.346 -0.0767 -0.0385 -0.2578
  792POPS   C1B10645   6.989  17.381   6.385  0.1769  0.1245 -0.0844
  792POPS   C2B10646   6.836  17.448   6.826  0.1210  0.1232  0.0635
  792POPS   C3B10647   6.809  17.579   7.092 -0.2067 -0.0956 -0.1928
  792POPS   C4B10648   6.847  17.720   7.524 -0.2561 -0.2297  0.1613
  793POPS   CNO10649  15.876  15.627   5.095  0.0972 -0.2138 -0.0673
  793POPS   PO410650  16.006  15.600   5.587 -0.0551 -0.0019 -0.2273
  793POPS   GL110651  16.038  15.783   6.026  0.2718 -0.0391  0.0707
  793POPS   GL210652  16.186  16.121   6.039 -0.0260  0.2402 -0.2347
  793POPS   C1A10653  16.084  15.600   6.437 -0.1279 -0.0854 -0.1625
  793POPS   D2A10654  15.849  15.362   6.768 -0.1853 -0.2905  0.0629
  793POPS   C3A10655  15.658  15.589   7.157 -0.0185 -0.0442 -0.0110
  793POPS   C4A10656  15.688  15.537   7.583 -0.1173 -0.1173 -0.0952
  793POPS   C1B10657  16.417  16.052   6.449 -0.3829  0.1686  0.1129
  793POPS   C2B10658  16.501  15.764   6.691 -0.0386  0.2733  0.1173
  793POPS   C3B10659  16.359  15.420   6.920 -0.0917 -0.0124 -0.1628
  793POPS   C4B10660  16.133  15.502   7.340 -0.1187  0.1789  0.4154
  794POPS   CNO10661   8.260  18.389   5.654  0.1311  0.3130 -0.1276
  794POPS   PO410662   8.658  18.106   5.722  0.0963 -0.2549  0.1170
  794POPS   GL110663   8.603  18.122   6.081  0.0237  0.2546 -0.1718
  794POPS   GL210664   8.474  18.360   6.154 -0.1213  0.3546 -0.1024
  794POPS   C1A10665   8.728  18.025   6.444  0.4769 -0.1986  0.0549
  794POPS   D2A10666   8.806  17.969   6.914  0.0149 -0.3076  0.0105
  794POPS   C3A10667   8.715  17.979   7.394  0.2835  0.2918  0.5417
  794POPS   C4A10668   8.747  17.876   7.921 -0.1738  0.0131 -0.1217
  794POPS   C1B10669   8.388  18.387   6.626  0.1039  0.1643 -0.3478
  794POPS   C2B10670   8.534  18.415   7.099 -0.3581 -0.0176  0.1942
  794POPS   C3B10671   8.455  18.605   7.469  0.1848  0.2895 -0.1555
  794POPS   C4B10672   8.370  18.923   7.697 -0.0536 -0.1034  0.0468
  795POPS   CNO10673  17.998  10.304   5.614 -0.0384 -0.1823 -0.1336
  795POPS   PO410674  18.215  10.487   5.918 -0.0909  0.5089  0.1676
  795POPS   GL110675  18.193  10.832   6.202 -0.0085  0.0305 -0.0096
  795POPS   GL210676  18.031  10.980   6.127  0.0164 -0.0187  0.3215
  795POPS   C1A10677  18.180  10.904   6.628  0.0263  0.0587 -0.2434
  795POPS   D2A10678  18.216  11.057   7.080 -0.0597  0.0709 -0.1074
  795POPS   C3A10679  18.096  10.852   7.425  0.1788  0.1300  0.1993
  795POPS   C4A10680  18.281  10.906   7.777  0.0113  0.0439 -0.1927
  795POPS   C1B10681  17.744  10.827   6.441 -0.0739 -0.2802 -0.1226
  795POPS   C2B10682  17.644  10.973   6.857 -0.0568  0.1404 -0.2448
  795POPS   C3B10683  17.725  11.218   7.132  0.4668 -0.4920  0.4399
  795POPS   C4B10684  17.998  11.404   7.316  0.2521 -0.0602  0.3082
  796POPS   CNO10685  12.390  13.073   5.759  0.0638 -0.0803  0.2863
  796POPS   PO410686  12.650  12.814   5.525 -0.1564 -0.1437 -0.1413
  796POPS   GL110687  12.800  12.851   5.980 -0.1090 -0.0904  0.1361
  796POPS   GL210688  12.972  13.113   6.062 -0.1042  0.0725 -0.1742
  796POPS   C1A10689  12.600  12.828   6.374  0.2632 -0.2550 -0.1773
  796POPS   D2A10690  12.436  12.443   6.546  0.1929 -0.1063  0.0198
  796POPS   C3A10691  12.245  12.466   6.871  0.0585 -0.2908 -0.0749
  796POPS   C4A10692  11.818  12.371   7.072 -0.0345  0.1404  0.0867
  796POPS   C1B10693  12.996  13.105   6.473 -0.1943  0.0907  0.1001
  796POPS   C2B10694  12.660  13.166   6.752  0.0250  0.4509 -0.1644
  796POPS   C3B10695  12.254  12.895   6.653  0.3380 -0.0228 -0.2662
  796POPS   C4B10696  11.831  12.709   6.588  0.0477 -0.0091  0.1617
  797POPS   CNO10697   0.465  14.862   5.376  0.1466 -0.0314  0.3147
  797POPS   PO410698   0.783  14.999   5.266  0.0610  0.3404  0.3594
  797POPS   GL110699   0.928  14.998   5.622 -0.1148 -0.2229 -0.2513
  797POPS   GL210700   0.696  14.879   5.800  0.0462 -0.2439  0.0822
  797POPS   C1A10701   1.299  14.891   5.901 -0.1783 -0.0442  0.0940
  797POPS   D2A10702   1.283  15.023   6.251  0.3735 -0.2723  0.2083
  797POPS   C3A10703   1.714  15.183   6.447  0.1850  0.0710 -0.4221
  797POPS   C4A10704   1.978  15.445   6.369  0.3235  0.0415  0.0982
  797POPS   C1B10705   0.830  14.897   6.153  0.1749 -0.1132  0.0723
  797POPS   C2B10706   0.915  14.958   6.619  0.1413 -0.3754  0.1803
  797POPS   C3B10707   0.759  15.001   7.129  0.1065  0.0240 -0.1115
  797POPS   C4B10708   0.880  15.009   7.591 -0.2296  0.0760 -0.0718
  798POPS   CNO10709  15.467  16.914   5.368  0.0595 -0.2553  0.0295
  798POPS   PO410710  15.302  17.310   5.544  0.1121  0.0236  0.1425
  798POPS   GL110711  15.411  17.165   6.040 -0.1447  0.2749 -0.2367
  798POPS   GL210712  15.130  16.982   6.252 -0.0239 -0.0963  0.1839
  798POPS   C1A10713  15.815  17.145   6.191 -0.1697 -0.3015 -0.0753
  798POPS   D2A10714  16.163  17.396   6.287  0.1494 -0.1255 -0.1555
  798POPS   C3A10715  16.065  17.431   6.763  0.2600  0.1264  0.1788
  798POPS   C4A10716  15.819  17.269   7.104  0.0984  0.0501 -0.0981
  798POPS   C1B10717  15.295  17.030   6.698  0.0951  0.1375 -0.0931
  798POPS   C2B10718  15.262  17.128   7.069 -0.0778  0.0154  0.1167
  798POPS   C3B10719  15.037  17.449   7.249  0.1921 -0.1124 -0.1792
  798POPS   C4B10720  15.072  17.854   7.376  0.1930 -0.1477 -0.1264
  799POPS   CNO10721  16.272  13.614   5.946  0.0914 -0.1049  0.0300
  799POPS   PO410722  16.100  13.944   5.694  0.0851 -0.1680  0.4006
  799POPS   GL110723  16.321  14.140   5.963 -0.1246 -0.1852  0.1391
  799POPS   GL210724  16.718  14.149   5.788 -0.3157  0.0594 -0.3673
  799POPS   C1A10725  16.612  14.314   6.363  0.1514 -0.0466 -0.1833
  799POPS   D2A10726  16.659  14.474   6.779  0.1540 -0.0597  0.0083
  799POPS   C3A10727  16.405  14.374   7.124  0.0934 -0.0896 -0.1157
  799POPS   C4A10728  16.536  14.553   7.400  0.0737  0.2538 -0.2664
  799POPS   C1B10729  16.669  14.521   5.928 -0.0581  0.1304 -0.0166
  799POPS   C2B10730  16.545  14.807   6.212  0.0160  0.2986 -0.3153
  799POPS   C3B10731  16.860  14.868   6.478 -0.1237 -0.2638  0.2662
  799POPS   C4B10732  17.134  14.820   6.807  0.1042  0.2561 -0.1709
  800POPS   CNO10733  15.105  15.689   5.815 -0.2099 -0.3709  0.1465
  800POPS   PO410734  14.951  16.107   5.722  0.2012  0.3486  0.1442
  800POPS   GL110735  15.184  16.204   6.028 -0.0479 -0.0050  0.0316
  800POPS   GL210736  15.047  16.429   6.070  0.0215 -0.0079 -0.0431
  800POPS   C1A10737  15.329  16.169   6.472  0.5038 -0.3806  0.1765
  800POPS   D2A10738  15.589  16.455   6.753 -0.1698  0.0372 -0.0848
  800POPS   C3A10739  15.744  16.680   7.136  0.3723  0.0955 -0.2721
  800POPS   C4A10740  16.033  16.809   7.406 -0.1937 -0.1365  0.2334
  800POPS   C1B10741  15.057  16.617   6.568  0.0038  0.1771  0.2927
  800POPS   C2B10742  15.042  16.482   7.006 -0.3333  0.0307  0.1575
  800POPS   C3B10743  15.114  16.170   7.368 -0.3004  0.2550  0.1067
  800POPS   C4B10744  15.214  15.794   7.421 -0.1758  0.1613 -0.1032
  801POPS   CNO10745  15.714  10.207   5.879 -0.2111  0.0658 -0.1927
  801POPS   PO410746  15.683  10.330   6.340  0.0911 -0.1893 -0.0859
  801POPS   GL110747  15.570  10.024   6.748  0.1797  0.0558 -0.1246
  801POPS   GL210748  15.753  10.129   6.948  0.1435 -0.1854  0.1091
  801POPS   C1A10749  15.644   9.636   6.932  0.3223  0.0603 -0.1996
  801POPS   D2A10750  15.738   9.209   6.859  0.0218 -0.1893 -0.1557
  801POPS   C3A10751  15.841   8.865   7.246  0.0254  0.2991 -0.1408
  801POPS   C4A10752  15.862   8.623   7.735 -0.0557 -0.0712  0.3026
  801POPS   C1B10753  15.764  10.174   7.427  0.2452  0.1743 -0.1933
  801POPS   C2B10754  15.704  10.341   7.854  0.1013  0.0275 -0.0201
  801POPS   C3B10755  15.569  10.302   8.280 -0.1575  0.2831 -0.6567
  801POPS   C4B10756  15.619  10.535   8.639  0.3580  0.0239 -0.2414
  802POPS   CNO10757   4.199  10.382   5.497  0.2811  0.0495 -0.2343
  802POPS   PO410758   4.022  10.593   5.943  0.2805  0.2239  0.2784
  802POPS   GL110759   4.027  10.401   6.353 -0.2464 -0.0666  0.3408
  802POPS   GL210760   3.872  10.161   6.328  0.2395 -0.0318  0.1938
  802POPS   C1A10761   4.062  10.548   6.732 -0.1033  0.3040  0.1705
  802POPS   D2A10762   4.084  10.843   7.150  0.4611  0.0021 -0.3188
  802POPS   C3A10763   3.856  10.615   7.519  0.5007  0.0880  0.1811
  802POPS   C4A10764   3.381  10.582   7.627 -0.0243  0.2058  0.1589
  802POPS   C1B10765   3.816  10.101   6.765  0.0089 -0.0741  0.0336
  802POPS   C2B10766   3.999  10.192   7.157 -0.1895  0.1959  0.2621
  802POPS   C3B10767   4.102  10.116   7.578 -0.0057 -0.0311  0.1282
  802POPS   C4B10768   4.432  10.092   7.916 -0.0363 -0.2284  0.3209
  803POPS   CNO10769   3.180   8.982   6.147  0.2472  0.0567 -0.3538
  803POPS   PO410770   2.782   8.792   6.132  0.0339 -0.1213  0.2107
  803POPS   GL110771   2.597   8.887   6.499 -0.4501 -0.0446  0.0741
  803POPS   GL210772   2.492   9.200   6.543 -0.1768 -0.1063 -0.1767
  803POPS   C1A10773   2.534   8.855   6.973  0.0136  0.0518 -0.2042
  803POPS   D2A10774   2.612   8.795   7.359 -0.0048 -0.1247  0.2843
  803POPS   C3A10775   2.350   9.138   7.661 -0.1824  0.0438  0.1488
  803POPS   C4A10776   2.374   9.293   8.047 -0.0598 -0.0428  0.2490
  803POPS   C1B10777   2.242   9.296   6.819 -0.3986  0.1441  0.0133
  803POPS   C2B10778   2.091   9.272   7.203  0.0037 -0.1392 -0.1301
  803POPS   C3B10779   1.962   9.628   7.507 -0.1373 -0.1173 -0.0916
  803POPS   C4B10780   1.893   9.602   7.880 -0.4735  0.1082  0.0208
  804POPS   CNO10781   5.867   3.680   5.500  0.1115  0.0454 -0.0089
  804POPS   PO410782   5.615   3.940   5.765  0.0735  0.0625 -0.0198
  804POPS   GL110783   5.333   4.095   6.020  0.1159 -0.1758 -0.6146
  804POPS   GL210784   5.006   4.196   6.038  0.3690 -0.2762  0.0367
  804POPS   C1A10785   5.226   3.929   6.386 -0.1541 -0.2130  0.1131
  804POPS   D2A10786   5.140   3.538   6.623  0.0230 -0.0196 -0.0460
  804POPS   C3A10787   5.327   3.456   7.090 -0.1216 -0.2713 -0.1160
  804POPS   C4A10788   5.377   3.456   7.599 -0.2190 -0.0046 -0.0224
  804POPS   C1B10789   4.971   4.375   6.484  0.1758  0.3147  0.0862
  804POPS   C2B10790   4.882   4.473   6.915 -0.4577  0.0751  0.0836
  804POPS   C3B10791   4.867   4.328   7.368 -0.0993  0.1995 -0.1966
  804POPS   C4B10792   4.734   4.286   7.812 -0.0277  0.1860  0.0360
  805POPS   CNO10793   7.999   6.177   5.878  0.3268 -0.0373  0.2091
  805POPS   PO410794   8.351   6.407   5.885 -0.1445 -0.2033  0.0512
  805POPS   GL110795   8.335   6.086   6.203 -0.3807 -0.1393  0.0105
  805POPS   GL210796   8.659   5.869   6.228  0.0513  0.1226  0.0361
  805POPS   C1A10797   8.024   5.812   6.299 -0.2741 -0.0398  0.0265
  805POPS   D2A10798   8.005   5.333   6.346  0.3310  0.2494 -0.0633
  805POPS   C3A10799   7.700   5.119   6.599  0.1242  0.2643  0.1294
  805POPS   C4A10800   7.374   5.227   6.899 -0.0524  0.0270 -0.0172
  805POPS   C1B10801   8.498   5.448   6.429  0.1671  0.0092 -0.3295
  805POPS   C2B10802   8.544   5.487   6.820 -0.1493 -0.1019 -0.0834
  805POPS   C3B10803   8.736   5.425   7.324 -0.0240  0.0995  0.1304
  805POPS   C4B10804   8.656   5.203   7.732  0.1010 -0.2849  0.2359
  806POPS   CNO10805  14.830  13.124   5.514  0.2007  0.0028 -0.0078
  806POPS   PO410806  14.719  13.393   5.832  0.0277 -0.0415  0.2083
  806POPS   GL110807  14.911  13.769   5.917  0.0585  0.0725  0.0405
  806POPS   GL210808  15.290  13.789   6.062  0.0720  0.3276 -0.0725
  806POPS   C1A10809  14.748  13.992   6.272  0.2789  0.2467 -0.2106
  806POPS   D2A10810  14.714  13.884   6.616 -0.1124 -0.3068  0.0187
  806POPS   C3A10811  14.755  13.873   7.037  0.1959  0.3304 -0.0025
  806POPS   C4A10812  14.925  13.519   7.276  0.0687 -0.1073 -0.3975
  806POPS   C1B10813  15.647  13.942   6.407  0.1700  0.0307  0.1180
  806POPS   C2B10814  15.774  13.921   6.783  0.1125 -0.4684  0.1955
  806POPS   C3B10815  15.883  13.876   7.255 -0.0483  0.2591 -0.0158
  806POPS   C4B10816  16.084  13.476   7.334 -0.0430 -0.0979  0.1976
  807POPS   CNO10817  17.751   5.617   6.129  0.0144  0.0144  0.2421
  807POPS   PO410818  17.857   5.279   5.839 -0.0687 -0.1410 -0.1781
  807POPS   GL110819  17.679   5.016   6.177 -0.2182 -0.3087 -0.2306
  807POPS   GL210820  17.673   4.719   6.288 -0.0679  0.2681  0.1611
  807POPS   C1A10821  17.549   5.061   6.578  0.4208  0.3011 -0.1140
  807POPS   D2A10822  17.667   4.985   6.980 -0.5070  0.0595 -0.0348
  807POPS   C3A10823  17.680   5.144   7.476  0.1078  0.0353 -0.2367
  807POPS   C4A10824  17.500   5.261   7.820  0.0336 -0.3713 -0.1965
  807POPS   C1B10825  17.781   4.546   6.688  0.1564 -0.0233 -0.1400
  807POPS   C2B10826  17.887   4.496   7.116  0.2951  0.1558 -0.1782
  807POPS   C3B10827  17.884   4.674   7.571  0.0292 -0.0544 -0.1623
  807POPS   C4B10828  17.975   5.035   7.887  0.0686  0.0886 -0.1165
  808POPS   CNO10829  13.929   3.442   5.980 -0.1719  0.1173 -0.0892
  808POPS   PO410830  13.625   3.351   6.015 -0.0948  0.2177 -0.0445
  808POPS   GL110831  13.588   3.582   6.406 -0.3115  0.0401  0.0149
  808POPS   GL210832  13.683   3.443   6.633  0.0369  0.4271  0.1090
  808POPS   C1A10833  13.228   3.637   6.728 -0.3284  0.1556 -0.3101
  808POPS   D2A10834  13.188   3.488   7.210  0.1131  0.1713  0.2429
  808POPS   C3A10835  13.096   3.601   7.650 -0.0744 -0.2107 -0.2923
  808POPS   C4A10836  12.922   3.862   8.021 -0.0923  0.2959 -0.1029
  808POPS   C1B10837  13.662   3.657   6.985  0.1178 -0.0423  0.0046
  808POPS   C2B10838  13.436   3.900   7.367  0.1621  0.0098  0.0631
  808POPS   C3B10839  13.317   4.128   7.763 -0.2781  0.0074  0.0783
  808POPS   C4B10840  13.249   4.151   8.181  0.0007 -0.0768 -0.0595
  809POPS   CNO10841   4.511  13.682   5.004 -0.1685  0.2105  0.0031
  809POPS   PO410842   4.695  13.406   5.335 -0.1024 -0.1312  0.0436
  809POPS   GL110843   4.700  13.569   5.808  0.0268 -0.0529  0.0601
  809POPS   GL210844   4.350  13.756   5.923  0.1341 -0.2404 -0.3355
  809POPS   C1A10845   4.752  13.814   6.255 -0.0535  0.3098  0.4242
  809POPS   D2A10846   4.818  13.781   6.648  0.1923  0.1429 -0.1226
  809POPS   C3A10847   4.650  14.179   6.914  0.2150 -0.0138 -0.2329
  809POPS   C4A10848   4.527  14.622   7.018 -0.0391  0.1031 -0.0507
  809POPS   C1B10849   4.264  13.754   6.401  0.0056 -0.3905  0.0278
  809POPS   C2B10850   4.288  13.858   6.864 -0.1569 -0.1867 -0.3451
  809POPS   C3B10851   4.267  13.792   7.437  0.3849 -0.1608 -0.0552
  809POPS   C4B10852   4.312  13.892   7.786  0.1085 -0.1283 -0.1090
  810POPS   CNO10853   3.262  12.538   5.719  0.0970 -0.0523  0.0939
  810POPS   PO410854   2.949  12.500   5.950  0.1370  0.1424 -0.2167
  810POPS   GL110855   3.193  12.749   6.157  0.0048 -0.2912 -0.0109
  810POPS   GL210856   3.285  12.484   6.404  0.3102 -0.1686 -0.0162
  810POPS   C1A10857   3.436  12.917   6.590 -0.0466  0.2556 -0.0455
  810POPS   D2A10858   3.723  12.897   6.820  0.0375  0.0686 -0.0693
  810POPS   C3A10859   3.855  12.948   7.169  0.0801  0.1724 -0.1234
  810POPS   C4A10860   4.131  13.123   7.581 -0.0830  0.2879  0.0308
  810POPS   C1B10861   3.226  12.447   6.801 -0.4014 -0.1591 -0.2221
  810POPS   C2B10862   3.144  12.363   7.142  0.1226  0.2448  0.1854
  810POPS   C3B10863   2.928  12.216   7.451  0.0702  0.0967  0.0375
  810POPS   C4B10864   2.578  12.360   7.624 -0.1341  0.3565  0.0970
  811POPS   CNO10865  17.581   7.685   5.606 -0.0552 -0.1335 -0.1853
  811POPS   PO410866  17.674   7.684   6.043 -0.0132  0.1118 -0.0272
  811POPS   GL110867  17.585   7.426   6.365 -0.4502  0.1894 -0.2681
  811POPS   GL210868  17.805   7.271   6.553 -0.1496 -0.3051 -0.1883
  811POPS   C1A10869  17.263   7.590   6.571  0.0974  0.1092  0.0060
  811POPS   D2A10870  16.962   7.491   6.836 -0.2084  0.0047 -0.2064
  811POPS   C3A10871  16.964   7.512   7.232 -0.2044 -0.5285 -0.6172
  811POPS   C4A10872  17.117   7.658   7.676 -0.0798 -0.2060  0.0325
  811POPS   C1B10873  17.945   7.122   6.912 -0.0148  0.3332  0.0133
  811POPS   C2B10874  18.284   7.177   7.234  0.2091  0.0219 -0.1476
  811POPS   C3B10875  18.568   7.391   7.539  0.0177 -0.1481  0.3032
  811POPS   C4B10876  18.692   7.378   7.885 -0.1653 -0.2142 -0.1436
  812YOPS   CNO10877   7.612   2.373   6.337 -0.2200  0.4629  0.2402
  812YOPS   PO410878   7.957   2.634   6.138 -0.1614 -0.2219  0.0915
  812YOPS   GL110879   8.076   2.676   6.518  0.1628 -0.0213  0.2193
  812YOPS   GL210880   8.127   2.911   6.715  0.1065 -0.0594 -0.2664
  812YOPS   C1A10881   8.060   2.402   6.768  0.1794  0.1945  0.1417
  812YOPS   D2A10882   8.048   2.253   7.073 -0.1605  0.1554  0.6365
  812YOPS   C3A10883   7.999   2.229   7.526  0.2146  0.0160 -0.0410
  812YOPS   C4A10884   8.252   1.836   7.606 -0.2495 -0.0073  0.4942
  812YOPS   C1B10885   8.115   2.779   7.167  0.2127  0.0638  0.1305
  812YOPS   C2B10886   8.164   2.721   7.574 -0.0805  0.1620 -0.0991
  812YOPS   D3B10887   8.061   2.680   8.030  0.1123 -0.2073  0.1211
  812YOPS   C4B10888   8.161   2.798   8.393  0.2647  0.0575 -0.1814
  813YOPS   CNO10889  12.379   1.013   5.983  0.1032 -0.1465 -0.4813
  813YOPS   PO410890  12.853   1.052   5.964  0.4325 -0.1657  0.0424
  813YOPS   GL110891  13.043   1.093   6.385  0.0949  0.5060 -0.1702
  813YOPS   GL210892  13.213   1.320   6.426  0.1736 -0.3219 -0.0199
  813YOPS   C1A10893  13.391   0.919   6.638 -0.3532 -0.2631  0.0580
  813YOPS   D2A10894  13.215   0.917   7.049  0.3155 -0.0624 -0.2194
  813YOPS   C3A10895  13.097   1.023   7.456 -0.0388  0.1485  0.0526
  813YOPS   C4A10896  13.178   0.908   7.899 -0.2299  0.0981  0.2312
  813YOPS   C1B10897  12.957   1.292   6.820 -0.1212  0.5526  0.0118
  813YOPS   C2B10898  12.669   1.252   7.162 -0.0152 -0.1156  0.2426
  813YOPS   D3B10899  12.698   1.313   7.573  0.2263  0.0053  0.0647
  813YOPS   C4B10900  12.432   1.284   7.996  0.1757  0.1039 -0.0636
  814YOPS   CNO10901   0.725   6.811   6.045  0.2749 -0.1090 -0.2638
  814YOPS   PO410902   0.372   6.435   5.998  0.0237 -0.0379 -0.3190
  814YOPS   GL110903   0.671   6.204   6.243  0.2464 -0.2494 -0.0310
  814YOPS   GL210904   0.642   5.766   6.299  0.0184  0.1223 -0.2283
  814YOPS   C1A10905   0.965   6.351   6.474 -0.0851 -0.1067  0.2974
  814YOPS   D2A10906   0.979   6.381   6.919 -0.1290  0.3377 -0.0431
  814YOPS   C3A10907   0.793   6.267   7.343  0.1154 -0.2004  0.1697
  814YOPS   C4A10908   0.747   6.603   7.646 -0.1195 -0.0115 -0.0742
  814YOPS   C1B10909   0.292   5.712   6.689  0.0507 -0.1735  0.0308
  814YOPS   C2B10910   0.121   5.654   7.094 -0.1563 -0.3613 -0.3647
  814YOPS   D3B10911   0.283   5.457   7.549  0.0620 -0.3490 -0.1999
  814YOPS   C4B10912   0.089   5.531   7.932 -0.0593 -0.2657  0.1067
  815YOPS   CNO10913   4.596  16.753   5.024 -0.1125 -0.4156 -0.2038
  815YOPS   PO410914   4.779  17.113   5.314  0.4584 -0.0182 -0.0335
  815YOPS   GL110915   4.743  17.403   5.707 -0.1816 -0.1923  0.0639
  815YOPS   GL210916   4.952  17.435   5.881  0.1274  0.2756 -0.0076
  815YOPS   C1A10917   4.569  17.747   5.967 -0.1728 -0.0225 -0.0576
  815YOPS   D2A10918   4.338  17.981   6.250 -0.1441  0.0004 -0.5442
  815YOPS   C3A10919   4.393  17.832   6.668  0.2093  0.1960 -0.2788
  815YOPS   C4A10920   4.594  17.426   6.717 -0.4680 -0.0114  0.1496
  815YOPS   C1B10921   4.988  17.358   6.463  0.1148 -0.1667 -0.0644
  815YOPS   C2B10922   5.046  17.333   6.903  0.1648  0.0540  0.0241
  815YOPS   D3B10923   5.028  17.520   7.267  0.2714 -0.2395  0.0983
  815YOPS   C4B10924   4.527  17.388   7.325  0.1775 -0.1643 -0.2195
  816YOPS   CNO10925  12.975   1.561   5.982 -0.0264  0.1104 -0.1566
  816YOPS   PO410926  12.707   1.919   6.088 -0.0448  0.0148 -0.1366
  816YOPS   GL110927  12.557   1.663   6.356 -0.3153  0.1321 -0.2707
  816YOPS   GL210928  12.587   1.381   6.358 -0.0306  0.2574 -0.0700
  816YOPS   C1A10929  12.405   1.734   6.774 -0.0460  0.0322 -0.2597
  816YOPS   D2A10930  12.354   1.701   7.165  0.1539  0.1402 -0.0544
  816YOPS   C3A10931  12.549   1.827   7.526  0.1345  0.0974  0.0498
  816YOPS   C4A10932  12.398   1.728   7.813 -0.1515  0.0230 -0.0235
  816YOPS   C1B10933  12.472   1.147   6.645  0.1293  0.1888  0.1202
  816YOPS   C2B10934  12.283   0.796   6.824 -0.2168  0.0348  0.0160
  816YOPS   D3B10935  12.258   0.552   7.217 -0.0321  0.0601 -0.0865
  816YOPS   C4B10936  12.327   0.491   7.641 -0.0302 -0.1580  0.2388
  817YOPS   CNO10937  17.161  18.009   5.440  0.0814  0.3626  0.2177
  817YOPS   PO410938  17.536  17.841   5.357 -0.1796  0.4094  0.1070
  817YOPS   GL110939  17.451  17.752   5.801 -0.0915 -0.1606  0.0259
  817YOPS   GL210940  17.136  17.965   5.904 -0.2299  0.0024 -0.1920
  817YOPS   C1A10941  17.295  17.664   6.242  0.1382  0.3235  0.0956
  817YOPS   D2A10942  17.141  17.317   6.572 -0.1142 -0.0402 -0.0023
  817YOPS   C3A10943  17.197  17.126   6.999  0.0593  0.1267  0.0511
  817YOPS   C4A10944  17.412  17.260   7.416  0.2011  0.3594 -0.0361
  817YOPS   C1B10945  17.550  18.155   6.107 -0.1339  0.2565  0.0562
  817YOPS   C2B10946  17.685  18.239   6.504 -0.0683 -0.0260 -0.1065
  817YOPS   D3B10947  17.785  18.209   6.994 -0.0128  0.0554 -0.0704
  817YOPS   C4B10948  17.692  18.490   7.321  0.1358  0.1611 -0.1763
  818YOPS   CNO10949  10.637   8.518   6.109 -0.1918 -0.2727 -0.2907
  818YOPS   PO410950  10.433   8.315   6.487 -0.2092  0.3302  0.3346
  818YOPS   GL110951  10.493   8.415   6.873 -0.0602 -0.2375 -0.0702
  818YOPS   GL210952  10.260   8.511   6.974 -0.0191 -0.1812  0.0291
  818YOPS   C1A10953  10.674   8.657   7.225  0.3431  0.1104 -0.0357
  818YOPS   D2A10954  10.857   8.888   7.507  0.0315  0.1341 -0.1195
  818YOPS   C3A10955  11.115   9.099   7.876 -0.3714  0.0645  0.1635
  818YOPS   C4A10956  11.197   8.902   8.266  0.0039  0.2050 -0.3174
  818YOPS   C1B10957  10.183   8.629   7.449  0.2652 -0.3167  0.2115
  818YOPS   C2B10958  10.453   8.663   7.828 -0.3980  0.0510 -0.1283
  818YOPS   D3B10959  10.778   8.629   7.963  0.0731  0.3360 -0.1698
  818YOPS   C4B10960  10.893   8.489   8.357  0.0086 -0.2313 -0.1624
  819YOPS   CNO10961  16.793  17.717   5.103 -0.2152 -0.1178 -0.3597
  819YOPS   PO410962  17.094  17.529   5.424 -0.0820  0.4289  0.1977
  819YOPS   GL110963  16.967  17.528   5.767 -0.2562  0.3504  0.1798
  819YOPS   GL210964  16.813  17.630   6.092 -0.1118 -0.2955 -0.0653
  819YOPS   C1A10965  17.031  17.184   6.097  0.0596 -0.0616  0.0137
  819YOPS   D2A10966  17.184  16.886   6.261 -0.0447 -0.0581 -0.1453
  819YOPS   C3A10967  17.453  16.754   6.685  0.1040 -0.0091  0.0606
  819YOPS   C4A10968  17.206  16.578   7.031  0.0604  0.1208  0.1480
  819YOPS   C1B10969  16.688  17.532   6.617  0.0455 -0.2819  0.2777
  819YOPS   C2B10970  16.885  17.716   7.071  0.2201  0.2377 -0.1278
  819YOPS   D3B10971  17.263  17.724   7.169 -0.0899 -0.1604  0.1218
  819YOPS   C4B10972  17.461  18.005   7.393 -0.0662  0.0550  0.1206
  820YOPS   CNO10973   1.445   4.404   5.693 -0.1891 -0.0826 -0.2895
  820YOPS   PO410974   1.458   4.061   5.583 -0.5139  0.0226  0.1665
  820YOPS   GL110975   1.562   3.747   5.805 -0.0063  0.0763 -0.0196
  820YOPS   GL210976   1.715   3.491   5.759  0.1507  0.0780  0.0373
  820YOPS   C1A10977   1.550   3.777   6.187 -0.5186  0.0498 -0.1894
  820YOPS   D2A10978   1.554   3.814   6.599  0.2417 -0.1373  0.0374
  820YOPS   C3A10979   1.504   4.047   7.013 -0.0320  0.0877  0.3991
  820YOPS   C4A10980   1.814   3.835   7.374 -0.2712 -0.3866  0.0991
  820YOPS   C1B10981   2.092   3.604   5.750 -0.0772  0.1055 -0.0547
  820YOPS   C2B10982   2.343   3.898   5.829 -0.0282  0.1519 -0.3547
  820YOPS   D3B10983   2.385   4.321   5.886 -0.1087 -0.1114 -0.0290
  820YOPS   C4B10984   2.186   4.442   6.277  0.0527 -0.0479  0.0502
  821YOPS   CNO10985  17.448   8.502   5.927  0.0025 -0.2587 -0.0160
  821YOPS   PO410986  17.641   8.768   6.157  0.1022  0.0903 -0.2404
  821YOPS   GL110987  17.816   8.882   6.497 -0.3160 -0.1029  0.0683
  821YOPS   GL210988  18.113   9.164   6.489  0.0714 -0.1090 -0.2540
  821YOPS   C1A10989  17.670   8.920   6.891  0.2626  0.1378 -0.2037
  821YOPS   D2A10990  17.366   8.933   7.159 -0.0501 -0.1171 -0.4365
  821YOPS   C3A10991  17.287   9.108   7.496 -0.4878  0.0201  0.1438
  821YOPS   C4A10992  17.591   9.118   7.871  0.0608 -0.0030 -0.0722
  821YOPS   C1B10993  18.212   9.144   6.967 -0.1382 -0.1403  0.3100
  821YOPS   C2B10994  18.140   9.110   7.245  0.1154 -0.2249 -0.2422
  821YOPS   D3B10995  17.816   8.834   7.394 -0.2196 -0.1162 -0.2330
  821YOPS   C4B10996  17.910   8.694   7.831  0.0493 -0.3041  0.0036
  822YOPS   CNO10997   2.299   7.148   5.420 -0.1660  0.1250  0.3698
  822YOPS   PO410998   2.548   7.101   5.749  0.1346  0.0993  0.2232
  822YOPS   GL110999   2.735   7.007   6.162  0.2687 -0.0924 -0.2686
  822YOPS   GL211000   2.816   7.336   6.221  0.0412 -0.1288  0.0701
  822YOPS   C1A11001   2.871   6.643   6.427  0.3718  0.3068  0.0208
  822YOPS   D2A11002   3.007   6.575   6.843 -0.0674 -0.0558  0.6238
  822YOPS   C3A11003   3.095   6.777   7.166 -0.1677  0.0988  0.1520
  822YOPS   C4A11004   2.880   6.812   7.610 -0.2173  0.1637  0.2054
  822YOPS   C1B11005   3.163   7.335   6.441 -0.1049  0.0137  0.1533
  822YOPS   C2B11006   3.196   7.557   6.847 -0.1560  0.2031  0.0480
  822YOPS   D3B11007   3.129   7.702   7.158  0.5330 -0.3072  0.0348
  822YOPS   C4B11008   2.711   7.717   7.230 -0.1035  0.0322 -0.1653
  823YOPS   CNO11009   2.059  13.122   5.259  0.0144 -0.0824  0.0331
  823YOPS   PO411010   1.836  13.528   5.341 -0.2182  0.1399  0.2677
  823YOPS   GL111011   2.074  13.467   5.675 -0.1279  0.2243 -0.3421
  823YOPS   GL211012   2.054  13.658   5.881  0.1549 -0.3041  0.1041
  823YOPS   C1A11013   1.970  13.276   6.095  0.1782 -0.1487 -0.1928
  823YOPS   D2A11014   2.067  13.064   6.474  0.0628 -0.0983 -0.0367
  823YOPS   C3A11015   2.008  13.099   6.923 -0.1078  0.0819 -0.3031
  823YOPS   C4A11016   2.364  13.183   7.188  0.3526 -0.4121 -0.0930
  823YOPS   C1B11017   1.500  13.640   6.120  0.3742 -0.1686  0.1280
  823YOPS   C2B11018   1.400  13.773   6.565 -0.2478 -0.3848 -0.0611
  823YOPS   D3B11019   1.470  13.769   7.049 -0.1218 -0.2363 -0.1979
  823YOPS   C4B11020   1.792  13.471   7.310 -0.1964 -0.2236  0.0555
  824YOPS   CNO11021  11.684  17.368   5.789  0.1125  0.1107  0.0103
  824YOPS   PO411022  11.869  17.679   6.134  0.0984  0.1036  0.0338
  824YOPS   GL111023  12.223  17.627   6.385 -0.1018  0.0416 -0.2253
  824YOPS   GL211024  12.387  17.408   6.441 -0.2582  0.0904  0.0812
  824YOPS   C1A11025  12.563  17.780   6.689 -0.0250 -0.2412 -0.1615
  824YOPS   D2A11026  12.593  18.225   6.860  0.0862 -0.0884  0.1996
  824YOPS   C3A11027  12.193  18.486   7.003 -0.2561 -0.0101  0.0206
  824YOPS   C4A11028  12.014  18.813   6.797 -0.0204  0.3847  0.1751
  824YOPS   C1B11029  12.354  17.378   6.885  0.0656  0.2752 -0.2028
  824YOPS   C2B11030  12.230  17.416   7.242 -0.4055 -0.0930 -0.1790
  824YOPS   D3B11031  12.388  17.658   7.691 -0.0741 -0.1122  0.2018
  824YOPS   C4B11032  12.195  17.987   7.715 -0.0977 -0.3382 -0.0184
  825YOPS   CNO11033   6.964   8.900   5.717 -0.0607 -0.0728 -0.1771
  825YOPS   PO411034   6.973   8.701   6.105 -0.0250  0.3108 -0.1669
  825YOPS   GL111035   7.203   8.550   6.483 -0.0454 -0.2445  0.2587
  825YOPS   GL211036   7.481   8.678   6.718  0.0269 -0.3079 -0.1520
  825YOPS   C1A11037   7.082   8.458   6.940 -0.0733 -0.2365 -0.1116
  825YOPS   D2A11038   7.115   8.113   7.153 -0.0236 -0.4933 -0.3068
  825YOPS   C3A11039   6.829   7.854   7.474 -0.2505  0.3307  0.1419
  825YOPS   C4A11040   6.793   7.739   7.938 -0.2121 -0.0642  0.1346
  825YOPS   C1B11041   7.706   9.032   7.003 -0.3795  0.2006 -0.4063
  825YOPS   C2B11042   8.011   9.171   6.919 -0.1092  0.0383 -0.3068
  825YOPS   D3B11043   8.494   9.349   6.851  0.1369  0.3263 -0.1263
  825YOPS   C4B11044   8.667   9.724   6.760  0.3292 -0.0385 -0.0503
  826YOPS   CNO11045   5.803   5.958   6.333 -0.1055 -0.2107  0.1073
  826YOPS   PO411046   5.863   5.839   5.863  0.2438 -0.1151 -0.0153
  826YOPS   GL111047   6.161   5.610   6.244 -0.0882  0.0184 -0.4313
  826YOPS   GL211048   6.438   5.824   6.335  0.0246  0.1221 -0.0542
  826YOPS   C1A11049   6.228   5.373   6.681  0.1715  0.0001  0.0857
  826YOPS   D2A11050   6.418   5.272   7.102  0.2670  0.0186  0.0464
  826YOPS   C3A11051   6.541   5.510   7.445  0.0251  0.1953 -0.0609
  826YOPS   C4A11052   6.897   5.732   7.543  0.2119 -0.2016 -0.2411
  826YOPS   C1B11053   6.664   5.610   6.741 -0.0001 -0.1600 -0.1079
  826YOPS   C2B11054   6.978   5.455   7.085 -0.0042  0.0421 -0.0906
  826YOPS   D3B11055   7.199   5.212   7.453 -0.2153  0.0937  0.1642
  826YOPS   C4B11056   7.140   5.349   7.789 -0.0891  0.3304 -0.1859
  827YOPS   CNO11057  12.288   7.027   6.581  0.0170  0.1786  0.0362
  827YOPS   PO411058  12.699   6.678   6.455  0.4600  0.1711  0.0187
  827YOPS   GL111059  12.656   6.591   6.778  0.1375 -0.0836  0.1555
  827YOPS   GL211060  12.460   6.778   6.999 -0.1242  0.0388  0.2185
  827YOPS   C1A11061  12.624   6.266   7.084 -0.0493  0.0081  0.2051
  827YOPS   D2A11062  12.318   6.219   7.374  0.2797  0.1360  0.2586
  827YOPS   C3A11063  12.054   6.494   7.541 -0.0813 -0.0474 -0.0160
  827YOPS   C4A11064  11.697   6.697   7.770 -0.1398 -0.0233  0.2188
  827YOPS   C1B11065  12.210   6.458   6.953 -0.3170  0.0204  0.0888
  827YOPS   C2B11066  12.192   5.923   6.949  0.0893 -0.0785  0.0079
  827YOPS   D3B11067  11.801   5.620   6.759  0.0865  0.1404 -0.0903
  827YOPS   C4B11068  11.629   5.404   6.984 -0.0167  0.0953 -0.2560
  828YOPS   CNO11069  15.989   9.778   6.059 -0.1142 -0.1618  0.1698
  828YOPS   PO411070  16.112  10.030   6.322 -0.1151 -0.1578 -0.1482
  828YOPS   GL111071  16.239   9.930   6.760 -0.1257  0.0998  0.0078
  828YOPS   GL211072  16.629   9.759   6.649 -0.1485  0.2746  0.0649
  828YOPS   C1A11073  16.103   9.674   7.118  0.0860 -0.2354  0.2781
  828YOPS   D2A11074  16.025   9.304   7.337 -0.0016 -0.1965 -0.0010
  828YOPS   C3A11075  15.764   9.105   7.665  0.0457 -0.0534  0.3653
  828YOPS   C4A11076  15.689   9.183   8.077  0.1702  0.0207 -0.2230
  828YOPS   C1B11077  16.646   9.850   7.073 -0.1573  0.0162 -0.4720
  828YOPS   C2B11078  16.830   9.890   7.475  0.3496  0.2217  0.1832
  828YOPS   D3B11079  17.102  10.149   7.686  0.3666 -0.0398  0.0380
  828YOPS   C4B11080  17.085  10.002   8.141 -0.0542 -0.3001 -0.3681
  829YOPS   CNO11081  10.342   7.605   6.198 -0.0358  0.0497  0.1502
  829YOPS   PO411082  10.608   7.789   6.591 -0.3328  0.2375  0.0148
  829YOPS   GL111083  10.557   7.897   7.041  0.0442 -0.1095  0.0635
  829YOPS   GL211084  10.543   7.562   7.037  0.1253  0.0242 -0.1137
  829YOPS   C1A11085  10.519   8.128   7.273 -0.2112  0.2649  0.2165
  829YOPS   D2A11086  10.616   8.283   7.601 -0.0344  0.1712 -0.1867
  829YOPS   C3A11087  10.705   8.082   8.006 -0.0687 -0.1330 -0.1432
  829YOPS   C4A11088  10.842   7.786   8.232 -0.1292  0.1771 -0.3741
  829YOPS   C1B11089  10.465   7.394   7.393  0.1476 -0.1345  0.0216
  829YOPS   C2B11090  10.356   7.148   7.774  0.0671  0.0355  0.0993
  829YOPS   D3B11091  10.144   7.115   8.055 -0.0255  0.3480 -0.1768
  829YOPS   C4B11092  10.332   6.927   8.290 -0.1205  0.0778  0.2555
  830YOPS   CNO11093  17.254  11.029   5.456  0.0179 -0.0374  0.1133
  830YOPS   PO411094  17.099  11.193   5.786  0.2067  0.2153 -0.2459
  830YOPS   GL111095  17.288  10.970   6.070 -0.0860  0.2552 -0.0983
  830YOPS   GL211096  17.097  10.815   6.215 -0.3634  0.1837  0.2965
  830YOPS   C1A11097  17.378  11.146   6.480  0.0790 -0.0118 -0.0656
  830YOPS   D2A11098  17.230  11.415   6.794 -0.2069  0.0831 -0.2651
  830YOPS   C3A11099  16.886  11.455   7.119 -0.1279 -0.2117 -0.1013
  830YOPS   C4A11100  16.827  11.078   7.335  0.0523 -0.3591  0.3237
  830YOPS   C1B11101  17.193  10.620   6.525 -0.0652 -0.4301  0.0822
  830YOPS   C2B11102  17.400  10.463   6.860  0.3771 -0.0043  0.0244
  830YOPS   D3B11103  17.654  10.605   7.178 -0.0211  0.0574  0.1334
  830YOPS   C4B11104  17.581  10.698   7.621 -0.0465 -0.1944  0.0683
  831YOPS   CNO11105  13.519   1.723   6.178 -0.0918 -0.2739  0.2785
  831YOPS   PO411106  13.969   1.825   5.986 -0.1215  0.0278  0.0044
  831YOPS   GL111107  13.967   1.791   6.417 -0.4130 -0.1031  0.1980
  831YOPS   GL211108  13.707   1.703   6.659  0.0842  0.2722 -0.1753
  831YOPS   C1A11109  14.140   1.823   6.790 -0.0177  0.3054 -0.1154
  831YOPS   D2A11110  14.228   1.507   7.091 -0.3883 -0.0069 -0.1391
  831YOPS   C3A11111  14.260   1.359   7.553 -0.2772 -0.1149  0.3801
  831YOPS   C4A11112  13.826   1.553   7.603 -0.0947  0.0776  0.0851
  831YOPS   C1B11113  13.357   1.660   6.872 -0.2169  0.0829 -0.2782
  831YOPS   C2B11114  13.319   1.379   7.186  0.2786  0.1613 -0.0516
  831YOPS   D3B11115  13.333   1.454   7.722  0.1770 -0.0620  0.0168
  831YOPS   C4B11116  13.603   1.766   7.987 -0.0662  0.0388 -0.2063
  832YOPS   CNO11117   2.528   0.593   5.188 -0.1225 -0.2422  0.0269
  832YOPS   PO411118   2.868   0.354   4.964 -0.0247  0.0568  0.2038
  832YOPS   GL111119   2.778   0.181   5.335  0.0646 -0.2280  0.2171
  832YOPS   GL211120   2.892   0.240   5.621  0.1448  0.0897  0.0356
  832YOPS   C1A11121   2.554  -0.095   5.695  0.0252 -0.1399 -0.4511
  832YOPS   D2A11122   2.313  -0.477   5.993  0.0440 -0.1994 -0.0788
  832YOPS   C3A11123   2.141  -0.849   6.197  0.0489  0.2537 -0.1330
  832YOPS   C4A11124   1.681  -0.869   6.261 -0.1870 -0.1775 -0.0669
  832YOPS   C1B11125   3.029   0.093   6.061  0.1183 -0.0938 -0.1926
  832YOPS   C2B11126   2.725  -0.267   6.206  0.2393  0.0156 -0.0846
  832YOPS   D3B11127   2.324  -0.454   6.469 -0.4706 -0.0122 -0.0069
  832YOPS   C4B11128   2.331  -0.686   6.809  0.2512 -0.0600  0.3206
  833YOPS   CNO11129   4.658   8.365   5.947 -0.0711  0.0191 -0.1385
  833YOPS   PO411130   4.679   8.402   6.381  0.2481  0.0056  0.0044
  833YOPS   GL111131   4.626   8.353   6.761  0.0785  0.0126  0.1556
  833YOPS   GL211132   4.607   8.025   6.869  0.1529 -0.3242  0.4342
  833YOPS   C1A11133   4.309   8.430   7.015  0.3971  0.0069 -0.0979
  833YOPS   D2A11134   4.115   8.709   7.345  0.5415  0.0079  0.0123
  833YOPS   C3A11135   4.164   9.100   7.625  0.0992  0.0414  0.2359
  833YOPS   C4A11136   4.355   9.058   7.937  0.1310 -0.2346  0.3390
  833YOPS   C1B11137   4.500   8.036   7.260 -0.1792  0.2983 -0.1430
  833YOPS   C2B11138   4.310   8.211   7.671  0.1084 -0.0957  0.1259
  833YOPS   D3B11139   4.179   8.603   7.820 -0.0681 -0.2856 -0.0321
  833YOPS   C4B11140   3.866   8.511   7.932 -0.0003  0.1916 -0.3778
  834YOPS   CNO11141   1.824   7.680   5.921 -0.1816  0.0051 -0.1211
  834YOPS   PO411142   1.577   7.766   6.260 -0.0649 -0.3344  0.0573
  834YOPS   GL111143   1.497   7.605   6.637  0.0905 -0.0177  0.0546
  834YOPS   GL211144   1.237   7.830   6.777  0.0367  0.1236 -0.3216
  834YOPS   C1A11145   1.647   7.321   7.029  0.1595  0.0951 -0.3489
  834YOPS   D2A11146   1.665   7.278   7.452 -0.0781  0.1132  0.0544
  834YOPS   C3A11147   1.467   7.429   7.789  0.1330  0.1903 -0.2633
  834YOPS   C4A11148   1.094   7.601   7.976 -0.0196  0.0660  0.0970
  834YOPS   C1B11149   1.284   7.671   7.226  0.0209  0.2968 -0.1323
  834YOPS   C2B11150   1.002   7.400   7.461  0.1200 -0.1888 -0.2750
  834YOPS   D3B11151   0.661   7.366   7.764  0.1593  0.0571 -0.0227
  834YOPS   C4B11152   0.481   6.970   8.057 -0.3200  0.2593  0.1745
  835YOPS   CNO11153  17.142  16.354   5.178 -0.3938 -0.3334  0.2318
  835YOPS   PO411154  17.527  16.085   5.296 -0.2453 -0.0811 -0.3132
  835YOPS   GL111155  17.242  15.916   5.638 -0.0877 -0.0803  0.0812
  835YOPS   GL211156  17.089  15.610   5.519  0.5653 -0.3344 -0.0646
  835YOPS   C1A11157  17.317  15.853   6.010 -0.0527 -0.4064  0.0451
  835YOPS   D2A11158  17.346  15.705   6.336 -0.1196 -0.2529  0.0229
  835YOPS   C3A11159  17.336  15.421   6.700 -0.1300 -0.2270 -0.2003
  835YOPS   C4A11160  17.201  15.620   7.105 -0.1395 -0.1683  0.3564
  835YOPS   C1B11161  17.035  15.467   5.975  0.0618 -0.1166  0.1551
  835YOPS   C2B11162  17.018  15.342   6.344  0.0970 -0.1732 -0.1992
  835YOPS   D3B11163  16.863  15.302   6.823  0.0871 -0.1700  0.0170
  835YOPS   C4B11164  17.140  15.130   7.213  0.0039 -0.1248 -0.2488
  836YOPS   CNO11165   3.348  17.079   5.142  0.0120  0.0148  0.2026
  836YOPS   PO411166   3.605  16.769   4.845  0.0384  0.1928 -0.3174
  836YOPS   GL111167   3.618  16.719   5.268  0.3627  0.0880  0.0342
  836YOPS   GL211168   3.791  16.420   5.404 -0.0023 -0.0385  0.2823
  836YOPS   C1A11169   3.735  16.891   5.660  0.0949  0.4363  0.0440
  836YOPS   D2A11170   3.789  16.851   6.129 -0.3111 -0.0031 -0.0058
  836YOPS   C3A11171   4.185  16.975   6.476  0.2964  0.1560  0.1777
  836YOPS   C4A11172   4.253  17.518   6.291 -0.1134 -0.1070  0.1546
  836YOPS   C1B11173   3.624  16.356   5.879  0.0671 -0.3237  0.0676
  836YOPS   C2B11174   3.470  16.148   6.279 -0.2016  0.0941 -0.2043
  836YOPS   D3B11175   3.397  16.117   6.704  0.2293  0.0422  0.1411
  836YOPS   C4B11176   3.599  16.394   6.950  0.1875 -0.1843 -0.0892
  837YOPS   CNO11177   1.159   0.590   4.761 -0.3474  0.0686 -0.2520
  837YOPS   PO411178   1.262   0.892   4.911 -0.0255 -0.0974  0.3121
  837YOPS   GL111179   1.320   0.911   5.342 -0.0199  0.0051 -0.1187
  837YOPS   GL211180   1.542   1.221   5.486  0.1059  0.0837 -0.0605
  837YOPS   C1A11181   1.161   0.982   5.796  0.2799 -0.3614  0.0693
  837YOPS   D2A11182   1.364   1.146   6.090  0.3088 -0.0607  0.0892
  837YOPS   C3A11183   1.300   1.401   6.498 -0.1063 -0.1435 -0.0279
  837YOPS   C4A11184   1.364   1.340   6.952 -0.1480 -0.0787 -0.1167
  837YOPS   C1B11185   1.298   1.544   5.658 -0.5003 -0.2738 -0.0520
  837YOPS   C2B11186   1.287   1.641   6.037 -0.0896  0.0586  0.0880
  837YOPS   D3B11187   1.459   1.883   6.479  0.1444 -0.4202 -0.1393
  837YOPS   C4B11188   1.218   2.034   6.745  0.2021 -0.4381 -0.3638
  838YOPS   CNO11189   0.174  10.721   5.905 -0.2626 -0.1599  0.0230
  838YOPS   PO411190   0.247  10.337   5.943  0.0564 -0.1095  0.0596
  838YOPS   GL111191   0.051  10.418   6.353 -0.0506 -0.0260  0.1249
  838YOPS   GL211192   0.114  10.748   6.451 -0.2926  0.2745 -0.0152
  838YOPS   C1A11193   0.133  10.220   6.809 -0.1077  0.3248  0.1650
  838YOPS   D2A11194  -0.037  10.096   7.226  0.3269 -0.4303  0.1454
  838YOPS   C3A11195  -0.000   9.973   7.605  0.1311  0.1101 -0.0506
  838YOPS   C4A11196   0.024  10.006   8.016 -0.1396  0.2654 -0.1438
  838YOPS   C1B11197   0.140  11.061   6.717 -0.1202  0.3719 -0.1013
  838YOPS   C2B11198   0.070  11.373   6.761  0.0061  0.1671  0.0088
  838YOPS   D3B11199  -0.010  11.741   6.566 -0.1225 -0.1512 -0.1956
  838YOPS   C4B11200  -0.291  11.591   6.290  0.1554 -0.3635 -0.2707
  839YOPS   CNO11201   8.283  10.802   5.737  0.2387  0.3425 -0.1794
  839YOPS   PO411202   7.920  10.852   6.039 -0.3935  0.0692  0.0809
  839YOPS   GL111203   8.069  10.987   6.372  0.1057  0.0478 -0.1529
  839YOPS   GL211204   8.196  10.758   6.577 -0.1897  0.0470  0.2677
  839YOPS   C1A11205   8.256  11.243   6.767  0.3529 -0.0237 -0.1475
  839YOPS   D2A11206   8.256  11.459   7.160 -0.0894  0.2738 -0.0049
  839YOPS   C3A11207   8.220  11.781   7.556 -0.2586  0.0539  0.0900
  839YOPS   C4A11208   8.564  11.838   7.799 -0.0918 -0.1477 -0.0196
  839YOPS   C1B11209   8.255  10.553   7.049 -0.2795  0.3309 -0.0879
  839YOPS   C2B11210   8.181  10.542   7.512  0.2143  0.1935 -0.0787
  839YOPS   D3B11211   8.386  10.222   7.761 -0.4158  0.2840 -0.1595
  839YOPS   C4B11212   8.601  10.312   8.127  0.0331 -0.2475  0.0233
  840YOPS   CNO11213  15.718   8.502   5.949 -0.0354  0.1799 -0.1818
  840YOPS   PO411214  16.087   8.721   6.029  0.1330 -0.0386  0.2429
  840YOPS   GL111215  16.038   8.599   6.446 -0.0122 -0.2360 -0.2738
  840YOPS   GL211216  15.725   8.585   6.553  0.1883 -0.0003 -0.1056
  840YOPS   C1A11217  16.169   8.608   6.945 -0.1276  0.1321 -0.0094
  840YOPS   D2A11218  16.247   8.413   7.401  0.1921 -0.3760  0.2015
  840YOPS   C3A11219  16.312   8.481   7.890  0.0186 -0.2114 -0.1401
  840YOPS   C4A11220  16.501   8.653   8.178  0.2724  0.5174  0.0646
  840YOPS   C1B11221  15.482   8.745   6.902 -0.2298  0.0492 -0.1070
  840YOPS   C2B11222  15.390   9.084   7.306  0.2405 -0.3456 -0.0384
  840YOPS   D3B11223  15.286   9.290   7.696  0.1613  0.1265 -0.1173
  840YOPS   C4B11224  15.000   9.518   8.081 -0.0170  0.0550 -0.1640
  841YOPS   CNO11225   5.229   0.749   5.578 -0.0023  0.2042  0.0555
  841YOPS   PO411226   5.689   1.111   5.584 -0.0648 -0.0222 -0.2461
  841YOPS   GL111227   5.505   1.090   5.950 -0.0580 -0.4193  0.1323
  841YOPS   GL211228   5.464   1.290   6.196 -0.1431 -0.3158  0.3054
  841YOPS   C1A11229   5.177   0.872   6.114  0.2588  0.0324  0.3876
  841YOPS   D2A11230   5.048   0.693   6.429  0.1253 -0.1845 -0.1362
  841YOPS   C3A11231   4.598   0.568   6.654 -0.1238  0.0753  0.0544
  841YOPS   C4A11232   4.539   0.899   7.033 -0.1300  0.3285  0.0721
  841YOPS   C1B11233   5.458   1.312   6.539 -0.1602 -0.2406  0.0158
  841YOPS   C2B11234   5.653   1.282   6.899  0.0096 -0.1095  0.1124
  841YOPS   D3B11235   5.522   1.048   7.242 -0.2708 -0.1832  0.2722
  841YOPS   C4B11236   5.670   1.328   7.597 -0.4438 -0.0813  0.0785
  842POPE   NH311237  11.738  11.140   5.836  0.1850  0.1113  0.0671
  842POPE   PO411238  11.395  10.839   5.798  0.4072 -0.3015 -0.0937
  842POPE   GL111239  11.355  10.904   6.258 -0.0712  0.1126  0.1055
  842POPE   GL211240  11.207  11.125   6.311 -0.0105 -0.2336 -0.1119
  842POPE   C1A11241  11.334  10.864   6.676 -0.4420  0.0655 -0.1296
  842POPE   D2A11242  11.238  10.964   7.052  0.0111 -0.3078 -0.1560
  842POPE   C3A11243  11.436  10.714   7.306 -0.2512  0.2467 -0.2448
  842POPE   C4A11244  11.402  10.769   7.803 -0.3178  0.1894  0.0029
  842POPE   C1B11245  11.073  11.323   6.719 -0.0587  0.3983 -0.0575
  842POPE   C2B11246  11.127  11.477   7.076 -0.2425 -0.4117 -0.0559
  842POPE   C3B11247  11.260  11.698   7.412  0.1166 -0.1570 -0.4312
  842POPE   C4B11248  11.425  11.773   7.771 -0.2524  0.1628  0.0730
  843POPE   NH311249  14.388  14.496   5.418 -0.0468 -0.3085  0.0770
  843POPE   PO411250  14.678  14.095   5.633 -0.2719  0.1702  0.0318
  843POPE   GL111251  14.613  14.357   5.952 -0.0188  0.0075  0.1096
  843POPE   GL211252  14.551  14.574   5.879 -0.1806  0.0396  0.4198
  843POPE   C1A11253  14.569  14.454   6.443 -0.2253  0.3160  0.0684
  843POPE   D2A11254  14.644  14.405   6.924 -0.0634 -0.0455  0.0002
  843POPE   C3A11255  14.460  14.643   7.191 -0.1979  0.1329  0.2294
  843POPE   C4A11256  14.500  14.889   7.561 -0.1633 -0.2285 -0.1293
  843POPE   C1B11257  14.055  14.783   6.063 -0.0607  0.1604 -0.3623
  843POPE   C2B11258  13.720  14.866   6.328 -0.0747  0.4174  0.2384
  843POPE   C3B11259  13.653  14.928   6.682 -0.2417  0.2511 -0.1081
  843POPE   C4B11260  13.607  14.675   6.985  0.0641 -0.1358  0.0041
  844POPE   NH311261  14.149   3.595   6.395  0.1340 -0.2627 -0.0795
  844POPE   PO411262  14.541   3.886   6.336 -0.1402  0.2706  0.0540
  844POPE   GL111263  14.527   3.500   6.782 -0.0479 -0.2013 -0.0690
  844POPE   GL211264  14.539   3.284   6.542 -0.0954 -0.1684 -0.2902
  844POPE   C1A11265  14.501   3.179   7.215 -0.0446 -0.0967  0.2546
  844POPE   D2A11266  14.391   3.102   7.639  0.1589 -0.0954 -0.3571
  844POPE   C3A11267  14.260   3.402   7.876 -0.0772 -0.0755  0.0836
  844POPE   C4A11268  14.222   3.801   8.036  0.0007 -0.1316  0.1192
  844POPE   C1B11269  14.614   2.955   6.824  0.2615 -0.0071  0.1549
  844POPE   C2B11270  14.536   2.548   7.048 -0.2535  0.0001 -0.3976
  844POPE   C3B11271  14.441   2.201   7.331  0.2591  0.1227  0.0031
  844POPE   C4B11272  14.272   1.860   7.563 -0.1392  0.3772 -0.0466
  845POPE   NH311273  10.191  15.260   5.916 -0.2181 -0.3374 -0.3599
  845POPE   PO411274  10.056  15.689   5.923  0.2465 -0.3713 -0.1583
  845POPE   GL111275   9.789  15.717   6.242  0.1461  0.1178 -0.0779
  845POPE   GL211276   9.522  15.880   6.244  0.1616 -0.1000  0.2854
  845POPE   C1A11277   9.758  15.745   6.652 -0.0677 -0.0552 -0.0107
  845POPE   D2A11278   9.724  15.655   7.069  0.0004 -0.2215  0.2091
  845POPE   C3A11279   9.722  15.358   7.354  0.4006 -0.2991  0.2901
  845POPE   C4A11280  10.080  15.130   7.608 -0.0246  0.0384 -0.0995
  845POPE   C1B11281   9.278  15.568   6.628 -0.0289 -0.1205  0.4032
  845POPE   C2B11282   9.159  15.661   6.983  0.0217  0.1033  0.1631
  845POPE   C3B11283   9.033  15.550   7.409  0.1988  0.1182  0.2777
  845POPE   C4B11284   8.830  15.501   7.745 -0.1479  0.1264  0.2728
  846POPE   NH311285  18.152   7.624   6.129  0.1119 -0.2945 -0.1504
  846POPE   PO411286  18.285   7.208   5.943  0.1822 -0.2055 -0.4039
  846POPE   GL111287  18.284   6.991   6.298  0.5071  0.1101  0.0317
  846POPE   GL211288  18.537   6.690   6.270 -0.0196 -0.1579  0.2397
  846POPE   C1A11289  18.321   6.835   6.727 -0.0986  0.0124 -0.4679
  846POPE   D2A11290  18.534   6.568   6.939  0.1657 -0.0350  0.0306
  846POPE   C3A11291  18.581   6.820   7.223 -0.0533  0.3099 -0.0847
  846POPE   C4A11292  18.981   7.074   7.353  0.0114  0.0407 -0.1051
  846POPE   C1B11293  18.293   6.452   6.439 -0.0283  0.0836 -0.0215
  846POPE   C2B11294  18.371   6.105   6.815  0.0916  0.2303  0.0147
  846POPE   C3B11295  18.369   6.121   7.234 -0.1938 -0.1739 -0.1359
  846POPE   C4B11296  18.448   5.901   7.571  0.0092  0.0165 -0.0469
  847POPE   NH311297   0.877   8.516   6.033 -0.1496 -0.1892 -0.0747
  847POPE   PO411298   0.421   8.424   6.089 -0.4251 -0.3291  0.0198
  847POPE   GL111299   0.403   8.444   6.508  0.5470 -0.1720  0.0993
  847POPE   GL211300   0.176   8.330   6.544  0.3288  0.0036  0.0509
  847POPE   C1A11301   0.517   8.510   6.883  0.1005  0.2427  0.1573
  847POPE   D2A11302   0.492   8.514   7.275  0.0338 -0.2727 -0.0336
  847POPE   C3A11303   0.232   8.310   7.516 -0.2027  0.0249  0.0051
  847POPE   C4A11304  -0.067   8.377   7.924  0.1743  0.2568  0.0302
  847POPE   C1B11305   0.127   8.238   7.043 -0.1953  0.1749  0.2364
  847POPE   C2B11306  -0.231   8.191   7.373  0.2899  0.1706  0.1104
  847POPE   C3B11307  -0.519   8.206   7.622 -0.1618  0.0948 -0.1636
  847POPE   C4B11308  -0.545   8.000   7.997 -0.1085  0.1096  0.1221
  848POPE   NH311309  15.066   7.831   6.044 -0.2548  0.0812 -0.2083
  848POPE   PO411310  15.042   7.322   5.935  0.2145 -0.0840 -0.2879
  848POPE   GL111311  14.715   7.184   6.327  0.3343 -0.0902  0.0675
  848POPE   GL211312  14.992   6.859   6.478  0.1877 -0.3124 -0.2644
  848POPE   C1A11313  14.695   7.250   6.833  0.0929 -0.0339  0.1073
  848POPE   D2A11314  14.381   7.433   7.045  0.0802  0.2190  0.0926
  848POPE   C3A11315  13.979   7.389   6.916 -0.0269  0.0690  0.1257
  848POPE   C4A11316  13.794   7.159   6.826  0.1359  0.3491 -0.1398
  848POPE   C1B11317  14.795   6.765   6.856 -0.2089 -0.0791 -0.2583
  848POPE   C2B11318  14.549   6.651   7.161 -0.1512 -0.1414  0.0407
  848POPE   C3B11319  14.620   6.605   7.644  0.2282 -0.1704  0.0570
  848POPE   C4B11320  14.629   6.915   8.061  0.0472 -0.0440  0.0978
  849POPE   NH311321  10.483   0.819   5.543 -0.0092  0.0519  0.0869
  849POPE   PO411322  10.254   0.802   5.978 -0.2066  0.1500  0.1803
  849POPE   GL111323  10.191   0.813   6.413 -0.2608 -0.2254 -0.0034
  849POPE   GL211324   9.978   1.038   6.477 -0.0059  0.0948  0.1501
  849POPE   C1A11325  10.256   0.546   6.728 -0.0977 -0.2740 -0.1420
  849POPE   D2A11326  10.308   0.587   7.170  0.1701  0.1904 -0.0601
  849POPE   C3A11327  10.298   0.279   7.399 -0.0039  0.3495 -0.0206
  849POPE   C4A11328  10.444   0.234   7.939  0.2626  0.2188  0.0109
  849POPE   C1B11329  10.025   0.984   6.923  0.1465 -0.0243  0.0072
  849POPE   C2B11330  10.026   1.099   7.391  0.0453 -0.0304 -0.1506
  849POPE   C3B11331  10.131   0.798   7.564 -0.0194  0.1196 -0.3089
  849POPE   C4B11332  10.439   0.751   7.796 -0.2118 -0.3585 -0.0125
  850POPE   NH311333  10.422   5.568   6.618 -0.2202 -0.0798  0.2021
  850POPE   PO411334  10.064   5.678   6.757 -0.1847 -0.1824 -0.2633
  850POPE   GL111335  10.101   5.623   7.185  0.1414 -0.1314 -0.0426
  850POPE   GL211336   9.743   5.821   7.205  0.0212  0.1093 -0.0933
  850POPE   C1A11337  10.107   5.590   7.690  0.1151  0.0684  0.0389
  850POPE   D2A11338   9.965   5.285   7.946 -0.1062 -0.1319 -0.2727
  850POPE   C3A11339  10.192   5.153   8.227 -0.1677  0.0528  0.2829
  850POPE   C4A11340  10.464   5.149   8.681 -0.0421  0.2774  0.2303
  850POPE   C1B11341   9.656   5.870   7.622 -0.1776 -0.1350 -0.0269
  850POPE   C2B11342   9.723   5.804   8.035 -0.0616  0.3626 -0.0269
  850POPE   C3B11343   9.961   5.683   8.409 -0.1210 -0.1239 -0.1127
  850POPE   C4B11344  10.248   5.598   8.759  0.0964 -0.2088 -0.1736
  851POPE   NH311345  15.762  10.976   6.429 -0.0834  0.1434  0.0226
  851POPE   PO411346  16.081  11.042   6.077  0.0691 -0.2541  0.2036
  851POPE   GL111347  16.406  11.056   6.424 -0.1245 -0.0166  0.2984
  851POPE   GL211348  16.243  11.111   6.568 -0.2421 -0.1474  0.0596
  851POPE   C1A11349  16.830  11.034   6.599  0.0320  0.3128 -0.0122
  851POPE   D2A11350  17.092  10.883   6.908 -0.0762 -0.1741 -0.0183
  851POPE   C3A11351  17.360  11.032   7.329  0.1448 -0.0537 -0.3737
  851POPE   C4A11352  17.624  11.274   7.590 -0.0232  0.2087  0.3004
  851POPE   C1B11353  16.505  11.129   6.950 -0.0651  0.0521 -0.1784
  851POPE   C2B11354  16.306  11.227   7.427 -0.0853  0.1587  0.1049
  851POPE   C3B11355  16.417  11.432   7.779  0.2144 -0.0109 -0.1551
  851POPE   C4B11356  16.489  11.311   8.140 -0.0532  0.1382  0.0617
  852POPE   NH311357   4.921  17.647   5.256  0.3302  0.1477 -0.0796
  852POPE   PO411358   5.178  17.467   5.297  0.2707 -0.3003 -0.0259
  852POPE   GL111359   5.375  17.536   5.728 -0.1753  0.1450  0.2950
  852POPE   GL211360   5.633  17.307   5.742  0.3473  0.2017 -0.1547
  852POPE   C1A11361   5.332  17.620   6.158 -0.0305  0.1310  0.0693
  852POPE   D2A11362   5.518  17.634   6.553  0.0682 -0.0279 -0.0319
  852POPE   C3A11363   5.423  17.835   6.948 -0.1819  0.3532 -0.1270
  852POPE   C4A11364   5.101  18.019   7.307  0.2143 -0.0685 -0.3500
  852POPE   C1B11365   5.317  17.136   6.075 -0.0295  0.2459 -0.2628
  852POPE   C2B11366   5.088  16.856   6.395 -0.4330 -0.1064  0.1112
  852POPE   C3B11367   4.838  16.904   6.720  0.1938 -0.2714 -0.0951
  852POPE   C4B11368   4.451  16.967   7.013  0.1328 -0.2438  0.1920
  853POPE   NH311369   3.567  17.893   5.081 -0.0593  0.1420 -0.1650
  853POPE   PO411370   3.579  17.489   4.944  0.0921  0.0541 -0.0746
  853POPE   GL111371   3.451  17.493   5.388 -0.0836 -0.0634 -0.0412
  853POPE   GL211372   3.759  17.514   5.612  0.2814 -0.5332  0.0115
  853POPE   C1A11373   3.291  17.680   5.819 -0.0235  0.0786  0.1241
  853POPE   D2A11374   3.123  17.825   6.268 -0.0394 -0.0441 -0.1369
  853POPE   C3A11375   2.773  17.856   6.548  0.0774 -0.3394  0.1197
  853POPE   C4A11376   2.733  18.104   6.927  0.0839  0.1680  0.0895
  853POPE   C1B11377   3.847  17.387   5.987  0.5011 -0.0046 -0.0113
  853POPE   C2B11378   3.818  17.276   6.472 -0.0953  0.2854 -0.1444
  853POPE   C3B11379   4.025  17.356   6.838 -0.1717  0.1192 -0.0973
  853POPE   C4B11380   4.186  17.705   7.065  0.1561 -0.2230  0.1709
  854POPE   NH311381   4.056   7.485   6.019 -0.3966  0.2955  0.0772
  854POPE   PO411382   3.862   7.910   6.018 -0.0015  0.3901 -0.0290
  854POPE   GL111383   4.018   7.779   6.482  0.0318  0.1820  0.1614
  854POPE   GL211384   4.135   8.060   6.698 -0.2301 -0.2797  0.1175
  854POPE   C1A11385   3.705   7.720   6.879 -0.2081  0.0019  0.1209
  854POPE   D2A11386   3.585   7.746   7.290 -0.2131  0.0817  0.0002
  854POPE   C3A11387   3.330   7.948   7.575 -0.3376  0.0400 -0.0238
  854POPE   C4A11388   3.011   8.059   7.505 -0.1385 -0.0810  0.4415
  854POPE   C1B11389   3.782   8.359   6.790 -0.3954 -0.0178  0.3318
  854POPE   C2B11390   3.704   8.672   7.114  0.2663  0.0618 -0.1592
  854POPE   C3B11391   3.614   8.888   7.504  0.3122  0.0891  0.0117
  854POPE   C4B11392   3.731   9.004   7.846 -0.2572  0.0816 -0.1321
  855POPE   NH311393  18.246   2.984   5.608 -0.0916 -0.0738 -0.2886
  855POPE   PO411394  18.143   2.680   5.771 -0.1565  0.0846 -0.1579
  855POPE   GL111395  18.200   2.691   6.191 -0.2686 -0.0449 -0.2654
  855POPE   GL211396  18.362   2.914   6.139 -0.1436  0.0387  0.0319
  855POPE   C1A11397  18.261   2.532   6.610 -0.3539 -0.1667 -0.0444
  855POPE   D2A11398  18.340   2.403   7.086 -0.0865 -0.0802  0.4277
  855POPE   C3A11399  17.981   2.375   7.497 -0.1517  0.1038  0.0896
  855POPE   C4A11400  17.636   2.592   7.751  0.1125  0.1311  0.1036
  855POPE   C1B11401  18.412   3.132   6.479  0.3779  0.3367 -0.3726
  855POPE   C2B11402  18.692   2.921   6.759 -0.1403  0.0661 -0.1450
  855POPE   C3B11403  18.735   2.814   7.131  0.0316  0.3015 -0.0989
  855POPE   C4B11404  18.505   2.640   7.489  0.2097  0.1624 -0.0454
  856POPE   NH311405   0.365   9.395   6.207 -0.2522 -0.0063  0.0098
  856POPE   PO411406   0.070   9.450   6.143  0.2055 -0.2419 -0.1422
  856POPE   GL111407   0.032   8.978   6.289  0.2327  0.1418  0.0332
  856POPE   GL211408  -0.077   8.632   6.192 -0.3321 -0.0157 -0.0357
  856POPE   C1A11409   0.262   8.939   6.702  0.0669 -0.0581 -0.1379
  856POPE   D2A11410   0.227   8.920   7.117  0.4126  0.0057  0.0691
  856POPE   C3A11411   0.252   9.357   7.108  0.4438 -0.3534 -0.0933
  856POPE   C4A11412   0.307   9.731   7.259 -0.1651  0.0440  0.1639
  856POPE   C1B11413  -0.218   8.680   6.615 -0.0281  0.1352 -0.0482
  856POPE   C2B11414  -0.233   8.565   6.990 -0.1131  0.1570 -0.1459
  856POPE   C3B11415  -0.126   8.716   7.366 -0.3157  0.0791 -0.0555
  856POPE   C4B11416   0.251   8.737   7.719 -0.0443  0.2028  0.1392
  857POPE   NH311417   0.098   5.016   5.906 -0.2810  0.1578 -0.0224
  857POPE   PO411418   0.461   4.880   5.811  0.1236 -0.0993 -0.1119
  857POPE   GL111419   0.852   4.746   5.897  0.1071 -0.0381 -0.0091
  857POPE   GL211420   0.741   4.385   6.068 -0.0277 -0.2490  0.2499
  857POPE   C1A11421   1.114   4.617   6.265 -0.0300  0.0697  0.1397
  857POPE   D2A11422   1.230   4.447   6.721  0.2224  0.0402  0.0663
  857POPE   C3A11423   1.308   4.539   7.061  0.0307 -0.0639 -0.1411
  857POPE   C4A11424   1.229   4.902   7.222 -0.1208 -0.0631 -0.3030
  857POPE   C1B11425   0.865   4.217   6.367 -0.0019 -0.3200  0.0688
  857POPE   C2B11426   1.041   3.869   6.613 -0.1102  0.4019 -0.1534
  857POPE   C3B11427   1.173   3.659   6.921  0.3005  0.2899  0.0471
  857POPE   C4B11428   0.853   3.476   7.285 -0.4199  0.0192 -0.2629
  858POPE   NH311429   8.188  10.435   6.153 -0.2910  0.3394  0.0323
  858POPE   PO411430   8.220  10.054   6.085  0.2023  0.0708  0.0186
  858POPE   GL111431   8.176  10.043   6.524  0.0479 -0.1128  0.2523
  858POPE   GL211432   8.333  10.232   6.569 -0.0001  0.0750  0.0492
  858POPE   C1A11433   8.013  10.159   6.919 -0.1374 -0.1407 -0.0523
  858POPE   D2A11434   7.762  10.567   7.112 -0.3088  0.0404 -0.0743
  858POPE   C3A11435   7.374  10.392   7.222 -0.1964 -0.1204 -0.0526
  858POPE   C4A11436   7.531   9.989   7.204 -0.6498 -0.0443 -0.1013
  858POPE   C1B11437   8.592  10.192   6.988 -0.1864  0.0597 -0.1405
  858POPE   C2B11438   8.638   9.923   7.286  0.1736 -0.0508 -0.0279
  858POPE   C3B11439   8.853   9.549   7.301  0.0015 -0.0843  0.0527
  858POPE   C4B11440   9.059   9.338   6.967  0.1637  0.1523  0.1856
  859POPE   NH311441  17.454  11.476   5.600  0.1047 -0.1250  0.1549
  859POPE   PO411442  17.663  11.148   5.796  0.0370 -0.0616 -0.1722
  859POPE   GL111443  17.688  11.411   6.161  0.1238  0.3295  0.2524
  859POPE   GL211444  17.378  11.706   6.200 -0.2225 -0.1598  0.1512
  859POPE   C1A11445  17.801  11.426   6.614 -0.1139  0.1092 -0.1060
  859POPE   D2A11446  17.624  11.707   6.926  0.1819 -0.0130 -0.4276
  859POPE   C3A11447  17.461  11.621   7.281 -0.2111 -0.2427  0.3039
  859POPE   C4A11448  17.138  11.372   7.625  0.0859 -0.1400 -0.1485
  859POPE   C1B11449  17.081  11.908   6.514 -0.1642 -0.3364  0.0911
  859POPE   C2B11450  17.083  11.920   6.992 -0.1852  0.1885 -0.2961
  859POPE   C3B11451  17.038  11.851   7.407 -0.0222 -0.0908 -0.1120
  859POPE   C4B11452  16.872  11.678   7.833 -0.1284  0.2031  0.1319
  860POPE   NH311453  12.703  10.886   5.966 -0.0197 -0.2002  0.3201
  860POPE   PO411454  12.670  10.511   5.947 -0.2156  0.4125  0.2041
  860POPE   GL111455  12.401  10.216   6.281  0.0766  0.2996  0.2034
  860POPE   GL211456  12.052  10.080   6.280  0.1282  0.2103  0.3649
  860POPE   C1A11457  12.255  10.076   6.695  0.0416  0.2209  0.1188
  860POPE   D2A11458  12.123  10.045   7.083  0.3107  0.2620 -0.2806
  860POPE   C3A11459  12.185  10.099   7.551 -0.1905  0.1293 -0.1067
  860POPE   C4A11460  12.403  10.200   7.933 -0.3877  0.0703 -0.1054
  860POPE   C1B11461  11.669   9.861   6.463  0.0185  0.2196 -0.0193
  860POPE   C2B11462  11.626   9.891   6.892 -0.0927 -0.0767 -0.0876
  860POPE   C3B11463  11.321   9.723   7.206 -0.1448 -0.1387 -0.0774
  860POPE   C4B11464  10.916   9.848   7.345  0.0214  0.2388 -0.3307
  861POPE   NH311465   9.962   8.220   6.602 -0.3028  0.0760  0.1684
  861POPE   PO411466   9.935   8.555   6.599 -0.0918 -0.2768 -0.1057
  861POPE   GL111467   9.704   8.507   7.052  0.0121 -0.1398  0.0550
  861POPE   GL211468   9.432   8.318   7.108  0.0144 -0.3634 -0.2270
  861POPE   C1A11469   9.534   8.695   7.572 -0.1002 -0.2905  0.1026
  861POPE   D2A11470   9.554   8.508   8.028 -0.0514 -0.0456  0.3559
  861POPE   C3A11471   9.371   8.128   8.095  0.2482 -0.3410  0.1955
  861POPE   C4A11472   9.251   7.858   8.463  0.2810 -0.0880  0.2288
  861POPE   C1B11473   9.060   8.485   7.325  0.0127 -0.1878  0.1658
  861POPE   C2B11474   9.012   8.655   7.740  0.1379  0.4292 -0.4414
  861POPE   C3B11475   9.023   8.509   8.131 -0.0722  0.0043 -0.1297
  861POPE   C4B11476   9.163   8.505   8.491 -0.0989 -0.1299 -0.2809
  862POPE   NH311477   7.553  11.915   5.752 -0.2197 -0.0790  0.2481
  862POPE   PO411478   7.150  11.750   5.930 -0.0624  0.1003 -0.0576
  862POPE   GL111479   7.151  11.880   6.234  0.4747 -0.1769  0.0636
  862POPE   GL211480   6.993  12.164   6.126  0.0540 -0.1478  0.0196
  862POPE   C1A11481   7.197  11.970   6.627 -0.0982 -0.1862 -0.0368
  862POPE   D2A11482   7.155  11.829   6.925  0.0908  0.0672 -0.0377
  862POPE   C3A11483   7.326  12.021   7.311 -0.1506 -0.4967  0.1651
  862POPE   C4A11484   7.547  12.396   7.457 -0.0989  0.1960  0.0715
  862POPE   C1B11485   6.817  12.304   6.537 -0.3460 -0.1523 -0.4305
  862POPE   C2B11486   6.905  12.368   6.983  0.1241 -0.0368 -0.0237
  862POPE   C3B11487   7.078  12.380   7.360  0.1215 -0.1216 -0.1383
  862POPE   C4B11488   7.171  12.398   7.769 -0.1210  0.1789 -0.1742
  863POPE   NH311489   7.266  11.214   5.755  0.0302 -0.0577  0.0298
  863POPE   PO411490   7.616  11.473   5.956 -0.3142 -0.1205 -0.2528
  863POPE   GL111491   7.384  11.382   6.266  0.3993  0.1496  0.0466
  863POPE   GL211492   7.051  11.348   6.216  0.0738 -0.3379  0.0419
  863POPE   C1A11493   7.161  11.463   6.659  0.0047 -0.1399 -0.3817
  863POPE   D2A11494   7.137  11.214   7.107  0.1809 -0.0994  0.0051
  863POPE   C3A11495   7.132  11.399   7.450 -0.1000 -0.1551  0.1425
  863POPE   C4A11496   6.856  11.415   7.800 -0.3205  0.5217  0.2124
  863POPE   C1B11497   6.650  11.385   6.435  0.0927  0.0035  0.0055
  863POPE   C2B11498   6.375  11.084   6.648 -0.0545  0.1041  0.0597
  863POPE   C3B11499   6.423  10.741   6.860 -0.0368 -0.0267  0.1929
  863POPE   C4B11500   6.443  10.701   7.308 -0.2487  0.0503  0.1768
  864POPE   NH311501   2.659  12.761   5.563  0.3690  0.1770  0.3362
  864POPE   PO411502   2.430  12.562   5.917 -0.2953 -0.1653 -0.0252
  864POPE   GL111503   2.401  12.599   6.351 -0.2301  0.1646  0.0914
  864POPE   GL211504   2.670  12.288   6.325 -0.0496 -0.0027 -0.2571
  864POPE   C1A11505   2.450  12.786   6.802 -0.2540  0.1272  0.1904
  864POPE   D2A11506   2.710  12.726   7.189  0.2223 -0.0715 -0.0217
  864POPE   C3A11507   2.856  13.119   7.316 -0.0179  0.1972  0.0119
  864POPE   C4A11508   2.884  13.441   7.628  0.1014 -0.2404 -0.2103
  864POPE   C1B11509   2.693  12.190   6.747  0.2473  0.0108  0.1729
  864POPE   C2B11510   2.348  12.411   7.130  0.1374  0.1998 -0.1085
  864POPE   C3B11511   2.109  12.724   7.239 -0.1195  0.2856  0.1010
  864POPE   C4B11512   1.954  13.002   7.533  0.1065 -0.3400  0.0380
  865POPE   NH311513  15.545  12.318   6.009 -0.2135  0.0796 -0.4567
  865POPE   PO411514  15.964  12.534   5.820  0.4625 -0.0625  0.0804
  865POPE   GL111515  16.180  12.818   5.987  0.0521  0.2449 -0.3754
  865POPE   GL211516  16.069  13.189   6.055  0.1050  0.0843 -0.2646
  865POPE   C1A11517  16.402  12.724   6.453 -0.0116  0.2134 -0.0491
  865POPE   D2A11518  16.355  12.648   6.834 -0.0195 -0.0252 -0.0243
  865POPE   C3A11519  15.880  12.568   6.869  0.2115 -0.2592  0.3408
  865POPE   C4A11520  15.552  12.696   6.635 -0.1435  0.0069  0.2096
  865POPE   C1B11521  15.965  13.046   6.501  0.2424  0.3864  0.0863
  865POPE   C2B11522  16.144  13.090   6.742  0.2392  0.1967 -0.0750
  865POPE   C3B11523  16.016  13.033   7.157  0.1671 -0.0375  0.1449
  865POPE   C4B11524  16.099  12.674   7.519 -0.0312 -0.3666 -0.0480
  866POPE   NH311525   2.261   7.872   5.916  0.3395 -0.1896  0.1996
  866POPE   PO411526   2.148   8.112   6.162 -0.1262  0.1347  0.1358
  866POPE   GL111527   1.894   8.221   6.497  0.5225 -0.1860 -0.1337
  866POPE   GL211528   1.616   8.117   6.643  0.1074  0.2652  0.1693
  866POPE   C1A11529   2.059   8.272   6.872  0.1986  0.0316  0.1371
  866POPE   D2A11530   2.083   8.238   7.307 -0.1044 -0.3551  0.1812
  866POPE   C3A11531   2.429   7.919   7.617  0.0009 -0.1862  0.0171
  866POPE   C4A11532   2.681   8.013   7.912 -0.0271 -0.1597 -0.2675
  866POPE   C1B11533   1.700   7.941   7.013  0.0843 -0.1719  0.2010
  866POPE   C2B11534   1.720   7.777   7.421 -0.3084 -0.0296  0.0629
  866POPE   C3B11535   1.870   8.000   7.710 -0.1726  0.0004  0.0638
  866POPE   C4B11536   2.167   8.064   8.030  0.0391  0.1055 -0.4877
  867POPE   NH311537   7.467  13.683   5.772  0.3462 -0.0034  0.0132
  867POPE   PO411538   7.464  14.083   5.742  0.4235  0.1375  0.1061
  867POPE   GL111539   7.476  13.961   6.183  0.0042  0.0781  0.2090
  867POPE   GL211540   7.220  13.809   6.241 -0.3140 -0.0034  0.1025
  867POPE   C1A11541   7.680  14.080   6.447 -0.1735  0.0200 -0.0213
  867POPE   D2A11542   7.998  14.146   6.486 -0.0601  0.1680 -0.1280
  867POPE   C3A11543   8.288  14.489   6.490 -0.1616 -0.1880 -0.0290
  867POPE   C4A11544   8.726  14.589   6.290  0.2013  0.3159  0.1488
  867POPE   C1B11545   7.049  13.536   6.568 -0.0205  0.2638  0.1302
  867POPE   C2B11546   6.975  13.670   6.955 -0.2353 -0.0824 -0.1539
  867POPE   C3B11547   6.736  13.489   7.333  0.1993 -0.2304  0.3142
  867POPE   C4B11548   6.563  13.442   7.793  0.1014  0.1901  0.0569
  868POPE   NH311549   7.981  15.898   5.581 -0.0383 -0.1830 -0.1675
  868POPE   PO411550   8.376  16.134   5.538 -0.0631  0.2581  0.0343
  868POPE   GL111551   8.400  16.075   6.001 -0.0025 -0.2181 -0.1249
  868POPE   GL211552   8.333  15.749   6.027  0.0641 -0.2697 -0.1068
  868POPE   C1A11553   7.978  15.994   6.288 -0.3548 -0.2239 -0.0769
  868POPE   D2A11554   7.557  16.186   6.341  0.0089 -0.0401  0.0549
  868POPE   C3A11555   7.294  16.041   6.628 -0.1509  0.1298 -0.2881
  868POPE   C4A11556   7.090  15.942   7.013  0.3493 -0.2709 -0.0141
  868POPE   C1B11557   8.138  15.563   6.394 -0.0520  0.0047  0.1474
  868POPE   C2B11558   7.978  15.520   6.798  0.0910  0.3528  0.4677
  868POPE   C3B11559   7.791  15.622   7.228  0.0831 -0.1619  0.1112
  868POPE   C4B11560   7.475  15.856   7.460  0.3347 -0.0208 -0.1864
  869POPE   NH311561   0.389   1.871   5.053 -0.2706 -0.4179  0.1346
  869POPE   PO411562   0.576   1.628   5.321 -0.1374  0.2275 -0.1367
  869POPE   GL111563   0.553   1.526   5.804 -0.3081 -0.3411  0.0893
  869POPE   GL211564   0.858   1.442   5.988 -0.3096 -0.2109 -0.0358
  869POPE   C1A11565   0.370   1.467   6.199 -0.5110  0.4446 -0.2420
  869POPE   D2A11566   0.342   1.461   6.696 -0.0149 -0.4527 -0.1402
  869POPE   C3A11567   0.201   1.728   7.004 -0.1474 -0.3906 -0.1549
  869POPE   C4A11568   0.126   1.688   7.546  0.0530  0.1977 -0.0717
  869POPE   C1B11569   0.890   1.091   6.244  0.3262 -0.0163  0.2741
  869POPE   C2B11570   0.946   0.868   6.705 -0.3401 -0.2930  0.1528
  869POPE   C3B11571   1.120   0.688   7.166  0.0187 -0.1062  0.0624
  869POPE   C4B11572   1.350   0.585   7.646  0.3676 -0.3721  0.0163
  870POPE   NH311573   8.574   7.151   6.096 -0.0957  0.1980  0.2517
  870POPE   PO411574   8.448   6.782   6.172 -0.1195  0.0878  0.0173
  870POPE   GL111575   8.581   6.405   6.470 -0.1463 -0.0562 -0.0154
  870POPE   GL211576   8.317   6.432   6.548 -0.0622 -0.2612  0.0531
  870POPE   C1A11577   8.881   6.359   6.783  0.1101  0.1439  0.0435
  870POPE   D2A11578   8.882   6.344   7.225  0.0065 -0.0997 -0.1148
  870POPE   C3A11579   8.978   6.493   7.686  0.6041 -0.0510  0.2878
  870POPE   C4A11580   9.161   6.351   8.023  0.2275 -0.1044 -0.0341
  870POPE   C1B11581   8.447   6.386   6.969  0.2573 -0.4389  0.1037
  870POPE   C2B11582   8.385   6.338   7.434  0.0033 -0.1992  0.1276
  870POPE   C3B11583   8.486   6.555   7.857 -0.1903 -0.3082 -0.0085
  870POPE   C4B11584   8.762   6.843   8.128  0.3123  0.1078  0.0128
  871POPE   NH311585   5.564  13.674   5.924 -0.0724 -0.2028 -0.0566
  871POPE   PO411586   5.480  13.399   5.756  0.0833 -0.0015  0.3287
  871POPE   GL111587   5.189  13.298   6.066 -0.4844  0.1703 -0.3027
  871POPE   GL211588   5.199  13.500   6.251 -0.5578  0.1117 -0.0270
  871POPE   C1A11589   4.751  13.271   6.295  0.1959  0.0485  0.0597
  871POPE   D2A11590   4.382  13.299   6.564 -0.1190  0.1846  0.0740
  871POPE   C3A11591   4.022  13.484   6.773 -0.1742  0.3219 -0.0885
  871POPE   C4A11592   4.079  13.428   7.140  0.3671 -0.3925  0.1462
  871POPE   C1B11593   5.168  13.390   6.662  0.3843  0.1526  0.3802
  871POPE   C2B11594   5.022  13.701   7.069 -0.2544 -0.1457 -0.2161
  871POPE   C3B11595   4.750  13.899   7.348 -0.1229 -0.0205 -0.0917
  871POPE   C4B11596   4.636  14.162   7.498 -0.1133 -0.1201 -0.0297
  872YOPE   NH311597  12.875  11.802   5.954 -0.0556  0.3164  0.0581
  872YOPE   PO411598  13.373  11.740   5.951 -0.0997  0.0889 -0.0527
  872YOPE   GL111599  13.388  11.972   6.296 -0.5309  0.0724 -0.3036
  872YOPE   GL211600  13.215  11.860   6.501  0.1423  0.0130  0.1988
  872YOPE   C1A11601  13.720  12.179   6.471  0.0090 -0.0273 -0.2588
  872YOPE   D2A11602  14.051  12.386   6.642 -0.0660  0.0009  0.1387
  872YOPE   C3A11603  14.046  12.589   7.027  0.4402  0.3860 -0.0459
  872YOPE   C4A11604  13.992  12.480   7.465 -0.2405 -0.2578 -0.0311
  872YOPE   C1B11605  13.242  12.168   6.765 -0.2869 -0.1569 -0.1612
  872YOPE   C2B11606  13.124  12.365   7.155  0.2156  0.2253  0.3886
  872YOPE   D3B11607  13.053  12.750   7.238  0.1230 -0.0335 -0.3671
  872YOPE   C4B11608  13.143  13.099   7.010  0.2553  0.3220  0.0495
  873YOPE   NH311609  13.508  17.754   5.964  0.0409 -0.4567  0.0349
  873YOPE   PO411610  13.816  17.963   6.093 -0.0336  0.0463 -0.1772
  873YOPE   GL111611  13.637  17.796   6.440 -0.2404  0.1906  0.1488
  873YOPE   GL211612  13.628  17.462   6.436  0.3967 -0.3411 -0.1837
  873YOPE   C1A11613  13.423  17.636   6.868 -0.0639  0.4268  0.0882
  873YOPE   D2A11614  13.401  17.586   7.245 -0.1210  0.1073 -0.3751
  873YOPE   C3A11615  13.317  17.942   7.397 -0.1410  0.1325 -0.0514
  873YOPE   C4A11616  13.282  18.051   7.789  0.0308 -0.3747  0.2955
  873YOPE   C1B11617  13.318  17.129   6.479 -0.1848 -0.1160  0.3181
  873YOPE   C2B11618  13.121  16.828   6.758  0.0737 -0.1585 -0.0552
  873YOPE   D3B11619  13.072  16.770   7.241 -0.1308 -0.0915  0.1561
  873YOPE   C4B11620  12.929  16.515   7.496  0.1763 -0.1878  0.2984
  874YOPE   NH311621  13.122   2.176   6.089 -0.0679 -0.1197 -0.1208
  874YOPE   PO411622  13.625   2.196   6.200 -0.1734 -0.3129 -0.1417
  874YOPE   GL111623  13.314   2.061   6.579 -0.3145 -0.0757  0.0775
  874YOPE   GL211624  13.070   1.819   6.522  0.1868 -0.0700 -0.0509
  874YOPE   C1A11625  13.375   2.094   7.051 -0.0312 -0.0361 -0.0270
  874YOPE   D2A11626  13.415   1.848   7.471 -0.0912  0.0762 -0.0998
  874YOPE   C3A11627  13.281   2.085   7.810  0.1183 -0.1648 -0.0032
  874YOPE   C4A11628  13.057   2.193   8.148 -0.1760  0.1753 -0.1625
  874YOPE   C1B11629  12.860   1.688   7.052  0.0415  0.1773  0.1246
  874YOPE   C2B11630  13.003   1.645   7.425 -0.0123  0.1150  0.0992
  874YOPE   D3B11631  12.954   1.750   7.894 -0.1496 -0.1448 -0.1704
  874YOPE   C4B11632  12.656   1.757   8.297  0.1665 -0.1826  0.0524
  875YOPE   NH311633  10.540  13.159   5.999 -0.0511  0.0818  0.0350
  875YOPE   PO411634  10.863  12.967   5.965  0.0705  0.3042  0.0525
  875YOPE   GL111635  10.682  12.663   6.349  0.1455 -0.1539  0.0871
  875YOPE   GL211636  10.656  13.017   6.428  0.0769 -0.0786 -0.1395
  875YOPE   C1A11637  10.376  12.249   6.348  0.0107 -0.0178 -0.0831
  875YOPE   D2A11638  10.211  11.945   6.626  0.0468  0.2769 -0.0348
  875YOPE   C3A11639  10.009  12.214   6.870 -0.1477  0.1149  0.1752
  875YOPE   C4A11640   9.762  12.551   7.019  0.1992 -0.1975  0.1438
  875YOPE   C1B11641  10.910  13.046   6.792  0.1157 -0.2599 -0.0223
  875YOPE   C2B11642  11.013  13.196   7.220 -0.0412  0.2888  0.1210
  875YOPE   D3B11643  11.302  12.956   7.634 -0.1410  0.1715  0.1536
  875YOPE   C4B11644  11.749  12.958   7.930  0.0592  0.1252  0.0487
  876YOPE   NH311645   0.392   4.340   5.674  0.1846 -0.0911  0.1282
  876YOPE   PO411646   0.108   4.491   5.837 -0.0947 -0.3738 -0.1450
  876YOPE   GL111647   0.042   4.244   6.202  0.2349 -0.2690  0.1644
  876YOPE   GL211648   0.211   4.056   6.103  0.0804  0.0439 -0.0779
  876YOPE   C1A11649   0.384   4.217   6.545  0.2915 -0.1118  0.0055
  876YOPE   D2A11650   0.701   4.330   6.897  0.0974 -0.1510 -0.3963
  876YOPE   C3A11651   0.983   4.083   7.123 -0.2451  0.6199 -0.1586
  876YOPE   C4A11652   1.320   3.794   7.409 -0.2482 -0.0857  0.0886
  876YOPE   C1B11653   0.194   3.636   6.304  0.2300  0.1272  0.0563
  876YOPE   C2B11654   0.315   3.425   6.697  0.2302 -0.0287 -0.0911
  876YOPE   D3B11655   0.033   3.282   6.971 -0.2374  0.0166  0.2348
  876YOPE   C4B11656  -0.245   2.881   6.971 -0.4452  0.0083 -0.0029
  877YOPE   NH311657  14.832   2.052   6.147 -0.2484 -0.0224  0.0585
  877YOPE   PO411658  15.316   1.814   6.046 -0.1622 -0.1075 -0.1283
  877YOPE   GL111659  15.201   1.912   6.493 -0.1040 -0.0092  0.2492
  877YOPE   GL211660  14.881   1.795   6.547 -0.2521  0.0748 -0.0875
  877YOPE   C1A11661  15.238   2.011   6.885 -0.1282 -0.0150 -0.0374
  877YOPE   D2A11662  14.924   2.294   7.189  0.0221 -0.3148 -0.0299
  877YOPE   C3A11663  15.126   2.255   7.636 -0.0293 -0.1016 -0.0554
  877YOPE   C4A11664  15.453   2.265   7.853  0.0422  0.1040 -0.2142
  877YOPE   C1B11665  15.012   1.511   6.852  0.2502  0.0700 -0.0172
  877YOPE   C2B11666  15.144   1.607   7.209  0.0640 -0.0897 -0.4636
  877YOPE   D3B11667  15.430   1.888   7.427 -0.1060 -0.2155 -0.1529
  877YOPE   C4B11668  15.682   1.663   7.724 -0.1886  0.2439  0.0941
  878YOPE   NH311669  17.409   3.318   5.650 -0.0131 -0.0011 -0.0168
  878YOPE   PO411670  17.268   2.924   5.662 -0.0745  0.1399  0.1079
  878YOPE   GL111671  17.070   2.732   6.039 -0.1865  0.4267  0.2034
  878YOPE   GL211672  16.840   2.860   6.054  0.1390  0.1426 -0.0645
  878YOPE   C1A11673  17.175   2.896   6.419  0.3947  0.0243 -0.2286
  878YOPE   D2A11674  17.021   3.003   6.797 -0.4400 -0.1140 -0.2843
  878YOPE   C3A11675  17.097   2.724   7.050 -0.0339  0.0684  0.2271
  878YOPE   C4A11676  17.411   2.687   7.255  0.3411  0.1225 -0.0949
  878YOPE   C1B11677  16.782   2.620   6.468  0.4310 -0.3847  0.1339
  878YOPE   C2B11678  16.931   2.401   6.761  0.1264 -0.1350 -0.0339
  878YOPE   D3B11679  16.880   2.223   7.191 -0.1311  0.0576  0.2735
  878YOPE   C4B11680  16.886   2.058   7.634 -0.1702  0.2251 -0.2102
  879YOPE   NH311681   2.229  10.235   5.920  0.1762 -0.1564 -0.6957
  879YOPE   PO411682   2.075   9.966   6.157  0.0054  0.0845  0.1050
  879YOPE   GL111683   2.327  10.127   6.466 -0.0484  0.2422  0.1962
  879YOPE   GL211684   2.557  10.334   6.392 -0.0235 -0.1116  0.0529
  879YOPE   C1A11685   2.182  10.341   6.789 -0.1400 -0.4206 -0.1439
  879YOPE   D2A11686   1.933  10.658   6.949 -0.1061  0.0662 -0.1870
  879YOPE   C3A11687   1.822  10.967   7.144  0.0813 -0.0071 -0.0622
  879YOPE   C4A11688   1.846  10.941   7.660  0.0630 -0.1166 -0.1844
  879YOPE   C1B11689   2.640  10.466   6.802 -0.3114 -0.0064  0.1243
  879YOPE   C2B11690   2.555  10.402   7.171 -0.0692 -0.1288  0.1762
  879YOPE   D3B11691   2.547  10.522   7.504  0.0308  0.0268 -0.0696
  879YOPE   C4B11692   2.834  10.767   7.791  0.1531  0.0844 -0.0165
  880YOPE   NH311693  14.668   3.066   6.114  0.3099  0.0151 -0.0059
  880YOPE   PO411694  14.176   3.115   6.303  0.1061  0.2468 -0.2971
  880YOPE   GL111695  14.141   3.135   6.772 -0.1050 -0.0017 -0.1910
  880YOPE   GL211696  14.067   3.381   7.029 -0.3200  0.1843  0.1927
  880YOPE   C1A11697  14.145   2.807   7.103  0.3893 -0.2741 -0.0123
  880YOPE   D2A11698  14.178   2.552   7.571 -0.1006  0.0942  0.1069
  880YOPE   C3A11699  14.342   2.672   8.045 -0.1488  0.0872  0.0099
  880YOPE   C4A11700  14.859   2.592   8.178 -0.2371  0.1463  0.1424
  880YOPE   C1B11701  13.947   3.349   7.469 -0.3443  0.3376  0.0433
  880YOPE   C2B11702  13.562   3.366   7.658 -0.0884 -0.2848  0.2432
  880YOPE   D3B11703  13.443   3.045   7.918 -0.0554 -0.0332  0.2302
  880YOPE   C4B11704  13.196   2.682   8.140 -0.1366  0.1270 -0.2815
  881YOPE   NH311705   1.934   9.531   5.981  0.0561  0.4770  0.1180
  881YOPE   PO411706   2.408   9.547   6.201 -0.0154  0.3730 -0.0095
  881YOPE   GL111707   2.888   9.567   6.422  0.0380 -0.3197  0.1864
  881YOPE   GL211708   2.699   9.794   6.565  0.0792 -0.0170  0.0939
  881YOPE   C1A11709   3.077   9.641   6.822  0.0614 -0.1360  0.0572
  881YOPE   D2A11710   3.253   9.507   7.250 -0.0549 -0.1042  0.0564
  881YOPE   C3A11711   2.980   9.581   7.616  0.3203  0.0577  0.1774
  881YOPE   C4A11712   2.851   9.322   7.919  0.3587 -0.1627 -0.1790
  881YOPE   C1B11713   2.722   9.999   6.855  0.1227  0.2317  0.3456
  881YOPE   C2B11714   2.705   9.949   7.284 -0.0012 -0.2906  0.0584
  881YOPE   D3B11715   2.724  10.083   7.727  0.1145  0.1641  0.1980
  881YOPE   C4B11716   2.747  10.316   7.978  0.1513  0.0864 -0.2513
  882YOPE   NH311717   3.708  14.516   5.336 -0.1552  0.1413 -0.3215
  882YOPE   PO411718   3.304  14.708   5.129 -0.2735  0.0687  0.0255
  882YOPE   GL111719   3.405  14.843   5.685 -0.2822 -0.0935  0.1387
  882YOPE   GL211720   3.560  14.722   5.761 -0.1656 -0.0251  0.4392
  882YOPE   C1A11721   3.374  14.961   6.157 -0.2074  0.3120  0.1708
  882YOPE   D2A11722   2.962  14.989   6.257  0.3329  0.1226  0.1038
  882YOPE   C3A11723   2.895  15.349   6.512 -0.0328 -0.0717 -0.2806
  882YOPE   C4A11724   2.713  15.538   6.855 -0.0320  0.2504 -0.4020
  882YOPE   C1B11725   3.826  14.721   6.060 -0.1228 -0.1560  0.0065
  882YOPE   C2B11726   4.194  14.659   6.402  0.5326  0.1876  0.3594
  882YOPE   D3B11727   4.553  14.518   6.551 -0.3234  0.0315  0.0453
  882YOPE   C4B11728   4.932  14.692   6.424  0.3167 -0.1303  0.0280
  883YOPE   NH311729   1.131   3.745   5.514 -0.2025  0.0878 -0.5215
  883YOPE   PO411730   0.728   3.663   5.557  0.3216 -0.0768 -0.0859
  883YOPE   GL111731   0.718   3.868   5.986  0.2163 -0.2925  0.3328
  883YOPE   GL211732   1.138   3.894   6.068  0.0648  0.1897 -0.0676
  883YOPE   C1A11733   0.667   3.651   6.387 -0.1229 -0.0148  0.0514
  883YOPE   D2A11734   0.787   3.407   6.772  0.0350  0.2146 -0.0355
  883YOPE   C3A11735   0.459   3.228   7.160  0.0249  0.1127 -0.1835
  883YOPE   C4A11736   0.670   3.162   7.576  0.0121  0.2200  0.0563
  883YOPE   C1B11737   1.416   4.220   6.258 -0.0078  0.0135 -0.0284
  883YOPE   C2B11738   1.699   4.302   6.563 -0.0622 -0.2105 -0.1865
  883YOPE   D3B11739   1.783   4.514   6.988  0.1395 -0.0322  0.1461
  883YOPE   C4B11740   1.711   4.503   7.397  0.0468  0.0122  0.0776
  884YOPE   NH311741   6.732   0.978   5.559 -0.1905  0.0163  0.0648
  884YOPE   PO411742   6.475   0.601   5.653  0.0160  0.2867 -0.1384
  884YOPE   GL111743   6.151   0.592   5.904 -0.1763  0.2062 -0.1297
  884YOPE   GL211744   6.251   0.224   6.156  0.4733 -0.0822  0.1256
  884YOPE   C1A11745   5.971   0.954   6.116  0.1596 -0.3017  0.0422
  884YOPE   D2A11746   5.917   1.133   6.450  0.2411 -0.3567 -0.4051
  884YOPE   C3A11747   5.945   0.869   6.791  0.0806 -0.1310 -0.1211
  884YOPE   C4A11748   5.785   0.635   7.144  0.0508  0.0896  0.0005
  884YOPE   C1B11749   5.850   0.493   6.301  0.2268 -0.1869 -0.1735
  884YOPE   C2B11750   5.552   0.795   6.418 -0.0015 -0.2532 -0.3164
  884YOPE   D3B11751   5.284   0.759   6.835 -0.0946  0.0573  0.5330
  884YOPE   C4B11752   4.936   0.529   7.015  0.1246 -0.1030 -0.0406
  885YOPE   NH311753  12.734  18.182   6.138  0.0404  0.1260  0.2711
  885YOPE   PO411754  12.916  18.528   6.383  0.1604 -0.1086 -0.1692
  885YOPE   GL111755  12.888  18.879   6.580 -0.0344  0.1342  0.1019
  885YOPE   GL211756  13.069  19.089   6.428 -0.4409  0.1423 -0.0681
  885YOPE   C1A11757  12.771  19.254   6.892 -0.4655  0.2077 -0.1467
  885YOPE   D2A11758  12.664  19.283   7.307  0.2254 -0.0193 -0.2894
  885YOPE   C3A11759  12.741  19.196   7.757  0.2001 -0.0295  0.0176
  885YOPE   C4A11760  12.662  19.269   8.069  0.0661  0.1109 -0.0905
  885YOPE   C1B11761  13.260  18.953   6.840  0.5026  0.2561 -0.0955
  885YOPE   C2B11762  13.530  19.108   7.158 -0.1461 -0.0776  0.1192
  885YOPE   D3B11763  13.769  18.986   7.460 -0.1096  0.0245 -0.1093
  885YOPE   C4B11764  13.971  18.674   7.698 -0.2095 -0.0736  0.1240
  886YOPE   NH311765   6.721   6.665   6.322  0.1375  0.1321 -0.0103
  886YOPE   PO411766   6.598   6.268   6.157 -0.0540 -0.0542 -0.1495
  886YOPE   GL111767   6.679   6.240   6.641 -0.3650  0.2798 -0.1342
  886YOPE   GL211768   6.846   6.541   6.797 -0.2149 -0.0142 -0.0352
  886YOPE   C1A11769   6.568   6.059   6.973 -0.0406 -0.1461  0.1250
  886YOPE   D2A11770   6.473   5.988   7.421  0.1528  0.0529 -0.2397
  886YOPE   C3A11771   6.194   5.806   7.558  0.0499  0.0590  0.2638
  886YOPE   C4A11772   5.941   5.588   7.903  0.0603 -0.1722 -0.1623
  886YOPE   C1B11773   7.035   6.554   7.057  0.1137 -0.0359 -0.0147
  886YOPE   C2B11774   7.015   6.225   7.480  0.1571 -0.3192 -0.1619
  886YOPE   D3B11775   7.075   5.993   7.894 -0.1019  0.2339  0.2005
  886YOPE   C4B11776   7.262   5.667   8.151 -0.3203  0.0658 -0.2299
  887YOPE   NH311777  14.225  10.721   6.162  0.2617 -0.0474 -0.4662
  887YOPE   PO411778  14.496  11.072   6.141 -0.2132  0.1781  0.0176
  887YOPE   GL111779  14.500  10.988   6.526  0.0756 -0.2874 -0.1849
  887YOPE   GL211780  14.566  10.667   6.746  0.2166  0.1523  0.1801
  887YOPE   C1A11781  14.427  11.091   6.904  0.0224 -0.4162 -0.2504
  887YOPE   D2A11782  14.548  11.085   7.345 -0.1831  0.0436  0.0340
  887YOPE   C3A11783  14.322  11.436   7.651 -0.2084  0.3366  0.2100
  887YOPE   C4A11784  14.238  11.752   7.954  0.1563  0.2035 -0.2270
  887YOPE   C1B11785  14.100  10.792   6.751 -0.1863  0.1428 -0.2693
  887YOPE   C2B11786  13.912  10.855   7.169 -0.1772 -0.2445 -0.0038
  887YOPE   D3B11787  13.949  10.737   7.589 -0.2404  0.3382  0.1536
  887YOPE   C4B11788  13.988  10.704   8.038 -0.2867 -0.1925 -0.1612
  888YOPE   NH311789  15.475   5.125   5.797  0.1551 -0.0081 -0.2832
  888YOPE   PO411790  15.372   5.040   6.285  0.1204  0.0031 -0.0858
  888YOPE   GL111791  15.623   5.002   6.555 -0.3673 -0.2382 -0.1467
  888YOPE   GL211792  15.665   4.759   6.686  0.2364 -0.1423  0.2200
  888YOPE   C1A11793  15.620   5.214   6.920  0.0166 -0.0912  0.1723
  888YOPE   D2A11794  15.433   5.282   7.398 -0.0025  0.0442 -0.0018
  888YOPE   C3A11795  15.579   5.169   7.823  0.1348  0.4505  0.0840
  888YOPE   C4A11796  15.677   5.518   8.139  0.1889 -0.2473 -0.0731
  888YOPE   C1B11797  15.548   4.548   7.046 -0.2333 -0.0668  0.2087
  888YOPE   C2B11798  15.327   4.376   7.379 -0.2637 -0.1677  0.0140
  888YOPE   D3B11799  15.284   4.344   7.747 -0.1702  0.0947 -0.1226
  888YOPE   C4B11800  15.011   4.273   7.974 -0.1522 -0.2542 -0.1439
  889YOPE   NH311801  11.607  10.876   5.334  0.1360  0.2058  0.2460
  889YOPE   PO411802  11.871  10.659   5.654 -0.0027  0.0113 -0.0121
  889YOPE   GL111803  11.854  10.663   6.109  0.0962 -0.1082 -0.1231
  889YOPE   GL211804  12.106  10.608   6.208  0.2867 -0.1866 -0.1371
  889YOPE   C1A11805  11.732  10.556   6.584  0.1299  0.1750  0.0888
  889YOPE   D2A11806  11.648  10.392   6.983 -0.0933 -0.0425  0.1367
  889YOPE   C3A11807  11.285  10.271   7.105  0.1156 -0.0278  0.0809
  889YOPE   C4A11808  11.074  10.373   7.565  0.0242 -0.0677  0.0076
  889YOPE   C1B11809  12.236  10.526   6.609  0.0368  0.0601 -0.0395
  889YOPE   C2B11810  12.341  10.534   6.990  0.0878 -0.1358 -0.1006
  889YOPE   D3B11811  12.033  10.499   7.261 -0.1280 -0.1003  0.2072
  889YOPE   C4B11812  11.728  10.424   7.593  0.1614  0.0673 -0.0965
  890YOPE   NH311813   3.230   1.885   5.096  0.0153 -0.2197  0.1950
  890YOPE   PO411814   3.051   1.442   5.186  0.1605 -0.0245  0.1059
  890YOPE   GL111815   3.313   1.635   5.541  0.1795 -0.1981  0.2568
  890YOPE   GL211816   3.183   1.979   5.675 -0.2399 -0.3583 -0.1191
  890YOPE   C1A11817   3.222   1.520   5.951  0.2004  0.0947  0.0518
  890YOPE   D2A11818   2.996   1.422   6.250 -0.0411  0.2414  0.3173
  890YOPE   C3A11819   2.713   1.120   6.255  0.2180  0.1348  0.5316
  890YOPE   C4A11820   2.539   0.685   6.221  0.3843  0.0940  0.2937
  890YOPE   C1B11821   3.102   2.005   6.062 -0.3266 -0.0232 -0.1083
  890YOPE   C2B11822   3.218   1.842   6.427 -0.0440  0.0641 -0.2476
  890YOPE   D3B11823   3.060   1.921   6.829  0.0720  0.0265  0.0907
  890YOPE   C4B11824   3.047   1.870   7.224 -0.0546  0.1662  0.2066
  891YOPE   NH311825  10.698  18.311   6.298 -0.3207  0.2887 -0.0389
  891YOPE   PO411826  11.175  18.574   6.348  0.3558  0.2034 -0.2448
  891YOPE   GL111827  11.209  18.578   6.749  0.2782  0.0965 -0.1928
  891YOPE   GL211828  11.435  18.749   6.728  0.1048  0.0169 -0.2011
  891YOPE   C1A11829  11.135  18.675   7.191 -0.1201 -0.2509  0.2100
  891YOPE   D2A11830  11.098  18.485   7.553  0.1194 -0.0736  0.1942
  891YOPE   C3A11831  11.258  18.212   7.814 -0.0717  0.2424 -0.1371
  891YOPE   C4A11832  11.118  17.920   7.940 -0.2401  0.1072 -0.1966
  891YOPE   C1B11833  11.702  18.759   7.130 -0.0248  0.0904  0.1549
  891YOPE   C2B11834  11.920  18.735   7.517  0.0092 -0.0833  0.2277
  891YOPE   D3B11835  12.242  18.507   7.640 -0.0575 -0.1161  0.0249
  891YOPE   C4B11836  12.514  18.415   7.362 -0.1185  0.1275  0.1648
  892YOPE   NH311837  11.885   8.383   6.037  0.1212  0.0922 -0.1644
  892YOPE   PO411838  12.378   8.555   6.151  0.0336  0.1815  0.0980
  892YOPE   GL111839  12.112   8.559   6.531  0.0115 -0.1576  0.1573
  892YOPE   GL211840  12.030   8.311   6.756  0.1680 -0.0590 -0.1461
  892YOPE   C1A11841  12.186   8.880   6.808  0.0614  0.0009 -0.3198
  892YOPE   D2A11842  12.404   8.888   7.221  0.0478 -0.3757  0.1445
  892YOPE   C3A11843  12.210   8.947   7.550  0.0609 -0.0419  0.0876
  892YOPE   C4A11844  12.102   8.956   7.906  0.0993  0.0115 -0.0371
  892YOPE   C1B11845  11.928   8.157   7.152 -0.1698  0.2476  0.0902
  892YOPE   C2B11846  11.739   8.298   7.554  0.1981 -0.1287 -0.1518
  892YOPE   D3B11847  11.651   8.715   7.732  0.2728 -0.1497  0.1413
  892YOPE   C4B11848  11.595   9.083   7.950  0.0045 -0.1428  0.1423
  893YOPE   NH311849   6.620  15.119   5.785  0.2719  0.4208  0.1353
  893YOPE   PO411850   6.770  15.488   5.707 -0.1261  0.0723 -0.2661
  893YOPE   GL111851   6.707  15.494   6.152 -0.2557  0.0977  0.0148
  893YOPE   GL211852   7.056  15.548   6.259 -0.1342  0.1043  0.4723
  893YOPE   C1A11853   6.453  15.442   6.526  0.1753 -0.0241 -0.0493
  893YOPE   D2A11854   6.183  15.497   6.887  0.0673 -0.0132 -0.1041
  893YOPE   C3A11855   6.119  15.908   7.082 -0.0244 -0.0625  0.2087
  893YOPE   C4A11856   6.284  16.286   7.111  0.1221 -0.2384  0.4036
  893YOPE   C1B11857   6.915  15.514   6.675  0.2095  0.2375  0.1738
  893YOPE   C2B11858   6.697  15.513   7.070 -0.1087 -0.2865 -0.0192
  893YOPE   D3B11859   6.386  15.608   7.450  0.1244 -0.0314 -0.1137
  893YOPE   C4B11860   5.958  15.666   7.494 -0.1118  0.3845 -0.0047
  894YOPE   NH311861  11.395  16.119   5.736 -0.2074 -0.4351 -0.1132
  894YOPE   PO411862  11.763  16.305   5.940 -0.1210 -0.0592 -0.1360
  894YOPE   GL111863  11.837  16.546   6.206 -0.0056  0.0446 -0.0600
  894YOPE   GL211864  12.199  16.583   6.220  0.1052  0.2177  0.3227
  894YOPE   C1A11865  11.765  16.541   6.644 -0.2680  0.2942 -0.3635
  894YOPE   D2A11866  11.779  16.389   6.997  0.0252  0.2715 -0.0294
  894YOPE   C3A11867  11.904  16.602   7.318  0.1732 -0.0731  0.0128
  894YOPE   C4A11868  11.912  16.771   7.716 -0.4779  0.2151 -0.0182
  894YOPE   C1B11869  12.272  16.509   6.553  0.1175 -0.0813  0.2793
  894YOPE   C2B11870  12.290  16.553   6.955 -0.0490  0.0016 -0.0192
  894YOPE   D3B11871  12.418  16.556   7.347 -0.1276 -0.1854  0.0654
  894YOPE   C4B11872  12.447  16.597   7.775 -0.0555 -0.0795  0.1256
  895YOPE   NH311873   1.680  11.887   5.877  0.2881 -0.0372 -0.0567
  895YOPE   PO411874   1.294  12.013   5.716 -0.0325  0.0059  0.2150
  895YOPE   GL111875   1.257  12.095   6.154 -0.0562 -0.3260 -0.1307
  895YOPE   GL211876   1.324  11.784   6.287  0.2694  0.0335 -0.0685
  895YOPE   C1A11877   1.055  12.246   6.394 -0.4533 -0.0841  0.1156
  895YOPE   D2A11878   0.896  12.187   6.784 -0.3851  0.2193  0.1617
  895YOPE   C3A11879   0.839  12.228   7.279  0.0032  0.0835  0.2251
  895YOPE   C4A11880   0.973  12.116   7.713 -0.0856 -0.1619  0.0370
  895YOPE   C1B11881   1.206  11.797   6.782 -0.1017  0.2179 -0.0495
  895YOPE   C2B11882   1.111  11.848   7.192 -0.0717  0.0021 -0.4170
  895YOPE   D3B11883   1.363  11.789   7.516 -0.0940  0.0988 -0.2800
  895YOPE   C4B11884   1.790  11.810   7.675 -0.2408  0.0414  0.1472
  896YOPE   NH311885  11.172   0.548   6.234 -0.0458 -0.1868  0.0330
  896YOPE   PO411886  10.735   0.746   5.986 -0.0644  0.1531  0.3615
  896YOPE   GL111887  10.699   0.769   6.434  0.0091  0.0659  0.0170
  896YOPE   GL211888  10.768   0.298   6.516  0.2550  0.0822  0.5638
  896YOPE   C1A11889  10.778   0.637   6.853 -0.0187 -0.0403 -0.0152
  896YOPE   D2A11890  10.797   0.625   7.316  0.0185 -0.0830  0.0981
  896YOPE   C3A11891  10.829   0.427   7.714 -0.0498  0.0546 -0.1281
  896YOPE   C4A11892  11.004   0.084   8.041 -0.1783 -0.0420  0.2287
  896YOPE   C1B11893  10.584   0.177   7.020 -0.1599  0.0588 -0.1391
  896YOPE   C2B11894  10.634  -0.068   7.478 -0.0128 -0.0395 -0.5249
  896YOPE   D3B11895  10.713  -0.265   7.814  0.0287  0.1830  0.1190
  896YOPE   C4B11896  10.658  -0.388   8.208 -0.1712 -0.1764  0.2019
  897YOPE   NH311897  15.933   9.100   6.427 -0.2324 -0.4025  0.0339
  897YOPE   PO411898  16.344   8.996   6.336 -0.0732 -0.0041 -0.1013
  897YOPE   GL111899  16.517   8.803   6.598  0.1034 -0.2636  0.2473
  897YOPE   GL211900  16.840   8.790   6.755 -0.1672  0.1664 -0.0116
  897YOPE   C1A11901  16.558   8.872   7.157 -0.0801 -0.1421  0.0362
  897YOPE   D2A11902  16.297   8.952   7.476  0.0208  0.1866 -0.0039
  897YOPE   C3A11903  16.165   8.940   7.919  0.1139  0.1743 -0.0990
  897YOPE   C4A11904  16.107   8.992   8.375 -0.0715 -0.2696 -0.1186
  897YOPE   C1B11905  17.020   9.162   6.936  0.0474 -0.2045 -0.1598
  897YOPE   C2B11906  16.766   9.320   7.325 -0.1947 -0.1318 -0.2085
  897YOPE   D3B11907  16.420   9.616   7.563  0.1497  0.0795 -0.1328
  897YOPE   C4B11908  16.532   9.879   7.927 -0.0844 -0.1472  0.0589
  898YOPE   NH311909  14.295  13.796   5.523 -0.1006  0.0131  0.1234
  898YOPE   PO411910  14.023  14.125   5.389  0.3412 -0.0521 -0.2117
  898YOPE   GL111911  14.136  14.132   5.878 -0.0339  0.0135 -0.0321
  898YOPE   GL211912  14.385  13.825   5.988 -0.2530 -0.2963  0.1546
  898YOPE   C1A11913  14.125  14.313   6.236  0.2272  0.1806  0.0219
  898YOPE   D2A11914  13.782  14.411   6.608  0.2611 -0.2951 -0.0336
  898YOPE   C3A11915  13.421  14.390   6.478 -0.3745  0.0083  0.0225
  898YOPE   C4A11916  12.943  14.349   6.515  0.2880  0.0296 -0.2560
  898YOPE   C1B11917  14.225  13.900   6.440 -0.2677  0.1903 -0.1448
  898YOPE   C2B11918  14.257  14.168   6.716  0.1142 -0.3678 -0.3512
  898YOPE   D3B11919  14.069  14.359   7.012 -0.0573  0.1541  0.3854
  898YOPE   C4B11920  13.933  14.488   7.343 -0.4785  0.1395 -0.0938
  899YOPE   NH311921  11.165  12.519   6.018 -0.1517 -0.1555 -0.1634
  899YOPE   PO411922  11.553  12.242   6.008  0.1953  0.3674  0.2598
  899YOPE   GL111923  11.822  12.147   6.413 -0.2300 -0.0428  0.3330
  899YOPE   GL211924  12.152  12.210   6.274  0.0838  0.3626 -0.4347
  899YOPE   C1A11925  11.789  11.845   6.809 -0.1668 -0.1067 -0.0009
  899YOPE   D2A11926  11.753  11.774   7.336  0.1347 -0.0417  0.1272
  899YOPE   C3A11927  11.537  12.146   7.500  0.0184 -0.0061 -0.3798
  899YOPE   C4A11928  11.386  12.386   7.718  0.1433 -0.2804  0.0549
  899YOPE   C1B11929  12.262  11.940   6.671  0.0548 -0.1018 -0.1239
  899YOPE   C2B11930  12.245  12.003   7.118  0.1552 -0.3023  0.0464
  899YOPE   D3B11931  12.323  11.833   7.480 -0.2667 -0.2864  0.1444
  899YOPE   C4B11932  12.248  11.565   7.879  0.2477  0.1867 -0.0609
  900YOPE   NH311933   0.027   0.066   5.120 -0.2628  0.1036 -0.0852
  900YOPE   PO411934  -0.159  -0.200   5.379  0.3578 -0.2109 -0.1063
  900YOPE   GL111935  -0.163  -0.328   5.821  0.1560 -0.2510  0.0295
  900YOPE   GL211936  -0.466  -0.567   5.885  0.0172  0.1973  0.2350
  900YOPE   C1A11937  -0.208  -0.402   6.325 -0.1161 -0.1174 -0.1189
  900YOPE   D2A11938  -0.171  -0.604   6.793 -0.1009 -0.0810 -0.0873
  900YOPE   C3A11939   0.105  -0.288   6.935  0.0192 -0.1767  0.3042
  900YOPE   C4A11940   0.496  -0.130   6.964 -0.0721  0.1035 -0.0554
  900YOPE   C1B11941  -0.627  -0.828   6.136 -0.0969 -0.0959  0.1964
  900YOPE   C2B11942  -0.502  -0.852   6.549  0.1090 -0.0876  0.1975
  900YOPE   D3B11943  -0.619  -0.756   6.949 -0.1181  0.1794 -0.1374
  900YOPE   C4B11944  -0.486  -0.589   7.318  0.2517 -0.0196 -0.2072
  901YOPE   NH311945   1.521  10.481   6.044 -0.1423  0.0718 -0.2016
  901YOPE   PO411946   1.584   9.989   6.053  0.0635 -0.0764  0.0632
  901YOPE   GL111947   1.621  10.031   6.424  0.2517 -0.1045  0.0169
  901YOPE   GL211948   1.397  10.381   6.583 -0.2712 -0.2186  0.0372
  901YOPE   C1A11949   1.455   9.836   6.797 -0.1472 -0.1521  0.2210
  901YOPE   D2A11950   1.569   9.568   7.146  0.0331 -0.2341 -0.0592
  901YOPE   C3A11951   1.479   9.558   7.584  0.2222 -0.1954 -0.3138
  901YOPE   C4A11952   1.503   9.389   8.017  0.1436 -0.1584 -0.0681
  901YOPE   C1B11953   1.670  10.281   6.931  0.2858 -0.1852 -0.1199
  901YOPE   C2B11954   1.711  10.038   7.302  0.0904  0.2295  0.0936
  901YOPE   D3B11955   1.700  10.106   7.686 -0.1149 -0.3244 -0.2111
  901YOPE   C4B11956   1.613  10.041   8.153  0.2303 -0.1726  0.2693
  902YOPE   NH311957  16.371   7.448   6.248 -0.1891 -0.0341  0.0744
  902YOPE   PO411958  16.505   6.979   6.182  0.0883 -0.2028  0.2845
  902YOPE   GL111959  16.232   7.079   6.589 -0.1351 -0.1893  0.1810
  902YOPE   GL211960  16.373   7.323   6.889 -0.2702 -0.0134 -0.0276
  902YOPE   C1A11961  15.908   7.128   6.923 -0.0624  0.2317 -0.0763
  902YOPE   D2A11962  15.918   7.361   7.301 -0.2869  0.0383 -0.4941
  902YOPE   C3A11963  16.116   7.441   7.756  0.2775  0.0872  0.3502
  902YOPE   C4A11964  16.377   7.555   8.124 -0.3055  0.1303  0.1030
  902YOPE   C1B11965  16.417   7.357   7.242 -0.0373  0.2403  0.0543
  902YOPE   C2B11966  16.620   7.492   7.700 -0.0842 -0.1294  0.0794
  902YOPE   D3B11967  16.780   7.821   7.997  0.2601  0.1206  0.1232
  902YOPE   C4B11968  17.105   7.933   8.101 -0.2900 -0.2915  0.0546
  903YOPE   NH311969   0.120  15.273   5.478  0.0831  0.5955 -0.2958
  903YOPE   PO411970  -0.056  14.945   5.643  0.1949  0.0919 -0.3762
  903YOPE   GL111971  -0.113  15.035   6.080  0.1353  0.2693 -0.1866
  903YOPE   GL211972  -0.098  15.312   6.070 -0.3794  0.0377  0.1581
  903YOPE   C1A11973   0.069  15.105   6.510  0.0341  0.1111  0.1566
  903YOPE   D2A11974   0.290  15.284   6.835 -0.0208 -0.0303 -0.1381
  903YOPE   C3A11975   0.448  15.469   7.112 -0.0747  0.0132 -0.0963
  903YOPE   C4A11976   0.094  15.579   7.414  0.1909  0.2307  0.1217
  903YOPE   C1B11977  -0.246  15.509   6.436  0.1947  0.0787 -0.0462
  903YOPE   C2B11978  -0.164  15.514   6.848 -0.3717 -0.1421 -0.1595
  903YOPE   D3B11979  -0.090  15.142   7.203  0.2633 -0.0083  0.1128
  903YOPE   C4B11980  -0.095  14.745   7.269  0.2115  0.0156 -0.5183
  904YOPE   NH311981   1.658   5.262   5.601  0.2194  0.3139  0.2400
  904YOPE   PO411982   1.999   5.423   5.837 -0.1088  0.2950  0.0576
  904YOPE   GL111983   2.034   5.072   5.868  0.2012 -0.0545 -0.1919
  904YOPE   GL211984   2.289   4.848   5.914  0.1050  0.0868  0.1157
  904YOPE   C1A11985   1.815   4.649   6.027  0.0345  0.1036 -0.4673
  904YOPE   D2A11986   1.829   4.221   6.041  0.0059  0.0703 -0.0601
  904YOPE   C3A11987   2.002   3.928   6.321  0.0663  0.0795 -0.0761
  904YOPE   C4A11988   2.218   3.689   6.558  0.3293  0.3383 -0.0641
  904YOPE   C1B11989   2.132   4.923   6.324  0.0440 -0.0067 -0.2742
  904YOPE   C2B11990   2.063   4.778   6.643 -0.1097  0.2073  0.1068
  904YOPE   D3B11991   2.183   4.713   7.064 -0.0827 -0.1155 -0.1189
  904YOPE   C4B11992   2.200   4.686   7.501 -0.1579  0.0332 -0.0069
  905YOPE   NH311993  14.594   4.131   5.888  0.3583 -0.1308 -0.3222
  905YOPE   PO411994  14.253   4.420   5.905 -0.0483  0.1510  0.0333
  905YOPE   GL111995  14.311   4.323   6.380  0.3998 -0.0736  0.1047
  905YOPE   GL211996  14.139   4.057   6.650  0.2239  0.0306  0.3201
  905YOPE   C1A11997  14.219   4.591   6.782 -0.0128  0.5157 -0.1257
  905YOPE   D2A11998  14.560   4.724   7.127 -0.2820  0.2589 -0.0000
  905YOPE   C3A11999  14.467   5.061   7.407 -0.3461  0.1466  0.1123
  905YOPE   C4A12000  14.832   5.268   7.405  0.1934  0.0165 -0.0170
  905YOPE   C1B12001  13.898   4.149   7.047 -0.1324 -0.0741  0.1383
  905YOPE   C2B12002  13.746   4.331   7.481  0.0710  0.2096 -0.0421
  905YOPE   D3B12003  13.646   4.433   7.968  0.2897  0.3079 -0.2351
  905YOPE   C4B12004  13.667   4.528   8.371 -0.2963  0.2025  0.1589
  906YOPE   NH312005  17.079   2.476   5.582  0.1691  0.0682 -0.0741
  906YOPE   PO412006  16.662   2.444   5.761 -0.1960 -0.0867  0.0611
  906YOPE   GL112007  16.832   2.210   6.071  0.0421  0.1288 -0.0934
  906YOPE   GL212008  17.161   2.231   6.019  0.0200 -0.3451 -0.0371
  906YOPE   C1A12009  16.960   1.999   6.440  0.0850  0.1724 -0.0438
  906YOPE   D2A12010  17.248   1.946   6.774  0.2539  0.0701  0.1262
  906YOPE   C3A12011  17.373   2.223   7.083  0.1870  0.1974  0.0323
  906YOPE   C4A12012  17.368   2.189   7.497 -0.2503  0.0924 -0.1825
  906YOPE   C1B12013  17.227   2.412   6.369  0.2082 -0.1193 -0.0587
  906YOPE   C2B12014  17.501   2.530   6.675 -0.1058  0.1000 -0.4078
  906YOPE   D3B12015  17.851   2.544   6.980 -0.2944  0.3139 -0.0733
  906YOPE   C4B12016  17.911   2.859   7.329  0.1038  0.1409 -0.0522
  907YOPE   NH312017   8.794  10.958   5.900  0.1725 -0.1527 -0.1305
  907YOPE   PO412018   8.486  10.790   6.193  0.3158  0.0892  0.2760
  907YOPE   GL112019   8.709  11.075   6.494  0.0214  0.4835  0.0466
  907YOPE   GL212020   8.973  11.198   6.345 -0.2879  0.3870  0.4556
  907YOPE   C1A12021   8.978  11.200   6.867 -0.4063  0.1851 -0.3460
  907YOPE   D2A12022   9.226  11.172   7.265 -0.0409  0.1462 -0.0307
  907YOPE   C3A12023   9.157  10.792   7.644 -0.2674 -0.2199 -0.0564
  907YOPE   C4A12024   9.301  10.796   8.011  0.2519  0.0528  0.3530
  907YOPE   C1B12025   9.179  11.576   6.647 -0.1583 -0.1404 -0.4130
  907YOPE   C2B12026   9.275  11.631   7.026 -0.1464  0.0990 -0.4683
  907YOPE   D3B12027   9.320  11.829   7.553 -0.0268 -0.4312  0.1660
  907YOPE   C4B12028   9.642  11.997   7.875  0.1820  0.0260 -0.1276
  908YOPE   NH312029   4.764  15.691   5.255  0.1838  0.3652  0.0765
  908YOPE   PO412030   5.230  15.773   5.166  0.2887  0.0905  0.1467
  908YOPE   GL112031   5.144  15.826   5.556  0.2381  0.2099  0.0998
  908YOPE   GL212032   5.113  15.699   5.825 -0.0516  0.1282 -0.0812
  908YOPE   C1A12033   4.895  16.155   5.725  0.1218 -0.0960 -0.2488
  908YOPE   D2A12034   4.740  16.528   5.737  0.1469 -0.3117 -0.1701
  908YOPE   C3A12035   4.853  16.909   5.974  0.1173 -0.0118  0.1603
  908YOPE   C4A12036   4.593  17.143   6.208 -0.1574 -0.1299  0.1845
  908YOPE   C1B12037   4.995  15.899   6.227  0.1543 -0.1171 -0.3062
  908YOPE   C2B12038   4.644  15.955   6.603 -0.0558  0.2597 -0.0603
  908YOPE   D3B12039   4.760  16.046   7.016  0.1487  0.2055 -0.2171
  908YOPE   C4B12040   5.018  16.142   7.324  0.0400 -0.3901  0.1383
  909YOPE   NH312041  11.559   2.888   6.531 -0.1671  0.0310 -0.0072
  909YOPE   PO412042  11.880   2.755   6.312  0.1401  0.1869  0.2693
  909YOPE   GL112043  12.161   2.671   6.639 -0.0582 -0.0987  0.0516
  909YOPE   GL212044  12.410   2.927   6.626  0.1390  0.0161  0.0314
  909YOPE   C1A12045  12.409   2.682   7.089  0.0979 -0.0637 -0.2679
  909YOPE   D2A12046  12.193   2.764   7.370 -0.4914 -0.1460  0.0023
  909YOPE   C3A12047  11.860   2.533   7.351  0.4134  0.1995  0.1230
  909YOPE   C4A12048  11.529   2.450   7.745  0.1328 -0.0091  0.3189
  909YOPE   C1B12049  12.284   3.183   7.077  0.1257 -0.3598  0.1330
  909YOPE   C2B12050  12.150   3.318   7.415  0.1169  0.0509  0.0117
  909YOPE   D3B12051  12.246   3.112   7.796 -0.3116  0.1709 -0.0954
  909YOPE   C4B12052  12.231   2.934   8.170 -0.1394  0.1192 -0.0967
  910YOPE   NH312053   9.833   1.127   6.026  0.1094 -0.0531 -0.0586
  910YOPE   PO412054   9.450   1.187   5.797  0.1550  0.0473  0.1061
  910YOPE   GL112055   9.089   1.165   6.035  0.0517 -0.0567  0.0176
  910YOPE   GL212056   9.237   1.262   6.350 -0.0287  0.0611 -0.1127
  910YOPE   C1A12057   8.802   1.469   6.372  0.2496  0.0908 -0.2800
  910YOPE   D2A12058   8.484   1.428   6.705 -0.0014 -0.0804  0.0297
  910YOPE   C3A12059   8.519   1.192   7.136  0.2042  0.3248  0.0561
  910YOPE   C4A12060   8.373   0.863   7.418 -0.0833  0.0252 -0.2684
  910YOPE   C1B12061   9.459   1.122   6.658 -0.0807 -0.4570  0.2707
  910YOPE   C2B12062   9.482   0.888   7.028  0.0886 -0.1482 -0.0361
  910YOPE   D3B12063   9.725   0.738   7.298 -0.0669  0.0150  0.1577
  910YOPE   C4B12064   9.726   0.404   7.607 -0.1043 -0.1140 -0.0270
  911YOPE   NH312065   9.713   6.629   6.316  0.0717 -0.1869  0.4423
  911YOPE   PO412066   9.447   6.571   6.539 -0.1078  0.3028  0.1403
  911YOPE   GL112067   9.150   6.880   6.846  0.0363  0.2081 -0.4908
  911YOPE   GL212068   9.282   6.852   6.990  0.1186  0.0632  0.0993
  911YOPE   C1A12069   8.764   6.824   7.067  0.1193 -0.0265  0.0542
  911YOPE   D2A12070   8.345   6.829   7.212 -0.2811  0.0694  0.0993
  911YOPE   C3A12071   8.093   7.209   7.364 -0.2282  0.1696  0.3558
  911YOPE   C4A12072   7.991   7.334   7.789  0.2347 -0.1540  0.0695
  911YOPE   C1B12073   9.191   6.781   7.365 -0.0059 -0.1665  0.1398
  911YOPE   C2B12074   9.087   6.984   7.739 -0.3050  0.2385 -0.0711
  911YOPE   D3B12075   8.795   7.234   7.795 -0.1160 -0.3109 -0.1632
  911YOPE   C4B12076   8.468   7.544   7.986  0.2614  0.0381 -0.1319
  912YOPE   NH312077  17.758   1.657   5.585  0.2870 -0.1777  0.0043
  912YOPE   PO412078  18.180   1.767   5.285  0.0223  0.1965  0.0217
  912YOPE   GL112079  18.327   1.749   5.611 -0.1234 -0.1858 -0.3116
  912YOPE   GL212080  18.593   1.931   5.665  0.0527 -0.1762  0.3337
  912YOPE   C1A12081  18.449   1.443   5.946  0.0906  0.0689 -0.0452
  912YOPE   D2A12082  18.448   1.218   6.377  0.0046 -0.1505 -0.0056
  912YOPE   C3A12083  18.356   0.783   6.289  0.3118 -0.3174 -0.1012
  912YOPE   C4A12084  18.226   0.430   6.518  0.1256  0.1063 -0.1277
  912YOPE   C1B12085  18.631   1.883   6.124  0.0915  0.3716 -0.0978
  912YOPE   C2B12086  18.963   1.893   6.539  0.1728  0.1923  0.2843
  912YOPE   D3B12087  19.235   1.866   6.858 -0.1083  0.0927 -0.2618
  912YOPE   C4B12088  19.577   1.689   7.072  0.0940 -0.1604  0.0309
  913YOPE   NH312089   2.754   1.772   4.893 -0.2636  0.2823  0.2718
  913YOPE   PO412090   2.441   2.000   4.906 -0.0461 -0.2437 -0.1400
  913YOPE   GL112091   2.302   1.863   5.251  0.0255  0.0424 -0.1959
  913YOPE   GL212092   2.169   2.069   5.453 -0.2276  0.1787  0.0037
  913YOPE   C1A12093   2.265   1.646   5.731 -0.3869  0.0263 -0.1086
  913YOPE   D2A12094   2.305   1.513   6.118  0.2137 -0.1042  0.0379
  913YOPE   C3A12095   2.388   1.292   6.632  0.0399  0.1213 -0.1676
  913YOPE   C4A12096   2.311   1.324   7.137 -0.1506  0.5036  0.0274
  913YOPE   C1B12097   2.299   2.277   5.815  0.1659 -0.0371  0.1886
  913YOPE   C2B12098   2.225   2.195   6.194  0.1580  0.1359  0.1829
  913YOPE   D3B12099   2.189   2.342   6.540  0.1315  0.0601 -0.2132
  913YOPE   C4B12100   2.158   2.558   6.917  0.1579  0.2243  0.1196
  914YOPE   NH312101   9.886   5.370   6.376 -0.2950  0.1956 -0.1871
  914YOPE   PO412102  10.304   5.151   6.276  0.2688 -0.0125 -0.1446
  914YOPE   GL112103  10.399   5.097   6.657  0.0378  0.0544 -0.0378
  914YOPE   GL212104  10.253   5.196   6.915  0.2217 -0.1790  0.0300
  914YOPE   C1A12105  10.315   4.681   6.880 -0.2850  0.0511  0.3865
  914YOPE   D2A12106  10.105   4.426   7.006  0.1246 -0.0636  0.1893
  914YOPE   C3A12107  10.242   4.320   7.356 -0.3753 -0.0312 -0.1433
  914YOPE   C4A12108  10.301   4.099   7.727  0.2422  0.1241 -0.1678
  914YOPE   C1B12109  10.069   5.125   7.357 -0.0141  0.0060  0.0693
  914YOPE   C2B12110   9.962   4.863   7.657 -0.0437 -0.0095 -0.0226
  914YOPE   D3B12111   9.853   4.476   7.882 -0.0757  0.0669  0.2529
  914YOPE   C4B12112   9.792   4.292   8.208  0.2177  0.1164  0.1915
  915YOPE   NH312113  15.904   7.629   6.121 -0.2143  0.1280  0.0512
  915YOPE   PO412114  15.856   7.202   6.282  0.1474 -0.2199 -0.0051
  915YOPE   GL112115  15.774   7.389   6.541 -0.0590 -0.1362 -0.1982
  915YOPE   GL212116  16.068   7.714   6.590 -0.0580  0.0055  0.0278
  915YOPE   C1A12117  15.525   7.500   6.919  0.1592  0.0549  0.2246
  915YOPE   D2A12118  15.170   7.457   7.186  0.4235 -0.1847  0.0468
  915YOPE   C3A12119  15.003   7.747   7.554 -0.0018  0.0584  0.3546
  915YOPE   C4A12120  14.842   7.981   7.885  0.2062  0.0380 -0.4939
  915YOPE   C1B12121  16.060   7.722   6.993  0.1475 -0.0745 -0.0632
  915YOPE   C2B12122  15.991   7.836   7.384 -0.0792  0.2263  0.2152
  915YOPE   D3B12123  15.868   7.967   7.698 -0.0284 -0.0254 -0.1978
  915YOPE   C4B12124  15.825   8.165   8.114  0.0427  0.2986 -0.1452
  916YOPE   NH312125   8.653   0.916   5.725 -0.3636 -0.1144  0.4695
  916YOPE   PO412126   8.438   0.608   5.970 -0.1440  0.0246 -0.0536
  916YOPE   GL112127   8.454   0.383   6.339 -0.4027 -0.0610 -0.0899
  916YOPE   GL212128   8.743   0.247   6.357  0.2531  0.0929 -0.0040
  916YOPE   C1A12129   8.083   0.365   6.566 -0.2397  0.0150  0.2909
  916YOPE   D2A12130   7.637   0.262   6.644 -0.0632 -0.1863 -0.3209
  916YOPE   C3A12131   7.595   0.283   7.126 -0.1392  0.0233 -0.0308
  916YOPE   C4A12132   7.354   0.139   7.447 -0.1375  0.0620  0.2206
  916YOPE   C1B12133   8.696   0.419   6.801  0.4152 -0.0457  0.0145
  916YOPE   C2B12134   8.715   0.499   7.305  0.0229  0.1603  0.1037
  916YOPE   D3B12135   8.843   0.556   7.690  0.0127 -0.2093 -0.1034
  916YOPE   C4B12136   8.771   0.279   7.982 -0.1989  0.2492  0.0248
  917YOPE   NH312137   8.120   4.274   6.340  0.0448 -0.1273 -0.5284
  917YOPE   PO412138   8.323   3.860   6.217 -0.2808  0.4259 -0.0235
  917YOPE   GL112139   8.264   3.751   6.648 -0.0542  0.0344 -0.1947
  917YOPE   GL212140   8.494   3.388   6.655 -0.1768 -0.1828 -0.2069
  917YOPE   C1A12141   8.186   3.716   6.994  0.1638 -0.1625  0.0203
  917YOPE   D2A12142   8.125   3.625   7.432 -0.1319  0.0388  0.0636
  917YOPE   C3A12143   7.886   3.893   7.741  0.0343 -0.1615 -0.1460
  917YOPE   C4A12144   7.607   3.964   8.074  0.1963  0.4385 -0.3564
  917YOPE   C1B12145   8.482   3.224   7.002  0.1407 -0.0515  0.1896
  917YOPE   C2B12146   8.568   3.057   7.377 -0.2829  0.2275  0.2691
  917YOPE   D3B12147   8.653   2.782   7.746 -0.1807 -0.1784 -0.0860
  917YOPE   C4B12148   8.641   2.713   8.129 -0.2235 -0.1276  0.1608
  918YOPE   NH312149  10.659   1.241   6.179 -0.2676 -0.3605 -0.2436
  918YOPE   PO412150  10.225   1.384   6.237  0.0568 -0.2338  0.0847
  918YOPE   GL112151  10.406   1.321   6.645 -0.2423  0.1507  0.0207
  918YOPE   GL212152  10.489   1.078   6.813  0.0733 -0.1707 -0.2615
  918YOPE   C1A12153  10.280   1.451   7.083 -0.0648 -0.2719  0.0891
  918YOPE   D2A12154  10.130   1.588   7.487  0.0596 -0.2685  0.1321
  918YOPE   C3A12155  10.123   1.332   7.826 -0.2601  0.2749  0.1939
  918YOPE   C4A12156  10.254   1.340   8.181  0.0193  0.3004  0.0393
  918YOPE   C1B12157  10.548   1.099   7.284  0.5501 -0.2514 -0.2089
  918YOPE   C2B12158  10.623   1.242   7.781 -0.1787  0.0155  0.0052
  918YOPE   D3B12159  10.772   1.047   8.232 -0.2198 -0.1099  0.0648
  918YOPE   C4B12160  10.822   1.182   8.590 -0.1245  0.0949  0.1638
  919YOPE   NH312161   7.147  15.789   5.425 -0.3120  0.4248 -0.0438
  919YOPE   PO412162   7.472  15.837   5.611 -0.4166  0.1600 -0.2011
  919YOPE   GL112163   7.183  16.069   5.843  0.0888 -0.2907 -0.1817
  919YOPE   GL212164   7.241  16.428   5.873  0.1906  0.2664 -0.3217
  919YOPE   C1A12165   6.810  15.970   6.078 -0.2117  0.0268 -0.1637
  919YOPE   D2A12166   6.815  15.954   6.521  0.5746  0.0439 -0.0029
  919YOPE   C3A12167   6.494  15.898   6.789 -0.1807 -0.2971  0.2960
  919YOPE   C4A12168   6.649  15.959   7.220 -0.0202 -0.0620 -0.4217
  919YOPE   C1B12169   7.089  16.388   6.373  0.2283 -0.0780  0.2243
  919YOPE   C2B12170   7.223  16.502   6.776 -0.1302  0.0336  0.2427
  919YOPE   D3B12171   7.295  16.614   7.161 -0.6536  0.1512  0.2178
  919YOPE   C4B12172   7.371  17.034   7.282  0.0287  0.0350  0.3135
  920YOPE   NH312173  11.422   2.463   6.393  0.0662 -0.0188 -0.0387
  920YOPE   PO412174  11.894   2.245   6.278 -0.2925  0.1138  0.1665
  920YOPE   GL112175  11.857   2.251   6.722  0.2670 -0.1505  0.1001
  920YOPE   GL212176  11.612   2.107   6.817 -0.3114 -0.1453  0.1209
  920YOPE   C1A12177  12.222   2.225   7.012  0.0310 -0.0240 -0.1890
  920YOPE   D2A12178  12.313   2.277   7.470  0.2389  0.2712  0.0311
  920YOPE   C3A12179  12.049   2.568   7.841 -0.2875 -0.0716 -0.1795
  920YOPE   C4A12180  11.756   2.704   8.097 -0.0210  0.0265  0.0098
  920YOPE   C1B12181  11.351   2.120   7.228 -0.0819 -0.0590  0.5204
  920YOPE   C2B12182  11.414   2.014   7.676  0.1122 -0.2047  0.3022
  920YOPE   D3B12183  11.245   2.089   8.053 -0.5418 -0.1066  0.2155
  920YOPE   C4B12184  11.242   2.305   8.407 -0.0925 -0.0631  0.0423
  921YOPE   NH312185   1.070  17.756   5.042  0.1003  0.2019 -0.1171
  921YOPE   PO412186   1.361  18.089   5.080  0.0753  0.2073 -0.0053
  921YOPE   GL112187   1.293  18.490   5.353 -0.3450  0.0411  0.3804
  921YOPE   GL212188   1.099  18.352   5.632  0.2499  0.1442 -0.0122
  921YOPE   C1A12189   1.627  18.690   5.633 -0.0186 -0.0429 -0.1093
  921YOPE   D2A12190   2.067  18.436   5.752  0.3279  0.0179  0.3621
  921YOPE   C3A12191   2.222  18.494   6.216  0.0522 -0.3493  0.0166
  921YOPE   C4A12192   2.226  18.794   6.431 -0.1325  0.2395 -0.1075
  921YOPE   C1B12193   1.333  18.164   5.906 -0.1734  0.3137  0.1627
  921YOPE   C2B12194   1.230  17.966   6.314  0.1639 -0.1610  0.5006
  921YOPE   D3B12195   1.294  17.881   6.844 -0.0781  0.0162  0.0639
  921YOPE   C4B12196   1.392  18.057   7.287  0.0805  0.3855  0.0911
  922YOPE   NH312197  16.882   6.701   6.350  0.2636  0.1046 -0.2335
  922YOPE   PO412198  17.072   6.368   6.139 -0.1277  0.1934  0.1460
  922YOPE   GL112199  16.915   6.157   6.597 -0.2475 -0.0460 -0.1325
  922YOPE   GL212200  16.910   6.426   6.818  0.1389  0.4713 -0.1564
  922YOPE   C1A12201  16.727   5.970   6.916  0.0641 -0.0535 -0.1572
  922YOPE   D2A12202  16.761   5.889   7.349 -0.0978 -0.0475  0.0780
  922YOPE   C3A12203  17.051   5.970   7.630 -0.0359 -0.0834 -0.2230
  922YOPE   C4A12204  17.456   6.224   7.801 -0.0732  0.2619 -0.0631
  922YOPE   C1B12205  16.944   6.388   7.195 -0.0056 -0.1351  0.0574
  922YOPE   C2B12206  17.055   6.493   7.651 -0.0359  0.0066 -0.2068
  922YOPE   D3B12207  17.223   6.749   7.891  0.5513  0.1340 -0.1465
  922YOPE   C4B12208  17.479   6.895   8.121 -0.0646 -0.1269  0.0836
  923YOPE   NH312209   8.115  11.359   6.073  0.4912 -0.3387 -0.0218
  923YOPE   PO412210   8.559  11.404   6.051  0.0634  0.0866  0.0440
  923YOPE   GL112211   8.525  11.614   6.500  0.1492 -0.0906 -0.2382
  923YOPE   GL212212   8.782  11.697   6.389  0.0383 -0.0191  0.0926
  923YOPE   C1A12213   8.706  11.630   6.941  0.0937  0.3359  0.2207
  923YOPE   D2A12214   8.681  11.653   7.307  0.2404  0.3429 -0.0123
  923YOPE   C3A12215   8.892  11.584   7.507 -0.2338  0.1796  0.0477
  923YOPE   C4A12216   9.294  11.387   7.806  0.0989  0.0123  0.2970
  923YOPE   C1B12217   8.993  12.008   6.681 -0.1348 -0.3126 -0.1892
  923YOPE   C2B12218   8.977  11.999   7.134 -0.3197  0.0452 -0.2434
  923YOPE   D3B12219   8.899  12.204   7.453  0.1234  0.1104 -0.3312
  923YOPE   C4B12220   8.802  12.475   7.813 -0.0487  0.1559 -0.1310
  924YOPE   NH312221  13.150   7.987   6.297 -0.1546  0.1536  0.1066
  924YOPE   PO412222  13.502   7.963   6.127 -0.1056  0.0253  0.2619
  924YOPE   GL112223  13.420   7.683   6.598  0.1733 -0.1083  0.1507
  924YOPE   GL212224  13.244   7.993   6.777  0.1055  0.0204  0.1116
  924YOPE   C1A12225  13.488   7.606   6.998  0.3793  0.1278  0.4186
  924YOPE   D2A12226  13.554   7.277   7.272  0.3814 -0.4343  0.1633
  924YOPE   C3A12227  13.399   7.201   7.657 -0.0243 -0.0340  0.0453
  924YOPE   C4A12228  13.346   7.216   8.119 -0.1582 -0.0468  0.1336
  924YOPE   C1B12229  13.193   7.970   7.201  0.0124 -0.1713  0.0132
  924YOPE   C2B12230  13.125   8.034   7.756 -0.2025  0.2004  0.0240
  924YOPE   D3B12231  12.695   7.985   8.038 -0.0968  0.1880 -0.2154
  924YOPE   C4B12232  12.472   7.662   8.108  0.1555 -0.4317  0.0480
  925YOPE   NH312233  11.084   1.564   6.136  0.2766 -0.0445  0.0994
  925YOPE   PO412234  10.627   1.700   6.049  0.1295 -0.2323  0.1038
  925YOPE   GL112235  10.682   1.756   6.472 -0.0112 -0.1210 -0.1009
  925YOPE   GL212236  10.812   1.939   6.509  0.3236 -0.2141 -0.2459
  925YOPE   C1A12237  10.756   1.624   6.902  0.1414 -0.3061 -0.0108
  925YOPE   D2A12238  10.929   1.764   7.293 -0.0052 -0.0478  0.0641
  925YOPE   C3A12239  10.684   1.668   7.532  0.5217  0.0660 -0.0083
  925YOPE   C4A12240  10.579   1.658   7.948 -0.2096 -0.1277  0.2238
  925YOPE   C1B12241  10.955   2.068   6.871  0.0130 -0.0375 -0.0981
  925YOPE   C2B12242  10.810   2.445   7.108 -0.3001  0.4591  0.1234
  925YOPE   D3B12243  10.590   2.594   7.493 -0.0378  0.2514 -0.1349
  925YOPE   C4B12244  10.467   2.713   7.849 -0.0699  0.0461 -0.0046
  926YOPE   NH312245  14.841   6.839   5.884  0.0976 -0.3097 -0.1604
  926YOPE   PO412246  14.538   6.693   6.178  0.0397  0.1490 -0.2566
  926YOPE   GL112247  14.398   6.649   6.650  0.1129  0.1838  0.1277
  926YOPE   GL212248  14.375   6.398   6.812 -0.1787 -0.1333 -0.2506
  926YOPE   C1A12249  14.272   6.954   6.885  0.1617 -0.1201  0.2738
  926YOPE   D2A12250  14.138   7.027   7.310  0.0408 -0.3518  0.1205
  926YOPE   C3A12251  14.233   6.887   7.659  0.0189  0.1578  0.1862
  926YOPE   C4A12252  14.190   6.771   7.968  0.0241  0.1425  0.1292
  926YOPE   C1B12253  14.499   6.111   7.144 -0.0004 -0.0756  0.2811
  926YOPE   C2B12254  14.498   6.127   7.611 -0.2266 -0.1317 -0.0748
  926YOPE   D3B12255  14.710   5.919   7.947  0.2799 -0.0786 -0.4549
  926YOPE   C4B12256  15.017   6.031   8.237 -0.1590  0.2264  0.0955
  927YOPE   NH312257  13.169   3.511   6.089 -0.2372  0.2703  0.0722
  927YOPE   PO412258  12.803   3.226   6.054  0.0990 -0.3949 -0.0419
  927YOPE   GL112259  12.914   3.004   6.497  0.0278 -0.0842 -0.0130
  927YOPE   GL212260  13.210   3.128   6.611  0.2318 -0.0493 -0.3420
  927YOPE   C1A12261  12.858   2.798   6.870  0.0573  0.0453 -0.2403
  927YOPE   D2A12262  12.839   2.692   7.348  0.0856  0.0409 -0.0898
  927YOPE   C3A12263  12.521   2.640   7.718  0.3104 -0.0456  0.0742
  927YOPE   C4A12264  12.622   2.576   8.201 -0.5779  0.0041  0.0388
  927YOPE   C1B12265  13.276   3.053   7.019  0.3725 -0.2557 -0.1526
  927YOPE   C2B12266  13.258   2.968   7.361 -0.0622  0.2711  0.2608
  927YOPE   D3B12267  12.976   2.917   7.797 -0.0163 -0.1452 -0.2259
  927YOPE   C4B12268  12.978   3.125   8.189 -0.1143  0.0584  0.3709
  928YOPE   NH312269   3.167   4.681   5.837 -0.0052 -0.1832  0.0665
  928YOPE   PO412270   3.005   5.162   5.734 -0.0092 -0.0522  0.0995
  928YOPE   GL112271   2.973   5.048   6.143  0.0556 -0.0083 -0.1001
  928YOPE   GL212272   2.800   4.747   6.146  0.1557  0.0995 -0.0309
  928YOPE   C1A12273   2.949   5.009   6.529  0.0578  0.1181  0.0226
  928YOPE   D2A12274   2.982   4.825   6.870 -0.5788  0.0060 -0.2603
  928YOPE   C3A12275   2.671   4.715   7.043  0.1496  0.3365 -0.1547
  928YOPE   C4A12276   2.616   4.460   7.367 -0.0249 -0.0118 -0.3014
  928YOPE   C1B12277   2.534   4.593   6.607  0.1032  0.3636 -0.1605
  928YOPE   C2B12278   2.271   4.284   6.691 -0.0415  0.1684 -0.1260
  928YOPE   D3B12279   1.957   3.987   6.820  0.1640 -0.2230  0.0275
  928YOPE   C4B12280   1.662   3.571   6.999 -0.0889  0.3375  0.0166
  929YOPE   NH312281   2.323   0.193   5.039  0.2388  0.1957 -0.0289
  929YOPE   PO412282   2.029   0.601   5.047 -0.0160  0.1027  0.1309
  929YOPE   GL112283   2.065   0.665   5.440  0.1476  0.0413  0.1208
  929YOPE   GL212284   2.208   0.381   5.544  0.0239  0.0033  0.0647
  929YOPE   C1A12285   1.612   0.709   5.734  0.1727 -0.2945  0.1952
  929YOPE   D2A12286   1.450   0.664   6.147  0.2312 -0.1147  0.0065
  929YOPE   C3A12287   1.460   0.857   6.483  0.2188 -0.4855  0.0022
  929YOPE   C4A12288   1.494   0.846   6.870 -0.2773 -0.0087 -0.1852
  929YOPE   C1B12289   2.144   0.585   5.903  0.1776 -0.0638  0.0887
  929YOPE   C2B12290   1.897   0.336   6.033 -0.1357  0.0645 -0.0692
  929YOPE   D3B12291   1.712   0.157   6.467  0.0859  0.3126 -0.3798
  929YOPE   C4B12292   1.643  -0.148   6.905 -0.2545  0.1397  0.2341
  930YOPE   NH312293   8.339   7.587   6.357 -0.1598 -0.0590  0.1086
  930YOPE   PO412294   8.630   7.465   6.443  0.0500 -0.0156  0.0065
  930YOPE   GL112295   8.865   7.304   6.821  0.0835  0.0914 -0.3927
  930YOPE   GL212296   8.709   7.422   6.988 -0.0665 -0.2132 -0.1354
  930YOPE   C1A12297   9.094   7.264   7.207  0.0495 -0.0151 -0.2352
  930YOPE   D2A12298   9.224   7.467   7.517 -0.1074 -0.0168  0.1154
  930YOPE   C3A12299   9.206   7.885   7.603 -0.1057  0.2843  0.0692
  930YOPE   C4A12300   9.438   8.209   7.611  0.2523 -0.2985 -0.0073
  930YOPE   C1B12301   8.596   7.248   7.291  0.3089 -0.1543 -0.1647
  930YOPE   C2B12302   8.361   6.996   7.679 -0.2651 -0.0825  0.0840
  930YOPE   D3B12303   8.276   6.942   8.115  0.0483  0.2315 -0.0210
  930YOPE   C4B12304   8.232   6.985   8.641 -0.1460 -0.1752  0.2091
  931YOPE   NH312305   9.913  17.232   6.070  0.2841 -0.0764  0.0290
  931YOPE   PO412306  10.103  17.623   5.939  0.0386  0.0340 -0.3567
  931YOPE   GL112307  10.107  17.633   6.371 -0.0106 -0.0132  0.2944
  931YOPE   GL212308   9.984  17.483   6.604 -0.1119  0.0035 -0.1205
  931YOPE   C1A12309  10.287  17.886   6.562  0.0040  0.1065  0.1001
  931YOPE   D2A12310  10.366  18.285   6.683  0.0115 -0.1881 -0.0557
  931YOPE   C3A12311  10.730  18.172   6.988  0.0688 -0.1076 -0.3336
  931YOPE   C4A12312  10.959  18.090   7.363  0.0571  0.0073 -0.1873
  931YOPE   C1B12313  10.131  17.615   7.060 -0.2361  0.0488  0.1677
  931YOPE   C2B12314  10.178  17.798   7.484  0.0512  0.0941  0.1281
  931YOPE   D3B12315   9.942  17.966   7.880 -0.0543 -0.0265  0.1856
  931YOPE   C4B12316   9.691  18.011   8.177  0.0134 -0.0661  0.0141
  932YOPE   NH312317   3.931   8.905   6.274 -0.2000 -0.1704  0.1342
  932YOPE   PO412318   3.970   8.664   5.999 -0.0637 -0.2730  0.1985
  932YOPE   GL112319   3.737   8.377   6.149 -0.1756 -0.1733  0.0062
  932YOPE   GL212320   3.543   8.603   6.295  0.0880 -0.5493  0.1539
  932YOPE   C1A12321   3.384   8.191   6.524 -0.0363 -0.0830  0.2423
  932YOPE   D2A12322   3.363   8.088   6.954 -0.2751  0.0517  0.1374
  932YOPE   C3A12323   3.006   8.312   7.046  0.5665 -0.2079 -0.0101
  932YOPE   C4A12324   2.784   8.465   6.763 -0.0062  0.0071  0.1054
  932YOPE   C1B12325   3.238   8.674   6.720  0.1232 -0.1889 -0.1626
  932YOPE   C2B12326   3.215   8.676   7.208  0.0744  0.3610  0.0196
  932YOPE   D3B12327   3.000   8.616   7.505 -0.0916  0.2748 -0.0195
  932YOPE   C4B12328   3.041   8.369   7.924 -0.2632 -0.0639  0.1242
  933YOPE   NH312329   1.526   9.021   6.211 -0.1970 -0.1531 -0.0403
  933YOPE   PO412330   1.399   8.607   6.126 -0.0222  0.3210  0.2033
  933YOPE   GL112331   1.114   8.646   6.525 -0.1093 -0.3062 -0.0914
  933YOPE   GL212332   0.920   8.469   6.541 -0.1924 -0.1606 -0.2050
  933YOPE   C1A12333   0.975   8.731   7.022 -0.0100  0.1229 -0.1076
  933YOPE   D2A12334   0.928   8.476   7.518  0.0885 -0.1378  0.0328
  933YOPE   C3A12335   0.647   8.279   7.747  0.2789  0.0321 -0.4073
  933YOPE   C4A12336   0.972   8.150   7.973  0.0457  0.4711 -0.0871
  933YOPE   C1B12337   1.148   8.286   6.994 -0.2227  0.1277 -0.0718
  933YOPE   C2B12338   1.239   8.092   7.430 -0.1067 -0.1353  0.0883
  933YOPE   D3B12339   1.383   8.002   7.755 -0.0991  0.1248 -0.2664
  933YOPE   C4B12340   1.490   7.842   8.137  0.2226  0.1796  0.0273
  934YOPE   NH312341  15.921   6.298   6.257 -0.0611  0.1842 -0.0273
  934YOPE   PO412342  15.933   6.718   6.473 -0.1052 -0.2295  0.3040
  934YOPE   GL112343  15.752   6.618   6.886  0.1856  0.0549 -0.0651
  934YOPE   GL212344  15.487   6.879   6.698 -0.0311 -0.0159 -0.1018
  934YOPE   C1A12345  15.749   6.751   7.331  0.4532  0.3546 -0.0818
  934YOPE   D2A12346  15.717   6.810   7.749  0.1079 -0.1202 -0.3048
  934YOPE   C3A12347  15.681   7.230   7.857  0.1653 -0.0608  0.0265
  934YOPE   C4A12348  15.578   7.553   7.679 -0.1262  0.2542  0.0750
  934YOPE   C1B12349  15.352   7.008   7.073  0.0178 -0.1801  0.0431
  934YOPE   C2B12350  15.355   6.994   7.448 -0.1176  0.0684  0.0987
  934YOPE   D3B12351  15.118   6.765   7.790 -0.2368 -0.0466  0.1008
  934YOPE   C4B12352  15.078   6.355   7.820 -0.0794  0.1634  0.5375
  935YOPE   NH312353   4.048  17.661   5.079  0.1139  0.0492  0.2721
  935YOPE   PO412354   4.079  18.054   5.119 -0.0198 -0.0768  0.2954
  935YOPE   GL112355   3.962  18.035   5.476 -0.1320  0.0385  0.1119
  935YOPE   GL212356   3.547  18.006   5.559 -0.1048 -0.1276 -0.0772
  935YOPE   C1A12357   3.906  17.905   5.885 -0.1326 -0.3163 -0.1228
  935YOPE   D2A12358   3.777  17.779   6.361 -0.0288  0.0649  0.0839
  935YOPE   C3A12359   3.942  18.097   6.643  0.0181  0.0349  0.3611
  935YOPE   C4A12360   4.139  18.295   7.069 -0.0276 -0.0221  0.2676
  935YOPE   C1B12361   3.758  18.348   5.760 -0.0622  0.0742 -0.1306
  935YOPE   C2B12362   3.976  18.637   5.735  0.0491  0.1238 -0.1245
  935YOPE   D3B12363   3.871  19.048   5.915 -0.2476 -0.1029  0.2075
  935YOPE   C4B12364   3.635  19.246   6.313  0.2542 -0.0850 -0.1826
  936YOPE   NH312365   3.804   5.483   5.658 -0.0198  0.0000  0.0537
  936YOPE   PO412366   3.846   5.769   5.929  0.4931 -0.1920 -0.4850
  936YOPE   GL112367   3.667   5.646   6.323  0.0851 -0.2352  0.0689
  936YOPE   GL212368   3.457   5.877   6.281 -0.0460 -0.0451 -0.3707
  936YOPE   C1A12369   3.581   5.492   6.712 -0.1651  0.2252 -0.1877
  936YOPE   D2A12370   3.401   5.601   7.158  0.1397  0.1755  0.2375
  936YOPE   C3A12371   3.634   5.626   7.452  0.0358 -0.0344  0.0577
  936YOPE   C4A12372   3.803   5.207   7.645  0.3343  0.3037 -0.2055
  936YOPE   C1B12373   3.268   5.972   6.728  0.1471  0.0352 -0.1024
  936YOPE   C2B12374   3.332   6.178   7.144  0.0853 -0.0780 -0.1661
  936YOPE   D3B12375   3.457   6.175   7.516 -0.1411  0.0335  0.1076
  936YOPE   C4B12376   3.421   6.107   7.937 -0.1260  0.1838 -0.0333
  937YOPE   NH312377   3.498  15.960   5.166 -0.1913 -0.5234 -0.0858
  937YOPE   PO412378   3.492  15.573   5.257 -0.3662 -0.0586  0.0437
  937YOPE   GL112379   3.460  15.720   5.665 -0.2193  0.0053 -0.0953
  937YOPE   GL212380   3.724  15.649   5.924  0.0242 -0.0087 -0.1615
  937YOPE   C1A12381   3.130  15.931   5.992  0.1127  0.2200 -0.0214
  937YOPE   D2A12382   3.013  15.966   6.460  0.1926 -0.1024  0.0301
  937YOPE   C3A12383   2.897  16.332   6.639  0.2372  0.0148 -0.0043
  937YOPE   C4A12384   2.545  16.529   6.822  0.1187 -0.1044  0.0976
  937YOPE   C1B12385   3.780  15.658   6.311 -0.0289 -0.1285 -0.0144
  937YOPE   C2B12386   3.846  15.966   6.683 -0.1014 -0.0386 -0.3789
  937YOPE   D3B12387   4.183  16.128   6.858  0.0131  0.2956 -0.0405
  937YOPE   C4B12388   4.393  15.873   7.269 -0.0505 -0.1005 -0.0759
  938YOPE   NH312389   8.811  10.339   6.271 -0.0865  0.0756  0.0403
  938YOPE   PO412390   9.036  10.728   6.257 -0.3088  0.3381  0.1871
  938YOPE   GL112391   9.134  10.491   6.636  0.1285  0.0365  0.0700
  938YOPE   GL212392   9.208  10.193   6.570 -0.2284  0.2167 -0.3059
  938YOPE   C1A12393   9.115  10.535   7.090 -0.2711  0.1920  0.0519
  938YOPE   D2A12394   8.891  10.379   7.371 -0.3774  0.1438  0.0677
  938YOPE   C3A12395   8.620  10.656   7.764  0.0295  0.0991 -0.3517
  938YOPE   C4A12396   8.361  10.729   7.966 -0.0188  0.0251 -0.1419
  938YOPE   C1B12397   9.585  10.122   6.862  0.0005  0.2327  0.0777
  938YOPE   C2B12398   9.849  10.087   7.101 -0.1706 -0.0553 -0.2596
  938YOPE   D3B12399  10.017  10.110   7.410 -0.1767 -0.1568 -0.0332
  938YOPE   C4B12400  10.515  10.112   7.566 -0.1228  0.0988 -0.0669
  939YOPE   NH312401   1.487   6.341   5.725 -0.2407 -0.0470  0.2062
  939YOPE   PO412402   1.565   6.629   6.076  0.0573 -0.1260  0.4631
  939YOPE   GL112403   1.440   6.881   6.233 -0.1602 -0.1005  0.2150
  939YOPE   GL212404   1.083   6.808   6.350  0.0513 -0.1635  0.1305
  939YOPE   C1A12405   1.320   7.187   6.579  0.0734 -0.2748 -0.0775
  939YOPE   D2A12406   1.089   7.278   6.945  0.3975 -0.2281  0.0579
  939YOPE   C3A12407   0.708   7.363   7.048  0.0706  0.1980  0.2125
  939YOPE   C4A12408   0.509   7.529   7.361  0.2882  0.0313  0.0370
  939YOPE   C1B12409   0.798   6.885   6.757 -0.1001 -0.1395 -0.1569
  939YOPE   C2B12410   0.638   6.679   7.131  0.0942 -0.0771 -0.2901
  939YOPE   D3B12411   0.307   6.441   7.469 -0.0933  0.0861 -0.0112
  939YOPE   C4B12412   0.069   6.459   7.821 -0.2140 -0.0277 -0.0253
  940YOPE   NH312413  10.117   7.733   6.723  0.0926  0.2547 -0.3864
  940YOPE   PO412414   9.743   7.662   6.834  0.0939 -0.0951  0.1864
  940YOPE   GL112415   9.953   7.610   7.251 -0.2355  0.1910 -0.3595
  940YOPE   GL212416   9.603   7.767   7.361 -0.0790  0.0324  0.0438
  940YOPE   C1A12417  10.043   7.525   7.624  0.5107 -0.0132 -0.1000
  940YOPE   D2A12418  10.049   7.592   8.037 -0.2857 -0.2207  0.0882
  940YOPE   C3A12419  10.345   7.893   8.278  0.2002 -0.0607 -0.2382
  940YOPE   C4A12420  10.555   8.085   8.579  0.2024  0.1849  0.1727
  940YOPE   C1B12421   9.623   7.710   7.843  0.0903  0.0660 -0.1284
  940YOPE   C2B12422   9.327   7.516   8.078 -0.1698 -0.1619  0.1876
  940YOPE   D3B12423   8.948   7.464   8.219  0.2813 -0.1713  0.0307
  940YOPE   C4B12424   8.615   7.205   8.416  0.4067  0.2373 -0.1758
  941YOPE   NH312425   9.703  17.901   5.820 -0.3006 -0.1205 -0.1761
  941YOPE   PO412426   9.563  18.248   6.028  0.0642  0.5377 -0.2435
  941YOPE   GL112427   9.352  18.113   6.347 -0.1111  0.0882 -0.0827
  941YOPE   GL212428   9.186  18.353   6.397  0.0013  0.1144 -0.1510
  941YOPE   C1A12429   9.299  18.069   6.751  0.0714  0.1503 -0.3850
  941YOPE   D2A12430   9.249  17.888   7.252 -0.1681  0.0163  0.2645
  941YOPE   C3A12431   9.217  17.765   7.660  0.4263  0.0560 -0.0195
  941YOPE   C4A12432   9.020  17.475   7.939  0.0009  0.2299 -0.0800
  941YOPE   C1B12433   8.956  18.440   6.727  0.2948 -0.1788 -0.1036
  941YOPE   C2B12434   9.021  18.478   7.121  0.3739 -0.1024  0.1511
  941YOPE   D3B12435   8.859  18.358   7.555  0.1126  0.4586  0.1893
  941YOPE   C4B12436   8.545  18.269   7.844  0.2123 -0.2387  0.2906
  942POPC   NC312437   1.101   9.894   5.935 -0.0633 -0.2810  0.3133
  942POPC   PO412438   0.878   9.534   6.099  0.3673 -0.0323  0.1690
  942POPC   GL112439   0.921   9.260   6.374  0.3428  0.1096 -0.0348
  942POPC   GL212440   1.082   9.109   6.287  0.2040 -0.0812 -0.1981
  942POPC   C1A12441   0.717   9.065   6.703  0.0383 -0.5235  0.2466
  942POPC   D2A12442   0.695   9.101   7.135 -0.1156  0.1069  0.3026
  942POPC   C3A12443   0.646   9.389   7.437  0.0139 -0.0739  0.1126
  942POPC   C4A12444   0.472   9.684   7.744 -0.1312 -0.1377 -0.0352
  942POPC   C1B12445   1.221   9.256   6.717 -0.2122 -0.0668  0.2791
  942POPC   C2B12446   1.189   9.240   7.160  0.2418 -0.4815  0.0079
  942POPC   C3B12447   1.060   9.048   7.550  0.1598  0.0039 -0.1600
  942POPC   C4B12448   0.701   8.889   7.602  0.1292 -0.0890 -0.1011
  943POPC   NC312449   9.630   9.861   5.769  0.1404  0.2310  0.1218
  943POPC   PO412450   9.957   9.675   5.943  0.2713  0.0820  0.3281
  943POPC   GL112451  10.105   9.555   6.347  0.1132  0.1869  0.1548
  943POPC   GL212452  10.059   9.269   6.542  0.1355  0.3102 -0.2069
  943POPC   C1A12453  10.428   9.665   6.528 -0.1603 -0.1156  0.2807
  943POPC   D2A12454  10.696   9.573   6.819 -0.1154  0.2357  0.1602
  943POPC   C3A12455  10.805   9.400   7.292 -0.1251  0.2123 -0.0996
  943POPC   C4A12456  10.936   9.405   7.580  0.0636 -0.0007 -0.4136
  943POPC   C1B12457   9.970   9.494   6.882 -0.2871 -0.1266 -0.3486
  943POPC   C2B12458   9.935   9.597   7.384  0.2760 -0.0226  0.1038
  943POPC   C3B12459  10.049   9.832   7.797  0.1951  0.0413 -0.2318
  943POPC   C4B12460  10.033   9.742   8.215 -0.0516  0.1065  0.0111
  944POPC   NC312461  13.325   9.562   5.907 -0.1539  0.3035 -0.4977
  944POPC   PO412462  12.935   9.666   5.900  0.2853  0.0779  0.1491
  944POPC   GL112463  12.958   9.393   6.228 -0.0901 -0.2159  0.2061
  944POPC   GL212464  13.261   9.233   6.271  0.2244  0.0234  0.1371
  944POPC   C1A12465  13.052   9.505   6.640  0.2869  0.0893  0.2871
  944POPC   D2A12466  13.249   9.605   7.059  0.0675 -0.0196  0.2581
  944POPC   C3A12467  13.106   9.852   7.181 -0.3151  0.0993 -0.1338
  944POPC   C4A12468  12.981  10.178   7.537 -0.2352 -0.1104 -0.2735
  944POPC   C1B12469  13.065   8.959   6.579 -0.0386  0.0049 -0.2121
  944POPC   C2B12470  12.864   8.759   6.916 -0.2414  0.2613 -0.1635
  944POPC   C3B12471  12.830   8.809   7.419 -0.1755  0.0786  0.2271
  944POPC   C4B12472  12.710   8.939   7.719  0.2431 -0.5726  0.2810
  945POPC   NC312473   9.316  15.031   5.709  0.0610  0.0907 -0.0026
  945POPC   PO412474   9.237  14.719   5.539 -0.0471 -0.0172  0.0294
  945POPC   GL112475   9.339  14.503   5.946 -0.0109  0.2949 -0.2605
  945POPC   GL212476   9.716  14.490   5.953 -0.1768  0.3420  0.1297
  945POPC   C1A12477   9.301  14.646   6.293  0.0984  0.3803  0.0361
  945POPC   D2A12478   9.028  14.587   6.689  0.2600  0.0420 -0.1079
  945POPC   C3A12479   8.613  14.619   6.842 -0.2053 -0.0359  0.1524
  945POPC   C4A12480   8.122  14.387   7.007  0.1217 -0.1571  0.0008
  945POPC   C1B12481   9.982  14.318   6.212 -0.1228 -0.0499  0.1997
  945POPC   C2B12482  10.402  14.381   6.441 -0.0260  0.0961 -0.1135
  945POPC   C3B12483  10.497  14.393   6.807 -0.1241  0.0759  0.0012
  945POPC   C4B12484  10.452  14.789   6.848 -0.0047 -0.0400  0.2302
  946POPC   NC312485  11.554  13.980   5.747 -0.1969  0.1042 -0.1405
  946POPC   PO412486  11.753  13.807   6.149  0.0565 -0.0691  0.0252
  946POPC   GL112487  12.088  13.924   6.400 -0.0379  0.0111 -0.0689
  946POPC   GL212488  12.324  13.729   6.367  0.4467 -0.0651  0.2836
  946POPC   C1A12489  12.095  14.063   6.781 -0.1695  0.1299  0.2745
  946POPC   D2A12490  12.243  14.017   7.072  0.0699  0.3391  0.0914
  946POPC   C3A12491  12.385  14.294   7.347 -0.4362 -0.1329 -0.5256
  946POPC   C4A12492  12.479  14.306   7.668  0.1204  0.0833  0.0690
  946POPC   C1B12493  12.363  13.614   6.750  0.1176 -0.0891 -0.0382
  946POPC   C2B12494  12.396  13.441   7.085  0.1925  0.1231 -0.0801
  946POPC   C3B12495  12.756  13.255   7.276  0.4207 -0.2647  0.1158
  946POPC   C4B12496  12.682  13.116   7.692 -0.2588 -0.1064  0.0737
  947POPC   NC312497  11.509   6.364   6.303  0.0760  0.1533  0.2140
  947POPC   PO412498  11.399   6.698   6.608 -0.3064  0.3012 -0.2873
  947POPC   GL112499  11.363   7.064   6.784  0.3087 -0.3074  0.0610
  947POPC   GL212500  11.609   7.184   6.912  0.2054 -0.0623 -0.0273
  947POPC   C1A12501  11.175   7.459   6.968  0.0947 -0.0020  0.0615
  947POPC   D2A12502  11.035   7.789   7.117 -0.2735  0.0350  0.2424
  947POPC   C3A12503  10.878   7.778   7.554 -0.0634 -0.2362  0.3305
  947POPC   C4A12504  10.517   7.653   7.816  0.0650  0.2538 -0.0858
  947POPC   C1B12505  12.049   7.194   7.011  0.0317  0.0135 -0.0636
  947POPC   C2B12506  12.226   7.020   7.368  0.1419  0.1427  0.0267
  947POPC   C3B12507  12.052   7.099   7.674 -0.1975  0.1219 -0.3429
  947POPC   C4B12508  12.164   7.262   8.183 -0.2260  0.0883 -0.4026
  948POPC   NC312509   6.583   2.626   5.796 -0.2361 -0.1144 -0.2766
  948POPC   PO412510   6.223   2.784   5.930 -0.2991  0.1651  0.2053
  948POPC   GL112511   6.162   2.568   6.180  0.0359 -0.1141  0.0663
  948POPC   GL212512   6.271   2.290   6.093  0.0713  0.3562  0.1459
  948POPC   C1A12513   6.445   2.489   6.605 -0.2846 -0.0458  0.1515
  948POPC   D2A12514   6.657   2.333   6.960  0.0728  0.0923 -0.0488
  948POPC   C3A12515   6.923   1.992   6.719 -0.0299 -0.3739 -0.2064
  948POPC   C4A12516   7.198   1.891   6.304  0.1392 -0.0872  0.0031
  948POPC   C1B12517   6.264   2.056   6.504 -0.2164  0.2146 -0.2432
  948POPC   C2B12518   6.202   2.003   6.993  0.0426 -0.2756  0.2539
  948POPC   C3B12519   6.054   1.762   7.371 -0.2434 -0.1020  0.0389
  948POPC   C4B12520   5.864   1.870   7.695 -0.4859 -0.1780  0.3186
  949POPC   NC312521   2.001   6.768   5.795  0.0325 -0.1177  0.2926
  949POPC   PO412522   1.903   7.209   5.724 -0.0844 -0.2651  0.2748
  949POPC   GL112523   1.925   7.114   6.149  0.1199  0.0289 -0.2120
  949POPC   GL212524   2.241   6.835   6.163 -0.2598  0.0628  0.1008
  949POPC   C1A12525   1.867   7.155   6.586  0.2754 -0.0720 -0.1000
  949POPC   D2A12526   2.110   7.108   6.879 -0.0836 -0.2727  0.0623
  949POPC   C3A12527   2.162   7.084   7.352  0.0484 -0.1679  0.1395
  949POPC   C4A12528   2.354   6.852   7.653 -0.2415  0.0823 -0.1499
  949POPC   C1B12529   2.037   6.671   6.585  0.1305  0.2533 -0.1190
  949POPC   C2B12530   1.742   6.556   7.076  0.0186  0.1673  0.1975
  949POPC   C3B12531   1.724   6.598   7.444  0.0872  0.1968  0.0672
  949POPC   C4B12532   1.768   6.895   7.773  0.2539 -0.1167  0.0164
  950POPC   NC312533  15.242  12.932   5.718 -0.2519  0.0267  0.2062
  950POPC   PO412534  15.184  12.599   5.922 -0.1223  0.0717 -0.1914
  950POPC   GL112535  15.161  12.713   6.348 -0.0795 -0.1392 -0.2070
  950POPC   GL212536  14.831  12.552   6.410 -0.2513 -0.0845  0.1180
  950POPC   C1A12537  15.090  12.922   6.765 -0.0472 -0.0186 -0.3798
  950POPC   D2A12538  15.110  13.034   7.210  0.1112  0.0543  0.1280
  950POPC   C3A12539  14.754  13.006   7.507  0.0521 -0.1076 -0.0975
  950POPC   C4A12540  14.738  13.305   7.805 -0.1796  0.0979 -0.0422
  950POPC   C1B12541  14.606  12.155   6.756 -0.1314  0.0227  0.3589
  950POPC   C2B12542  14.314  12.152   7.105 -0.3258 -0.2142 -0.1292
  950POPC   C3B12543  14.093  11.786   7.399 -0.2687 -0.0420  0.0858
  950POPC   C4B12544  13.775  11.810   7.796 -0.0949  0.1500  0.2479
  951POPC   NC312545  15.301   7.179   6.316 -0.2835 -0.4856  0.0534
  951POPC   PO412546  15.425   7.537   6.155 -0.1310  0.0235 -0.0428
  951POPC   GL112547  15.160   7.644   6.526  0.3208  0.0910 -0.1532
  951POPC   GL212548  14.815   7.604   6.492 -0.0984 -0.1361 -0.1480
  951POPC   C1A12549  15.245   7.901   7.018 -0.0068 -0.2046  0.0905
  951POPC   D2A12550  15.427   7.900   7.399  0.0117  0.0653  0.1703
  951POPC   C3A12551  15.363   8.148   7.722  0.0790  0.1903  0.2229
  951POPC   C4A12552  15.212   8.275   8.034  0.0408  0.0792  0.0945
  951POPC   C1B12553  14.647   7.877   6.766  0.0317  0.0956  0.1625
  951POPC   C2B12554  14.683   7.851   7.139 -0.2426 -0.2146 -0.2435
  951POPC   C3B12555  14.497   7.721   7.477 -0.1911  0.1095 -0.0667
  951POPC   C4B12556  14.466   7.337   7.658  0.0237  0.0636 -0.1283
  952POPC   NC312557   1.475  13.784   5.454  0.2554  0.1470 -0.0438
  952POPC   PO412558   1.153  14.070   5.249 -0.2448  0.0584  0.1078
  952POPC   GL112559   1.116  14.042   5.651  0.4667  0.1640 -0.0119
  952POPC   GL212560   0.827  13.926   5.838  0.0999  0.1632  0.0221
  952POPC   C1A12561   1.345  14.124   5.991  0.1073  0.0505 -0.2493
  952POPC   D2A12562   1.721  14.158   6.294  0.1936  0.2577  0.0034
  952POPC   C3A12563   1.915  13.764   6.371 -0.0404  0.4385  0.2750
  952POPC   C4A12564   1.817  13.499   6.651 -0.1870 -0.2412 -0.4571
  952POPC   C1B12565   0.939  13.830   6.270  0.0558 -0.4488  0.0699
  952POPC   C2B12566   0.885  13.981   6.694 -0.0324 -0.0465 -0.0752
  952POPC   C3B12567   0.949  13.984   7.058  0.0729 -0.1072 -0.0371
  952POPC   C4B12568   0.917  13.713   7.561  0.0771  0.0534 -0.0844
  953POPC   NC312569  13.541  11.259   5.870  0.0019 -0.1149  0.1581
  953POPC   PO412570  13.673  10.795   5.928  0.1800 -0.2196  0.0006
  953POPC   GL112571  13.617  10.691   6.433  0.0899 -0.2086 -0.3120
  953POPC   GL212572  13.570  10.363   6.449  0.2358  0.0264 -0.0688
  953POPC   C1A12573  13.599  11.024   6.713 -0.2477 -0.0130 -0.0328
  953POPC   D2A12574  13.399  11.213   7.096  0.2321  0.2381 -0.4265
  953POPC   C3A12575  13.500  11.064   7.555  0.1165  0.1629 -0.0236
  953POPC   C4A12576  13.429  10.819   7.847 -0.1305 -0.0231 -0.2811
  953POPC   C1B12577  13.822  10.413   6.779 -0.1005 -0.0102 -0.3394
  953POPC   C2B12578  14.230  10.416   7.042  0.2959 -0.0437 -0.1764
  953POPC   C3B12579  14.364  10.597   7.364  0.1322 -0.0156 -0.0897
  953POPC   C4B12580  14.481  10.794   7.769 -0.2747  0.2384 -0.0213
  954POPC   NC312581  16.689  10.020   6.228  0.0287  0.0932 -0.0808
  954POPC   PO412582  16.885   9.664   6.186  0.0179 -0.3866  0.0830
  954POPC   GL112583  17.083   9.905   6.455  0.0741  0.0986  0.2437
  954POPC   GL212584  17.264   9.745   6.544  0.3858 -0.1140 -0.0922
  954POPC   C1A12585  16.996  10.164   6.821 -0.0509  0.0278 -0.1153
  954POPC   D2A12586  16.975  10.213   7.131 -0.0823  0.1434  0.3389
  954POPC   C3A12587  17.169  10.546   7.330  0.0655 -0.2543  0.0645
  954POPC   C4A12588  17.109  10.734   7.724  0.2385 -0.2077 -0.0804
  954POPC   C1B12589  17.092   9.659   6.930  0.3542 -0.0746 -0.5638
  954POPC   C2B12590  17.196   9.614   7.306 -0.0725  0.1244  0.0092
  954POPC   C3B12591  17.118   9.599   7.838  0.4416  0.0333  0.1946
  954POPC   C4B12592  17.254   9.397   8.136 -0.0071 -0.0021  0.2993
  955POPC   NC312593   6.121   0.236   5.497 -0.2241 -0.0106 -0.2005
  955POPC   PO412594   6.091  -0.209   5.589  0.4241  0.0029 -0.1423
  955POPC   GL112595   5.836  -0.653   5.696  0.3124 -0.0226 -0.1274
  955POPC   GL212596   5.586  -0.480   5.843 -0.1685  0.0631 -0.1723
  955POPC   C1A12597   5.855  -0.786   6.059  0.1107 -0.3267 -0.2337
  955POPC   D2A12598   6.179  -0.739   6.359  0.1177  0.2774 -0.1277
  955POPC   C3A12599   6.349  -1.028   6.631  0.0508  0.0794  0.1032
  955POPC   C4A12600   6.228  -1.006   7.066  0.0306 -0.0131 -0.2701
  955POPC   C1B12601   5.268  -0.333   6.125 -0.1860 -0.0163  0.2839
  955POPC   C2B12602   5.244  -0.380   6.547 -0.0164 -0.0372 -0.1344
  955POPC   C3B12603   5.264  -0.157   6.965 -0.2454  0.2898 -0.0833
  955POPC   C4B12604   5.625  -0.220   7.204  0.4388 -0.0470 -0.2390
  956POPC   NC312605   4.179  11.091   5.957 -0.0829 -0.1650  0.0365
  956POPC   PO412606   4.535  11.308   5.950 -0.1807 -0.0626 -0.0168
  956POPC   GL112607   4.617  11.143   6.331 -0.1749 -0.1459 -0.0003
  956POPC   GL212608   4.947  11.101   6.351  0.2061 -0.1685 -0.0512
  956POPC   C1A12609   4.440  11.266   6.588 -0.3652 -0.1894  0.0335
  956POPC   D2A12610   4.026  11.362   6.593 -0.2222 -0.0123 -0.1870
  956POPC   C3A12611   3.810  11.509   7.033 -0.0036 -0.1024  0.0311
  956POPC   C4A12612   3.910  11.886   7.402 -0.2295 -0.0989  0.0237
  956POPC   C1B12613   4.875  10.912   6.730 -0.2481 -0.0414  0.0546
  956POPC   C2B12614   4.944  10.745   7.193 -0.0601 -0.0657 -0.0349
  956POPC   C3B12615   4.687  10.929   7.545  0.2040  0.1939 -0.0992
  956POPC   C4B12616   4.325  10.922   7.598 -0.1753  0.4776 -0.1298
  957POPC   NC312617   7.416   2.708   5.435  0.0254 -0.1804 -0.1216
  957POPC   PO412618   7.127   2.535   5.781  0.2843 -0.0302 -0.3756
  957POPC   GL112619   7.064   2.499   6.130 -0.1568 -0.1528 -0.0529
  957POPC   GL212620   6.784   2.600   6.251 -0.3593  0.0512 -0.0835
  957POPC   C1A12621   7.215   2.544   6.510  0.2196 -0.1801 -0.1052
  957POPC   D2A12622   7.162   2.522   6.945  0.4675 -0.1538  0.0949
  957POPC   C3A12623   7.086   2.354   7.266  0.0136  0.0907  0.2372
  957POPC   C4A12624   7.108   2.091   7.624  0.1700 -0.2509  0.0364
  957POPC   C1B12625   6.738   2.155   6.285 -0.1788 -0.4306  0.0797
  957POPC   C2B12626   6.704   1.679   6.355 -0.0587  0.0523  0.0812
  957POPC   C3B12627   6.390   1.474   6.547  0.1274 -0.0195 -0.2476
  957POPC   C4B12628   6.087   1.443   6.907  0.0260 -0.0221  0.0299
  958POPC   NC312629  15.137   0.834   5.896 -0.0822  0.1372 -0.1872
  958POPC   PO412630  15.337   0.406   5.798  0.1646  0.1627 -0.2337
  958POPC   GL112631  15.382   0.314   6.234  0.2688 -0.0864  0.2272
  958POPC   GL212632  15.549   0.060   6.359  0.3248 -0.1819 -0.0098
  958POPC   C1A12633  15.004   0.163   6.463 -0.0528  0.1811  0.3708
  958POPC   D2A12634  14.742   0.096   6.800 -0.0806  0.1462 -0.1936
  958POPC   C3A12635  14.608   0.517   6.806 -0.0389 -0.3991 -0.0383
  958POPC   C4A12636  14.376   0.943   6.860  0.1360 -0.1583 -0.1864
  958POPC   C1B12637  15.632   0.033   6.812  0.0652 -0.3729  0.1305
  958POPC   C2B12638  15.792   0.007   7.267  0.3025 -0.1792 -0.1118
  958POPC   C3B12639  15.784   0.088   7.598  0.1680  0.0362 -0.2758
  958POPC   C4B12640  15.589   0.527   7.791 -0.0766 -0.0148 -0.3938
  959POPC   NC312641   6.697   1.653   5.450  0.3040 -0.1136 -0.2436
  959POPC   PO412642   6.656   1.358   5.825 -0.0927 -0.0733  0.1148
  959POPC   GL112643   6.504   1.194   6.149  0.1765 -0.2237 -0.1500
  959POPC   GL212644   6.517   0.849   6.116 -0.1705 -0.0882 -0.2341
  959POPC   C1A12645   6.472   1.023   6.645  0.3784 -0.0609 -0.2056
  959POPC   D2A12646   6.374   1.041   7.075 -0.0055 -0.0267  0.0609
  959POPC   C3A12647   6.563   0.690   7.284 -0.0517 -0.1467 -0.2001
  959POPC   C4A12648   6.473   0.766   7.769 -0.0036 -0.0049  0.0479
  959POPC   C1B12649   6.490   0.541   6.429 -0.0262  0.0092  0.1968
  959POPC   C2B12650   6.405   0.482   6.818 -0.0468  0.1940 -0.2571
  959POPC   C3B12651   6.283   0.313   7.200  0.2380 -0.0943 -0.0817
  959POPC   C4B12652   6.119   0.454   7.572 -0.2843 -0.2169  0.2926
  960POPC   NC312653  17.846  12.327   5.609 -0.2540  0.0005 -0.0984
  960POPC   PO412654  17.788  11.948   5.707 -0.1245 -0.1081  0.0080
  960POPC   GL112655  17.898  11.968   6.120 -0.0106  0.0102  0.0046
  960POPC   GL212656  18.194  12.054   6.250  0.0847  0.1381  0.3624
  960POPC   C1A12657  17.592  12.107   6.477  0.1226  0.0449 -0.1825
  960POPC   D2A12658  17.396  12.257   6.798 -0.4575 -0.2359  0.0139
  960POPC   C3A12659  17.515  12.700   6.873  0.0236  0.3374  0.3404
  960POPC   C4A12660  17.520  13.023   7.104 -0.0182  0.1182 -0.0198
  960POPC   C1B12661  18.015  11.890   6.649  0.1376  0.1019 -0.0597
  960POPC   C2B12662  18.145  11.700   6.949 -0.1756 -0.1188  0.1988
  960POPC   C3B12663  18.467  11.610   7.356  0.0706 -0.1123 -0.0351
  960POPC   C4B12664  18.635  11.466   7.703 -0.2049 -0.0826 -0.0415
  961POPC   NC312665  16.232  16.908   5.649 -0.2040  0.1014  0.4128
  961POPC   PO412666  16.306  17.363   5.780  0.0253  0.0963 -0.0320
  961POPC   GL112667  16.518  17.154   6.011  0.3874  0.0208 -0.2192
  961POPC   GL212668  16.600  16.876   5.955 -0.2352  0.0907 -0.0046
  961POPC   C1A12669  16.480  17.024   6.411 -0.2305 -0.1336 -0.0547
  961POPC   D2A12670  16.824  16.957   6.603 -0.0952  0.0198 -0.2575
  961POPC   C3A12671  16.770  16.775   7.000  0.2850  0.0078 -0.1557
  961POPC   C4A12672  16.531  16.788   7.329  0.2092  0.2575 -0.0590
  961POPC   C1B12673  16.723  16.602   6.256  0.1771  0.0300 -0.0192
  961POPC   C2B12674  16.843  16.471   6.587  0.3703 -0.5096 -0.1444
  961POPC   C3B12675  16.743  16.250   6.927 -0.1998  0.0872 -0.1413
  961POPC   C4B12676  16.587  16.303   7.328 -0.0751  0.0466 -0.2155
  962POPC   NC312677   7.048   0.006   5.364 -0.3379 -0.1377 -0.1186
  962POPC   PO412678   7.331  -0.188   5.501  0.2507  0.0174  0.2225
  962POPC   GL112679   7.221  -0.324   5.970 -0.1812 -0.0536  0.0721
  962POPC   GL212680   6.938  -0.573   5.989  0.2956 -0.1678 -0.1465
  962POPC   C1A12681   6.899  -0.200   6.313  0.1863 -0.0776  0.1209
  962POPC   D2A12682   6.539   0.044   6.564 -0.1063  0.0797  0.2295
  962POPC   C3A12683   6.179   0.072   6.627  0.1279 -0.0092  0.4042
  962POPC   C4A12684   5.928   0.154   6.944  0.2369  0.2020  0.1301
  962POPC   C1B12685   6.817  -0.675   6.471 -0.0564 -0.2380  0.1076
  962POPC   C2B12686   6.950  -0.515   6.870 -0.1009 -0.2812 -0.1724
  962POPC   C3B12687   7.146  -0.457   7.301  0.0295 -0.0530  0.0756
  962POPC   C4B12688   7.053  -0.214   7.725 -0.0696  0.3986  0.2497
  963POPC   NC312689   4.868   4.616   5.861  0.0365  0.5158 -0.1082
  963POPC   PO412690   4.728   4.233   5.619  0.0345  0.1021  0.1568
  963POPC   GL112691   4.514   4.162   5.977 -0.1354  0.0048  0.3547
  963POPC   GL212692   4.530   4.386   6.190 -0.1689  0.0360  0.1201
  963POPC   C1A12693   4.741   3.951   6.315 -0.0537 -0.1701  0.3227
  963POPC   D2A12694   4.680   3.943   6.741 -0.2076  0.3673 -0.3415
  963POPC   C3A12695   5.007   4.019   6.985  0.0486  0.0867 -0.1386
  963POPC   C4A12696   5.511   3.868   6.888 -0.0252  0.0626 -0.0605
  963POPC   C1B12697   4.423   4.411   6.584 -0.0438 -0.0305 -0.1156
  963POPC   C2B12698   4.432   4.631   6.872  0.1178 -0.2208 -0.1665
  963POPC   C3B12699   4.445   4.672   7.371  0.0290 -0.1716  0.2027
  963POPC   C4B12700   4.334   4.580   7.781  0.1464 -0.1099  0.0704
  964POPC   NC312701   8.540   2.567   5.478  0.0300 -0.1881  0.1525
  964POPC   PO412702   8.811   2.257   5.677 -0.1630  0.1734  0.0452
  964POPC   GL112703   8.644   1.976   6.084  0.0388  0.3074  0.0391
  964POPC   GL212704   8.383   1.722   6.009  0.1056  0.1452  0.1012
  964POPC   C1A12705   8.705   1.992   6.578  0.0574  0.3064 -0.3696
  964POPC   D2A12706   8.697   1.892   7.052 -0.0473  0.0487 -0.3040
  964POPC   C3A12707   8.285   1.780   7.101  0.1725  0.1407 -0.4183
  964POPC   C4A12708   7.840   1.817   7.175 -0.4502  0.0924  0.0362
  964POPC   C1B12709   8.211   1.992   6.376 -0.0250  0.0246  0.0927
  964POPC   C2B12710   7.821   1.929   6.598 -0.0933  0.1360 -0.1466
  964POPC   C3B12711   7.579   2.179   6.861 -0.2591  0.0193  0.0395
  964POPC   C4B12712   7.535   2.177   7.314 -0.2470  0.0650 -0.0284
  965POPC   NC312713  16.962   3.241   5.829 -0.0428  0.1941  0.1213
  965POPC   PO412714  16.501   3.290   5.846  0.0672 -0.1046  0.0109
  965POPC   GL112715  16.409   3.056   6.192  0.0314  0.0927 -0.0537
  965POPC   GL212716  16.120   3.041   6.406 -0.1522 -0.0610  0.1648
  965POPC   C1A12717  16.590   3.080   6.516 -0.0054  0.1282  0.0043
  965POPC   D2A12718  16.584   3.143   6.942  0.2985 -0.0459  0.0434
  965POPC   C3A12719  16.941   3.143   7.333 -0.2697  0.3128  0.0088
  965POPC   C4A12720  17.245   3.001   7.577 -0.1077  0.0374  0.2128
  965POPC   C1B12721  16.180   2.819   6.763  0.0251  0.0519  0.0861
  965POPC   C2B12722  16.573   2.632   7.008  0.0668  0.2138  0.0129
  965POPC   C3B12723  16.764   2.638   7.423 -0.1020 -0.2069  0.0328
  965POPC   C4B12724  17.159   2.558   7.738 -0.2121  0.0073  0.1143
  966POPC   NC312725  18.338  14.491   5.332  0.0584 -0.1873 -0.1329
  966POPC   PO412726  17.969  14.263   5.374  0.1403  0.0693 -0.2141
  966POPC   GL112727  17.890  14.491   5.664  0.3425  0.0235  0.1534
  966POPC   GL212728  18.114  14.647   5.926 -0.0780  0.0343  0.2748
  966POPC   C1A12729  17.655  14.746   6.049  0.0693  0.2761  0.0693
  966POPC   D2A12730  17.188  14.624   6.043  0.2489  0.1322  0.1237
  966POPC   C3A12731  16.918  14.945   5.932 -0.1718  0.0018 -0.0606
  966POPC   C4A12732  16.618  15.274   5.791  0.0547 -0.1035  0.1821
  966POPC   C1B12733  18.288  14.638   6.378 -0.1474  0.3007  0.1557
  966POPC   C2B12734  18.553  14.655   6.706 -0.0245  0.2824  0.0968
  966POPC   C3B12735  18.829  14.720   6.996 -0.0231  0.3045 -0.4387
  966POPC   C4B12736  18.931  14.637   7.478 -0.0587 -0.0749 -0.0900
  967POPC   NC312737  14.918  11.463   6.146 -0.1938  0.3024 -0.0089
  967POPC   PO412738  15.296  11.794   6.027 -0.0507 -0.2471  0.1313
  967POPC   GL112739  15.356  11.545   6.491 -0.0224 -0.1710 -0.1024
  967POPC   GL212740  15.576  11.421   6.616 -0.2515  0.0132 -0.1481
  967POPC   C1A12741  15.349  11.591   6.999 -0.1517 -0.1678  0.1164
  967POPC   D2A12742  15.540  11.601   7.409  0.2903 -0.3351  0.3046
  967POPC   C3A12743  15.860  11.353   7.555 -0.0225 -0.0529  0.1016
  967POPC   C4A12744  16.031  11.027   7.786 -0.0094  0.0985 -0.1416
  967POPC   C1B12745  15.932  11.472   6.781 -0.4754  0.1782 -0.2962
  967POPC   C2B12746  15.996  11.675   7.201 -0.1908  0.2556  0.2505
  967POPC   C3B12747  16.052  11.847   7.557  0.0903  0.0166  0.0244
  967POPC   C4B12748  16.052  12.199   7.845  0.1612  0.0813 -0.1135
  968POPC   NC312749  14.837  12.249   5.928  0.2180  0.0072  0.1973
  968POPC   PO412750  14.691  11.870   6.035 -0.0516 -0.3283  0.1805
  968POPC   GL112751  14.871  11.918   6.371 -0.0247  0.0227  0.1494
  968POPC   GL212752  15.135  12.203   6.348 -0.1691 -0.1261  0.3210
  968POPC   C1A12753  15.060  11.894   6.713 -0.1091  0.1975  0.1274
  968POPC   D2A12754  14.953  12.037   7.130  0.2768  0.0313 -0.0322
  968POPC   C3A12755  15.115  12.080   7.491 -0.1184 -0.0540  0.0765
  968POPC   C4A12756  15.447  12.047   7.812  0.0640  0.2058 -0.1177
  968POPC   C1B12757  15.162  12.378   6.752  0.2190 -0.0170  0.2206
  968POPC   C2B12758  15.330  12.571   7.150 -0.2266  0.1017  0.0888
  968POPC   C3B12759  15.156  12.592   7.512  0.0885 -0.1490  0.1337
  968POPC   C4B12760  15.242  12.973   7.774 -0.1229 -0.1907 -0.1410
  969POPC   NC312761   9.275   3.006   6.053 -0.0357  0.0383 -0.0570
  969POPC   PO412762   9.241   3.517   5.891  0.3652 -0.1439  0.1331
  969POPC   GL112763   9.468   3.855   6.173 -0.0003  0.0833  0.1905
  969POPC   GL212764   9.180   3.889   6.232 -0.0134 -0.2713  0.4423
  969POPC   C1A12765   9.780   3.891   6.480  0.0887  0.0276  0.1855
  969POPC   D2A12766   9.765   4.215   6.712  0.2074 -0.0981 -0.2268
  969POPC   C3A12767   9.873   4.010   7.061  0.1384  0.2223  0.0938
  969POPC   C4A12768   9.853   3.917   7.490 -0.1635 -0.0601  0.1260
  969POPC   C1B12769   9.230   4.155   6.627  0.1679  0.3170 -0.0560
  969POPC   C2B12770   9.345   4.069   7.002  0.1905 -0.3910 -0.1347
  969POPC   C3B12771   9.358   3.825   7.331 -0.0404  0.0553 -0.1121
  969POPC   C4B12772   9.529   3.490   7.635  0.0164 -0.0791  0.1397
  970POPC   NC312773   3.575   1.527   5.056  0.0017 -0.0098  0.0585
  970POPC   PO412774   3.662   1.910   5.366  0.2374  0.1572 -0.2288
  970POPC   GL112775   3.774   1.934   5.777  0.4839  0.0314  0.1430
  970POPC   GL212776   3.992   2.192   5.808 -0.0848  0.1139 -0.0319
  970POPC   C1A12777   3.671   1.772   6.177 -0.1740 -0.2198 -0.0822
  970POPC   D2A12778   3.615   1.603   6.653 -0.3060  0.0594  0.2384
  970POPC   C3A12779   3.300   1.472   6.914  0.0322 -0.0287  0.2225
  970POPC   C4A12780   2.803   1.455   6.977  0.1155  0.1436  0.0035
  970POPC   C1B12781   3.874   2.275   6.238  0.0765  0.0662 -0.1398
  970POPC   C2B12782   3.708   2.075   6.627  0.1075  0.3307 -0.0003
  970POPC   C3B12783   3.624   1.984   7.021 -0.1464  0.0414  0.3488
  970POPC   C4B12784   3.455   1.958   7.419 -0.2472 -0.1714  0.0123
  971POPC   NC312785   7.361   5.013   5.643  0.0871  0.1021  0.1544
  971POPC   PO412786   7.304   4.621   5.783 -0.0452  0.1501 -0.2545
  971POPC   GL112787   6.985   4.565   6.052 -0.0494 -0.2010 -0.0956
  971POPC   GL212788   7.185   4.526   6.431 -0.0182 -0.0829 -0.1006
  971POPC   C1A12789   6.742   4.346   6.418  0.2522  0.0376 -0.0120
  971POPC   D2A12790   6.274   4.449   6.507 -0.1330  0.0374  0.0258
  971POPC   C3A12791   6.178   4.935   6.742 -0.0237 -0.2018  0.0669
  971POPC   C4A12792   5.860   5.117   6.920 -0.1137 -0.0075 -0.0576
  971POPC   C1B12793   7.197   4.742   6.861  0.1584  0.2309 -0.0940
  971POPC   C2B12794   7.278   4.748   7.304 -0.0846 -0.0576  0.1008
  971POPC   C3B12795   7.429   4.753   7.704 -0.3748  0.0317  0.0676
  971POPC   C4B12796   7.420   5.063   8.104 -0.2824 -0.1850  0.2178
  972POPC   NC312797   6.223   9.858   5.896  0.3175 -0.0675 -0.2953
  972POPC   PO412798   5.942  10.167   6.114  0.0374  0.0660  0.0139
  972POPC   GL112799   6.000  10.469   6.507  0.1634 -0.1522 -0.1706
  972POPC   GL212800   5.632  10.611   6.703  0.0839  0.0462  0.1468
  972POPC   C1A12801   6.011  10.500   6.996  0.1284  0.1330  0.1769
  972POPC   D2A12802   5.871  10.579   7.437 -0.0790  0.0448 -0.0806
  972POPC   C3A12803   6.059  10.930   7.645 -0.1460 -0.3329 -0.0843
  972POPC   C4A12804   6.012  11.112   8.093  0.0896  0.2282 -0.0941
  972POPC   C1B12805   5.398  10.530   7.113  0.0717  0.0932 -0.2683
  972POPC   C2B12806   5.254  10.677   7.543  0.0928  0.4868  0.5257
  972POPC   C3B12807   5.101  10.722   7.862 -0.1568  0.1911 -0.1266
  972POPC   C4B12808   4.793  10.921   8.005  0.1652  0.3292 -0.0830
  973POPC   NC312809  12.600   0.249   6.089 -0.1184  0.1902  0.0557
  973POPC   PO412810  12.421  -0.019   5.859 -0.0241  0.1601  0.0087
  973POPC   GL112811  12.252  -0.091   6.310 -0.2000 -0.1416 -0.0054
  973POPC   GL212812  12.399   0.090   6.547 -0.0188  0.0566  0.2354
  973POPC   C1A12813  12.135  -0.409   6.677 -0.1720 -0.0043  0.0431
  973POPC   D2A12814  11.896  -0.726   6.721 -0.0512  0.0637  0.0777
  973POPC   C3A12815  11.776  -0.822   7.077  0.0865 -0.0400 -0.0117
  973POPC   C4A12816  11.860  -0.772   7.508  0.0781 -0.0853  0.3862
  973POPC   C1B12817  12.651   0.265   6.969  0.0657 -0.4333  0.0609
  973POPC   C2B12818  13.048   0.450   7.287 -0.0117  0.2003 -0.0032
  973POPC   C3B12819  13.240   0.401   7.613 -0.2127  0.1481  0.0127
  973POPC   C4B12820  13.115   0.405   8.043  0.0831 -0.2905 -0.1383
  974POPC   NC312821  16.028  13.474   5.471  0.2140  0.2581  0.0920
  974POPC   PO412822  16.379  13.178   5.636 -0.2022 -0.2246 -0.0539
  974POPC   GL112823  16.610  13.135   5.994  0.1268 -0.0356 -0.0241
  974POPC   GL212824  16.815  12.987   6.141  0.0276 -0.1025 -0.0846
  974POPC   C1A12825  16.448  13.269   6.355  0.2191  0.0728  0.2429
  974POPC   D2A12826  16.515  13.445   6.731  0.2951  0.0511  0.0145
  974POPC   C3A12827  16.539  13.400   7.118  0.0259  0.2147 -0.5490
  974POPC   C4A12828  16.378  13.161   7.504 -0.0229 -0.0549  0.0732
  974POPC   C1B12829  16.780  13.001   6.646 -0.0452  0.0744 -0.0651
  974POPC   C2B12830  16.688  12.900   7.161  0.1746 -0.1879  0.2149
  974POPC   C3B12831  16.630  12.708   7.620 -0.0208 -0.0306 -0.0642
  974POPC   C4B12832  16.395  12.714   8.008  0.2674  0.0230  0.1026
  975POPC   NC312833  13.502  16.087   5.630 -0.3111  0.0235  0.0514
  975POPC   PO412834  13.569  16.577   5.577 -0.3059 -0.0129  0.3763
  975POPC   GL112835  13.730  16.605   6.006 -0.2955 -0.1742 -0.0236
  975POPC   GL212836  13.650  16.851   6.219  0.1153  0.0107 -0.2241
  975POPC   C1A12837  13.996  16.423   6.347 -0.1921  0.0091 -0.2456
  975POPC   D2A12838  13.976  16.258   6.734 -0.3564  0.3908 -0.1259
  975POPC   C3A12839  13.543  15.968   6.843  0.1213 -0.3047  0.1262
  975POPC   C4A12840  13.356  15.787   7.237 -0.4034 -0.0761 -0.4934
  975POPC   C1B12841  13.510  16.619   6.578 -0.5463  0.0816 -0.3549
  975POPC   C2B12842  13.483  16.469   7.009  0.1245 -0.3050  0.0606
  975POPC   C3B12843  13.574  16.190   7.366  0.0731  0.2483 -0.0773
  975POPC   C4B12844  13.772  15.827   7.568  0.0337  0.1389  0.2994
  976POPC   NC312845   0.612   5.998   5.816 -0.1111  0.2316 -0.2226
  976POPC   PO412846   0.172   5.805   5.852 -0.1218  0.0435  0.4162
  976POPC   GL112847   0.266   5.423   6.133 -0.1429 -0.2213 -0.2944
  976POPC   GL212848   0.441   5.134   6.312  0.1413 -0.0512  0.1232
  976POPC   C1A12849   0.053   5.296   6.595  0.2461 -0.0573  0.2774
  976POPC   D2A12850  -0.251   5.614   6.778  0.2917 -0.1022 -0.2522
  976POPC   C3A12851  -0.335   5.636   7.311  0.4208 -0.1447  0.0263
  976POPC   C4A12852  -0.325   5.427   7.673 -0.3175 -0.0541  0.3746
  976POPC   C1B12853   0.599   5.246   6.764 -0.1634  0.0083  0.1942
  976POPC   C2B12854   0.614   5.477   7.113 -0.0669  0.2261 -0.1900
  976POPC   C3B12855   0.964   5.301   7.335  0.2014  0.2873 -0.0052
  976POPC   C4B12856   1.209   5.442   7.641 -0.2712 -0.1803  0.2557
  977POPC   NC312857   8.352  17.814   5.501  0.1764  0.1578 -0.0298
  977POPC   PO412858   7.975  17.584   5.337 -0.1908 -0.1323  0.1470
  977POPC   GL112859   8.043  17.497   5.792  0.1258 -0.1775  0.0449
  977POPC   GL212860   8.227  17.735   6.000 -0.0644  0.3800 -0.1311
  977POPC   C1A12861   7.912  17.484   6.322 -0.3688  0.0459  0.1660
  977POPC   D2A12862   7.838  17.660   6.770  0.1647 -0.2081 -0.5189
  977POPC   C3A12863   7.514  17.943   6.985 -0.0534  0.0092 -0.0104
  977POPC   C4A12864   7.419  18.318   6.975  0.1444 -0.2484  0.0491
  977POPC   C1B12865   8.257  17.883   6.386 -0.0164  0.2385 -0.2615
  977POPC   C2B12866   8.271  17.898   6.839 -0.3704 -0.0308  0.0055
  977POPC   C3B12867   8.138  17.647   7.129  0.2390  0.2359  0.1670
  977POPC   C4B12868   7.834  17.285   7.064  0.5696  0.4061  0.3000
  978POPC   NC312869   1.387   0.068   4.850 -0.1800 -0.2418 -0.0475
  978POPC   PO412870   1.025   0.144   5.011  0.1412 -0.0801 -0.2238
  978POPC   GL112871   0.852   0.247   5.431 -0.3262  0.1923 -0.1478
  978POPC   GL212872   1.127   0.355   5.716 -0.2507  0.2042 -0.6165
  978POPC   C1A12873   0.715   0.107   5.816 -0.1636 -0.2215 -0.2831
  978POPC   D2A12874   0.861  -0.037   6.186  0.0649  0.0242 -0.0322
  978POPC   C3A12875   0.738   0.158   6.573 -0.0519  0.2023 -0.1134
  978POPC   C4A12876   0.813   0.364   6.945 -0.2294  0.1752 -0.1398
  978POPC   C1B12877   1.262   0.187   6.144  0.2454 -0.3405  0.0181
  978POPC   C2B12878   1.281  -0.079   6.531  0.0117  0.0472  0.0356
  978POPC   C3B12879   1.146  -0.077   6.995 -0.0366  0.0383  0.2703
  978POPC   C4B12880   0.820   0.005   7.307  0.0102  0.0427 -0.1896
  979POPC   NC312881   7.274   7.388   6.488  0.1632 -0.0004 -0.1125
  979POPC   PO412882   7.079   6.998   6.557  0.3191  0.0592 -0.0035
  979POPC   GL112883   7.030   7.085   6.939  0.3234 -0.0822  0.0400
  979POPC   GL212884   6.596   6.939   6.952 -0.0311  0.0236  0.0184
  979POPC   C1A12885   6.813   6.955   7.394  0.1557  0.0926 -0.1519
  979POPC   D2A12886   6.824   6.816   7.856  0.2205  0.2169  0.4877
  979POPC   C3A12887   6.724   6.755   8.247  0.0240  0.0614  0.0326
  979POPC   C4A12888   6.633   6.875   8.617  0.0266  0.4685 -0.2365
  979POPC   C1B12889   6.529   6.533   7.203  0.1006 -0.2842 -0.0058
  979POPC   C2B12890   6.469   6.557   7.583  0.0135  0.0139 -0.2614
  979POPC   C3B12891   6.240   6.635   7.967 -0.3316  0.2874  0.2239
  979POPC   C4B12892   6.209   6.711   8.477 -0.1714  0.0853 -0.0475
  980POPC   NC312893  10.526   7.307   6.635  0.2222  0.0392  0.0834
  980POPC   PO412894  10.652   6.941   6.569 -0.0999  0.0638  0.0642
  980POPC   GL112895  10.896   7.043   6.871 -0.2265  0.0525  0.3139
  980POPC   GL212896  11.008   6.686   6.903  0.2418  0.1767 -0.0309
  980POPC   C1A12897  10.875   7.200   7.257 -0.0274  0.3794  0.1900
  980POPC   D2A12898  10.859   7.253   7.685  0.0177  0.0572  0.0265
  980POPC   C3A12899  11.053   7.523   7.889  0.2740 -0.2113 -0.2521
  980POPC   C4A12900  11.480   7.647   7.921  0.0644 -0.0476 -0.3229
  980POPC   C1B12901  11.126   6.691   7.314  0.3647  0.1836  0.1479
  980POPC   C2B12902  11.153   6.770   7.745  0.3231  0.4224  0.1173
  980POPC   C3B12903  11.249   7.037   8.109 -0.3591 -0.1285 -0.2299
  980POPC   C4B12904  11.253   7.395   8.390 -0.0960  0.0162 -0.3043
  981POPC   NC312905   6.220  16.113   5.485  0.0024  0.1275  0.4577
  981POPC   PO412906   5.945  16.384   5.440  0.1944  0.1202  0.2909
  981POPC   GL112907   5.734  16.239   5.803  0.2937  0.3304  0.0737
  981POPC   GL212908   5.471  16.135   5.899  0.3674 -0.0944  0.1599
  981POPC   C1A12909   5.762  16.307   6.229 -0.2062  0.2738  0.1721
  981POPC   D2A12910   5.600  16.471   6.433 -0.0847 -0.1319 -0.3235
  981POPC   C3A12911   5.641  16.810   6.462 -0.1411 -0.5062  0.3046
  981POPC   C4A12912   5.421  17.096   6.616 -0.0673  0.0240  0.0708
  981POPC   C1B12913   5.535  15.916   6.315 -0.1835  0.0122  0.3886
  981POPC   C2B12914   5.566  15.601   6.698  0.2110  0.2447  0.0321
  981POPC   C3B12915   5.615  15.333   7.073  0.2080 -0.1096 -0.0299
  981POPC   C4B12916   5.647  15.009   7.453 -0.1265  0.0026  0.1754
  982YOPC   NC312917   3.945  12.785   5.501  0.0126  0.0318 -0.1815
  982YOPC   PO412918   4.248  12.727   5.867  0.4403 -0.0358  0.2242
  982YOPC   GL112919   4.290  12.756   6.358 -0.0683 -0.3913 -0.4128
  982YOPC   GL212920   4.652  12.770   6.357 -0.2860  0.0337 -0.1135
  982YOPC   C1A12921   4.257  12.790   6.722  0.1113  0.5367  0.0531
  982YOPC   D2A12922   4.404  12.965   7.192 -0.0968  0.0752 -0.2298
  982YOPC   C3A12923   4.585  12.850   7.603 -0.1254 -0.0937 -0.0484
  982YOPC   C4A12924   4.593  12.798   7.944  0.1998 -0.1494  0.0212
  982YOPC   C1B12925   4.755  12.967   6.760  0.0578  0.2335  0.1600
  982YOPC   C2B12926   4.714  13.370   6.910  0.0222  0.2697 -0.2529
  982YOPC   D3B12927   4.588  13.399   7.358 -0.2280 -0.2540 -0.0211
  982YOPC   C4B12928   4.857  13.231   7.748 -0.0569 -0.2553  0.1426
  983YOPC   NC312929  16.746   4.900   6.132 -0.0019 -0.0329 -0.3261
  983YOPC   PO412930  16.888   4.501   6.044  0.0831  0.1090 -0.1318
  983YOPC   GL112931  16.858   4.400   6.503  0.0925 -0.0894  0.1864
  983YOPC   GL212932  16.656   4.303   6.676  0.1843  0.0644 -0.0814
  983YOPC   C1A12933  17.183   4.089   6.780 -0.0813  0.0779  0.0884
  983YOPC   D2A12934  17.521   4.051   7.024 -0.1680 -0.2098 -0.1550
  983YOPC   C3A12935  17.573   4.157   7.461  0.3197 -0.1525  0.0819
  983YOPC   C4A12936  17.675   3.852   7.842 -0.0203  0.0706  0.1979
  983YOPC   C1B12937  16.819   4.323   7.102 -0.0073  0.4878  0.0998
  983YOPC   C2B12938  17.132   4.033   7.275 -0.0776  0.0312 -0.4027
  983YOPC   D3B12939  17.206   4.082   7.770  0.3399 -0.1156  0.2158
  983YOPC   C4B12940  17.356   4.063   8.156 -0.0655 -0.0843  0.0135
  984YOPC   NC312941  12.446   9.005   5.809  0.2065 -0.0264 -0.2266
  984YOPC   PO412942  12.063   8.806   5.621 -0.1462  0.1355 -0.1259
  984YOPC   GL112943  12.074   9.054   6.063  0.2328  0.2145  0.0103
  984YOPC   GL212944  11.830   9.002   6.122  0.2690 -0.0121 -0.1896
  984YOPC   C1A12945  11.929   9.191   6.538 -0.0867 -0.0772  0.0898
  984YOPC   D2A12946  11.665   9.342   6.569 -0.1409 -0.0385  0.0109
  984YOPC   C3A12947  11.692   9.411   7.055 -0.0534  0.1556  0.1101
  984YOPC   C4A12948  11.841   9.239   7.444  0.0462  0.2481 -0.0464
  984YOPC   C1B12949  11.685   8.737   6.508  0.0503  0.2651  0.4035
  984YOPC   C2B12950  11.391   8.484   6.773  0.2775 -0.2018 -0.1339
  984YOPC   D3B12951  11.515   8.537   7.119 -0.0212  0.2124  0.1892
  984YOPC   C4B12952  11.894   8.654   7.118  0.4780  0.0087  0.1849
  985YOPC   NC312953   3.079   3.626   4.721 -0.1858 -0.0161  0.1107
  985YOPC   PO412954   3.128   3.222   4.906 -0.1249  0.1865 -0.6181
  985YOPC   GL112955   2.992   3.239   5.373  0.1239  0.1316 -0.3123
  985YOPC   GL212956   2.955   3.505   5.582 -0.0448 -0.1844  0.1166
  985YOPC   C1A12957   2.792   2.930   5.618  0.0956  0.0548  0.1639
  985YOPC   D2A12958   2.408   2.812   5.652 -0.0752  0.0882 -0.1010
  985YOPC   C3A12959   2.470   2.936   6.103 -0.1163 -0.0561 -0.2654
  985YOPC   C4A12960   2.462   2.793   6.594  0.1240  0.1626 -0.0130
  985YOPC   C1B12961   2.837   3.304   5.941 -0.0297  0.1371  0.0869
  985YOPC   C2B12962   2.453   3.430   6.165 -0.0056  0.1166 -0.1713
  985YOPC   D3B12963   2.031   3.280   6.153  0.1780  0.0930 -0.1690
  985YOPC   C4B12964   1.536   3.232   6.118  0.0278  0.3559 -0.1107
  986YOPC   NC312965  16.844  13.063   5.564 -0.3069  0.1869  0.0513
  986YOPC   PO412966  17.097  13.502   5.427 -0.0598  0.0418 -0.1168
  986YOPC   GL112967  17.132  13.799   5.818  0.0696 -0.0906  0.0750
  986YOPC   GL212968  17.337  13.799   6.099 -0.0658  0.0289  0.3157
  986YOPC   C1A12969  17.029  14.167   6.152  0.3669  0.0863 -0.0119
  986YOPC   D2A12970  17.147  14.375   6.506  0.0682 -0.1111 -0.2973
  986YOPC   C3A12971  17.392  14.398   6.933  0.0170  0.1808  0.3774
  986YOPC   C4A12972  17.573  14.465   7.333  0.1165 -0.1364 -0.0264
  986YOPC   C1B12973  17.234  13.860   6.482 -0.0711  0.2400  0.0012
  986YOPC   C2B12974  17.350  13.855   6.863 -0.3240  0.0342 -0.0886
  986YOPC   D3B12975  17.515  13.555   7.039  0.1369 -0.0164  0.0763
  986YOPC   C4B12976  17.781  13.388   7.448 -0.1416 -0.0635  0.2389
  987YOPC   NC312977   0.892  11.293   6.017 -0.0500 -0.1080  0.1739
  987YOPC   PO412978   0.590  11.050   5.775 -0.1130 -0.0590  0.1239
  987YOPC   GL112979   0.522  10.957   6.240 -0.0110 -0.0738  0.0640
  987YOPC   GL212980   0.839  10.914   6.337 -0.2470 -0.0636 -0.0416
  987YOPC   C1A12981   0.620  11.247   6.672  0.0327  0.2791 -0.3011
  987YOPC   D2A12982   0.416  11.248   7.054 -0.2590 -0.0295  0.1310
  987YOPC   C3A12983   0.562  11.210   7.538 -0.0627  0.0022 -0.0416
  987YOPC   C4A12984   0.801  11.108   7.934  0.1173 -0.5249 -0.1473
  987YOPC   C1B12985   1.017  10.731   6.784  0.3491  0.3138 -0.0275
  987YOPC   C2B12986   1.315  10.625   7.025 -0.0288  0.1906  0.3140
  987YOPC   D3B12987   1.339  10.937   7.327  0.2849 -0.1376 -0.0296
  987YOPC   C4B12988   1.347  10.896   7.825 -0.1961  0.0273  0.0214
  988YOPC   NC312989  15.391   6.159   5.797  0.0124 -0.1480  0.3815
  988YOPC   PO412990  15.553   5.997   6.121 -0.3474  0.3109  0.1300
  988YOPC   GL112991  15.745   5.869   6.554  0.1014 -0.0836 -0.0262
  988YOPC   GL212992  15.598   5.635   6.696  0.0840  0.0726  0.0405
  988YOPC   C1A12993  15.853   6.090   7.013 -0.1904  0.4670  0.1177
  988YOPC   D2A12994  16.010   6.333   7.462 -0.2909  0.0080  0.3745
  988YOPC   C3A12995  16.066   6.224   7.917  0.0093 -0.0561  0.1599
  988YOPC   C4A12996  16.316   6.133   8.305 -0.0659 -0.2898 -0.4690
  988YOPC   C1B12997  15.627   5.637   7.086  0.0853  0.1213 -0.0205
  988YOPC   C2B12998  15.770   5.575   7.579  0.0797 -0.0446 -0.0165
  988YOPC   D3B12999  15.571   5.927   7.825 -0.2070  0.2650 -0.0365
  988YOPC   C4B13000  15.538   5.990   8.201  0.1048  0.3276 -0.0559
  989YOPC   NC313001  14.108   6.449   6.188  0.0258 -0.1833 -0.1222
  989YOPC   PO413002  14.026   6.215   6.552  0.0761  0.1093  0.2180
  989YOPC   GL113003  13.959   6.093   7.017  0.1068  0.1033  0.3184
  989YOPC   GL213004  14.083   5.725   7.030 -0.1106  0.0561  0.0124
  989YOPC   C1A13005  13.655   6.296   7.319 -0.0018  0.4724 -0.1019
  989YOPC   D2A13006  13.354   6.381   7.711  0.0008 -0.3612 -0.0661
  989YOPC   C3A13007  12.975   6.470   7.451 -0.0472  0.1072  0.1224
  989YOPC   C4A13008  12.555   6.669   7.480  0.2313 -0.0955 -0.4237
  989YOPC   C1B13009  13.970   5.837   7.431  0.0770  0.1502  0.0570
  989YOPC   C2B13010  14.116   5.765   7.833  0.1287  0.3760 -0.2718
  989YOPC   D3B13011  14.257   6.156   8.033  0.4465  0.0885 -0.0762
  989YOPC   C4B13012  14.482   6.439   8.223 -0.0409  0.1269  0.4789
  990YOPC   NC313013   9.004  18.485   5.951  0.4503  0.1663  0.2158
  990YOPC   PO413014   9.423  18.761   5.964  0.1121  0.0781 -0.1578
  990YOPC   GL113015   9.278  18.893   6.324  0.1496  0.2603  0.2196
  990YOPC   GL213016   9.360  19.139   6.336 -0.2964 -0.2448  0.0781
  990YOPC   C1A13017   9.190  18.959   6.773  0.2831  0.1515  0.2767
  990YOPC   D2A13018   9.241  18.940   7.221 -0.4133  0.0368  0.0822
  990YOPC   C3A13019   9.289  19.200   7.606 -0.2537  0.0266  0.0512
  990YOPC   C4A13020   9.189  19.448   7.881  0.1006 -0.0555 -0.1019
  990YOPC   C1B13021   9.724  19.065   6.611  0.0006 -0.3551 -0.5015
  990YOPC   C2B13022   9.862  18.860   7.036  0.0855 -0.1562  0.1835
  990YOPC   D3B13023  10.096  18.505   7.007  0.0033  0.0611  0.0889
  990YOPC   C4B13024  10.292  18.068   7.079  0.1234 -0.0243  0.0085
  991YOPC   NC313025   3.483   0.284   4.819 -0.1102  0.0421 -0.3165
  991YOPC   PO413026   3.212   0.660   4.832 -0.1475  0.1401  0.1435
  991YOPC   GL113027   3.335   0.628   5.271  0.0193  0.0662  0.0970
  991YOPC   GL213028   3.052   0.682   5.420 -0.1274 -0.0079  0.3247
  991YOPC   C1A13029   3.389   0.543   5.717 -0.1498 -0.1796  0.2405
  991YOPC   D2A13030   3.506   0.262   6.037 -0.2264  0.1440 -0.1038
  991YOPC   C3A13031   3.908   0.282   6.395 -0.4845  0.1208  0.1651
  991YOPC   C4A13032   4.206   0.198   6.653 -0.3727 -0.1322 -0.4211
  991YOPC   C1B13033   2.614   0.599   5.697  0.1492  0.0116  0.0736
  991YOPC   C2B13034   2.558   0.295   6.009  0.2606 -0.1638  0.1368
  991YOPC   D3B13035   2.679   0.243   6.389  0.1125  0.0627  0.2861
  991YOPC   C4B13036   2.649   0.463   6.707 -0.1270  0.2154 -0.2011
  992YOPC   NC313037  10.619  14.507   5.741 -0.0774 -0.1560 -0.1901
  992YOPC   PO413038  10.308  14.797   5.698 -0.0035  0.2157  0.1894
  992YOPC   GL113039  10.087  14.796   6.130 -0.1221  0.0838  0.1526
  992YOPC   GL213040   9.776  14.979   6.231 -0.4668 -0.5892 -0.0904
  992YOPC   C1A13041  10.106  14.719   6.542  0.1156  0.2161 -0.0647
  992YOPC   D2A13042   9.978  14.437   7.003 -0.2725  0.2360 -0.0854
  992YOPC   C3A13043  10.131  14.461   7.492  0.0422  0.1699  0.0265
  992YOPC   C4A13044  10.105  14.652   7.849 -0.2028 -0.0505 -0.0606
  992YOPC   C1B13045   9.609  15.176   6.581 -0.0684  0.0040 -0.0645
  992YOPC   C2B13046   9.405  15.235   7.010 -0.0595  0.1479  0.1720
  992YOPC   D3B13047   9.267  14.901   7.285  0.1440  0.2591  0.0950
  992YOPC   C4B13048   9.173  14.625   7.614  0.0237 -0.2706  0.2199
  993YOPC   NC313049  13.719   0.022   5.842  0.1401  0.2512 -0.2598
  993YOPC   PO413050  13.881   0.405   5.938 -0.2976  0.0815 -0.2299
  993YOPC   GL113051  14.065   0.156   6.341  0.0183  0.1393 -0.0208
  993YOPC   GL213052  14.014  -0.094   6.281  0.0436  0.2183 -0.3707
  993YOPC   C1A13053  14.217   0.133   6.780  0.1946 -0.0568  0.0838
  993YOPC   D2A13054  14.306   0.287   7.174  0.2338  0.1047 -0.1236
  993YOPC   C3A13055  14.447   0.095   7.620  0.1310 -0.2323 -0.1283
  993YOPC   C4A13056  14.627  -0.140   7.977  0.3666 -0.0183  0.3882
  993YOPC   C1B13057  13.852  -0.228   6.648  0.0572  0.0148  0.0249
  993YOPC   C2B13058  13.632  -0.402   6.965 -0.2955 -0.0266  0.0215
  993YOPC   D3B13059  13.832  -0.491   7.317 -0.3450 -0.1262  0.0728
  993YOPC   C4B13060  14.182  -0.313   7.629  0.2941 -0.2653 -0.2490
  994YOPC   NC313061   4.576   9.327   6.434 -0.0415 -0.0126  0.0223
  994YOPC   PO413062   4.240   9.300   6.155 -0.3743  0.3318 -0.0514
  994YOPC   GL113063   4.120   9.251   6.623  0.0790 -0.2837 -0.2059
  994YOPC   GL213064   4.098   9.047   6.767  0.0803  0.1722  0.2581
  994YOPC   C1A13065   3.930   9.228   7.151  0.0507  0.2539  0.0898
  994YOPC   D2A13066   3.721   9.377   7.488  0.2649  0.3586  0.1049
  994YOPC   C3A13067   3.862   9.515   7.772 -0.0474 -0.3645 -0.0886
  994YOPC   C4A13068   4.011   9.374   8.074 -0.0993 -0.1375 -0.3417
  994YOPC   C1B13069   4.370   9.001   7.095 -0.0675  0.0313  0.0568
  994YOPC   C2B13070   4.689   9.056   7.384  0.1242  0.1659  0.0539
  994YOPC   D3B13071   4.765   9.299   7.776 -0.0516  0.1628 -0.2462
  994YOPC   C4B13072   4.835   9.434   8.181 -0.2061 -0.2008  0.0443
  995YOPC   NC313073   5.065   8.705   6.310 -0.2101  0.0097 -0.0553
  995YOPC   PO413074   4.939   9.089   6.222 -0.0473  0.1007 -0.2091
  995YOPC   GL113075   5.040   9.185   6.591  0.1038 -0.0245 -0.1873
  995YOPC   GL213076   5.189   9.454   6.614  0.0665 -0.0315 -0.1205
  995YOPC   C1A13077   5.028   9.234   7.024  0.4314 -0.0961  0.0808
  995YOPC   D2A13078   5.189   9.414   7.348  0.0864  0.0250  0.0273
  995YOPC   C3A13079   5.309   9.788   7.224 -0.1380  0.2244 -0.3097
  995YOPC   C4A13080   5.591  10.127   6.955  0.3439 -0.0506  0.2380
  995YOPC   C1B13081   5.599   9.351   7.012  0.2628  0.0931  0.3031
  995YOPC   C2B13082   5.660   9.288   7.462 -0.2550  0.2970 -0.0179
  995YOPC   D3B13083   5.661   9.705   7.613  0.0066  0.1188  0.1667
  995YOPC   C4B13084   6.071   9.946   7.601 -0.1108  0.0585 -0.1818
  996YOPC   NC313085  17.535  13.315   5.659 -0.3525 -0.1970  0.2750
  996YOPC   PO413086  17.826  13.378   5.916  0.0590 -0.0701  0.2862
  996YOPC   GL113087  17.991  13.737   6.058 -0.1496 -0.0310 -0.1691
  996YOPC   GL213088  17.810  13.801   6.298  0.2080  0.2083 -0.3084
  996YOPC   C1A13089  18.274  14.067   6.193  0.0250  0.2134  0.1938
  996YOPC   D2A13090  18.630  14.280   6.402 -0.1534 -0.0452  0.2923
  996YOPC   C3A13091  18.750  14.220   6.857  0.2391  0.2071  0.1468
  996YOPC   C4A13092  18.607  13.901   7.114  0.0371  0.1313 -0.0883
  996YOPC   C1B13093  17.842  13.773   6.697 -0.1611  0.3728  0.2702
  996YOPC   C2B13094  17.736  14.085   7.121 -0.1332 -0.0539 -0.2896
  996YOPC   D3B13095  17.414  13.878   7.355  0.0788  0.2901 -0.0879
  996YOPC   C4B13096  16.979  13.970   7.473 -0.0261  0.1203 -0.3172
  997YOPC   NC313097   3.629   2.422   5.467  0.1694 -0.3821  0.1900
  997YOPC   PO413098   3.390   2.399   5.092  0.2958  0.1225 -0.3491
  997YOPC   GL113099   3.159   2.376   5.394 -0.0995  0.3377  0.1038
  997YOPC   GL213100   3.277   2.673   5.608 -0.0674  0.1824 -0.0523
  997YOPC   C1A13101   2.841   2.366   5.795 -0.0791  0.2229  0.0154
  997YOPC   D2A13102   2.700   2.445   6.195 -0.0216 -0.1850  0.1463
  997YOPC   C3A13103   2.636   2.152   6.539  0.1201  0.0119 -0.2593
  997YOPC   C4A13104   2.673   1.693   6.533  0.3115 -0.1142  0.0262
  997YOPC   C1B13105   3.058   2.798   6.039  0.2673 -0.0211  0.2237
  997YOPC   C2B13106   2.906   2.848   6.473  0.3383  0.2490 -0.1474
  997YOPC   D3B13107   2.825   2.504   6.838 -0.2308  0.1219  0.0322
  997YOPC   C4B13108   2.648   2.192   7.056  0.0457 -0.0991 -0.0309
  998YOPC   NC313109  14.966  14.516   5.588  0.0461 -0.3465  0.1396
  998YOPC   PO413110  14.774  14.803   5.328 -0.0535  0.0844  0.2466
  998YOPC   GL113111  14.805  15.010   5.698 -0.0808 -0.2475  0.2442
  998YOPC   GL213112  14.961  15.207   5.721  0.0322 -0.3353  0.1589
  998YOPC   C1A13113  14.530  14.982   6.097  0.0363 -0.1114 -0.1346
  998YOPC   D2A13114  14.238  14.801   6.471 -0.2237  0.0287  0.2649
  998YOPC   C3A13115  14.201  14.887   6.870 -0.0894 -0.1085  0.1988
  998YOPC   C4A13116  14.032  14.970   7.205  0.0105  0.0836  0.0189
  998YOPC   C1B13117  14.985  15.292   6.168 -0.0442  0.2239  0.0885
  998YOPC   C2B13118  15.245  15.046   6.311  0.2736 -0.1684  0.0836
  998YOPC   D3B13119  15.441  15.008   6.667  0.1678 -0.0022  0.1109
  998YOPC   C4B13120  15.621  14.895   7.105  0.0958  0.4060 -0.1330
  999YOPC   NC313121  16.705  15.732   4.796  0.1076 -0.0169 -0.1192
  999YOPC   PO413122  16.436  15.718   5.196  0.0649  0.1285 -0.2273
  999YOPC   GL113123  16.609  15.689   5.617  0.1778 -0.2489 -0.0280
  999YOPC   GL213124  16.729  15.925   5.779  0.0196 -0.1219 -0.0387
  999YOPC   C1A13125  16.530  15.605   6.142  0.2197  0.0006  0.0030
  999YOPC   D2A13126  16.524  15.283   6.443  0.1443  0.1639  0.0863
  999YOPC   C3A13127  16.460  14.926   6.698  0.0908  0.0198  0.3455
  999YOPC   C4A13128  16.583  14.900   7.088  0.0004  0.1810 -0.2729
  999YOPC   C1B13129  16.914  15.998   6.297 -0.1595  0.1067 -0.0552
  999YOPC   C2B13130  16.969  15.846   6.735  0.3217  0.4101 -0.1241
  999YOPC   D3B13131  16.751  15.779   7.146  0.0073 -0.0305  0.1300
  999YOPC   C4B13132  16.635  15.387   7.430  0.2051  0.1140  0.0573
 1000YOPC   NC313133  10.612   8.034   6.114  0.1099  0.0040 -0.2615
 1000YOPC   PO413134  11.039   8.200   6.112  0.1796  0.3857 -0.0187
 1000YOPC   GL113135  10.938   8.522   6.467 -0.3747  0.0315 -0.2310
 1000YOPC   GL213136  11.003   8.774   6.304 -0.0379 -0.3004 -0.1766
 1000YOPC   C1A13137  10.941   8.755   6.861 -0.1437  0.1634  0.0003
 1000YOPC   D2A13138  10.876   9.037   6.945  0.1227 -0.0092 -0.2178
 1000YOPC   C3A13139  11.200   9.410   6.878  0.2781 -0.4494 -0.1235
 1000YOPC   C4A13140  11.245   9.623   6.590 -0.3365 -0.1408  0.1537
 1000YOPC   C1B13141  11.263   9.051   6.551  0.2349  0.1719  0.0815
 1000YOPC   C2B13142  11.402   8.960   6.942  0.1789  0.1611  0.2202
 1000YOPC   D3B13143  11.358   9.141   7.371  0.0287 -0.2231 -0.0346
 1000YOPC   C4B13144  11.411   9.514   7.651 -0.1850  0.0573  0.0970
 1001YOPC   NC313145  17.405  15.122   5.038 -0.0682  0.1362 -0.1593
 1001YOPC   PO413146  17.461  15.355   5.321 -0.2892 -0.1998  0.0676
 1001YOPC   GL113147  17.596  15.126   5.670  0.2032  0.2492  0.0354
 1001YOPC   GL213148  17.902  15.071   5.776 -0.3299 -0.5381 -0.1415
 1001YOPC   C1A13149  17.442  15.216   6.104 -0.3804 -0.1494  0.2055
 1001YOPC   D2A13150  17.368  14.915   6.427  0.0218  0.2086  0.0560
 1001YOPC   C3A13151  17.705  14.827   6.619  0.0045 -0.0336  0.2523
 1001YOPC   C4A13152  18.135  14.980   6.745  0.1355 -0.1155  0.1145
 1001YOPC   C1B13153  17.933  15.161   6.287  0.1729 -0.3070  0.0021
 1001YOPC   C2B13154  17.828  15.350   6.690  0.1199 -0.1465  0.4395
 1001YOPC   D3B13155  17.626  15.166   7.017 -0.1110  0.6006  0.0396
 1001YOPC   C4B13156  17.533  15.122   7.508 -0.0725 -0.0385  0.1317
 1002YOPC   NC313157   0.572  10.451   6.266  0.0213 -0.0853 -0.1074
 1002YOPC   PO413158   1.047  10.300   6.224 -0.0970 -0.0594  0.0414
 1002YOPC   GL113159   0.955  10.224   6.712 -0.2628 -0.2872  0.0338
 1002YOPC   GL213160   0.645  10.152   6.767  0.0637 -0.0419  0.1990
 1002YOPC   C1A13161   1.015  10.296   7.139 -0.0775  0.2824  0.0461
 1002YOPC   D2A13162   1.337  10.415   7.505 -0.3538  0.2941  0.3073
 1002YOPC   C3A13163   1.687  10.504   7.387  0.3156  0.1803  0.2131
 1002YOPC   C4A13164   2.009  10.513   7.421 -0.3388 -0.3100 -0.4789
 1002YOPC   C1B13165   0.555  10.182   7.258 -0.1862  0.1054  0.3286
 1002YOPC   C2B13166   0.711  10.125   7.623 -0.1588 -0.2764 -0.0830
 1002YOPC   D3B13167   0.384  10.324   7.902 -0.0738 -0.1711 -0.2935
 1002YOPC   C4B13168   0.014  10.584   8.072  0.3773  0.0210 -0.1987
 1003YOPC   NC313169   7.175   4.142   5.796  0.2395 -0.0522  0.2505
 1003YOPC   PO413170   7.453   3.885   6.088  0.3193 -0.0063 -0.2701
 1003YOPC   GL113171   7.507   4.133   6.509 -0.3516  0.2027  0.0751
 1003YOPC   GL213172   7.825   3.937   6.529  0.0538 -0.1891  0.1906
 1003YOPC   C1A13173   7.421   4.317   6.894  0.2951  0.1597 -0.0096
 1003YOPC   D2A13174   7.365   4.287   7.326 -0.0910  0.2511 -0.0973
 1003YOPC   C3A13175   7.349   3.878   7.594 -0.3651 -0.0131  0.0889
 1003YOPC   C4A13176   7.132   3.746   7.939 -0.1808 -0.1358  0.1982
 1003YOPC   C1B13177   7.667   3.795   6.886  0.0286  0.0831 -0.1051
 1003YOPC   C2B13178   7.727   3.810   7.267  0.1419  0.1567 -0.3056
 1003YOPC   D3B13179   7.631   3.472   7.621  0.2507 -0.1717  0.1770
 1003YOPC   C4B13180   7.369   3.315   7.947 -0.2488 -0.1162 -0.0093
 1004YOPC   NC313181   0.225  12.733   5.626 -0.0356 -0.1348  0.2183
 1004YOPC   PO413182  -0.110  12.553   5.606 -0.0549 -0.2536  0.1472
 1004YOPC   GL113183  -0.053  12.526   5.956  0.4312  0.0640 -0.2883
 1004YOPC   GL213184  -0.427  12.482   6.028 -0.0859  0.0363 -0.0073
 1004YOPC   C1A13185   0.073  12.718   6.335 -0.1374 -0.0236  0.0629
 1004YOPC   D2A13186   0.043  12.691   6.749  0.1046 -0.4112 -0.2139
 1004YOPC   C3A13187  -0.113  12.496   7.088 -0.0144 -0.0773  0.3875
 1004YOPC   C4A13188  -0.286  12.522   7.562 -0.1334 -0.3041 -0.2555
 1004YOPC   C1B13189  -0.373  12.877   6.334  0.0761  0.0446  0.1000
 1004YOPC   C2B13190  -0.393  13.333   6.374  0.2567 -0.0439  0.1452
 1004YOPC   D3B13191  -0.179  13.645   6.414  0.3692 -0.0540 -0.0731
 1004YOPC   C4B13192  -0.213  14.058   6.686 -0.2291 -0.1157 -0.1439
 1005YOPC   NC313193   9.096  16.690   5.709 -0.2726  0.0402 -0.0868
 1005YOPC   PO413194   9.290  16.253   5.654  0.2429  0.0499  0.0238
 1005YOPC   GL113195   9.395  16.365   6.081  0.1524  0.0212  0.4810
 1005YOPC   GL213196   9.628  16.633   6.071  0.0892 -0.3252  0.0222
 1005YOPC   C1A13197   9.575  16.334   6.476 -0.3553  0.2152 -0.2704
 1005YOPC   D2A13198   9.365  16.080   6.731 -0.1333 -0.0225 -0.2384
 1005YOPC   C3A13199   9.376  16.128   7.107 -0.0462  0.2221  0.0751
 1005YOPC   C4A13200   9.371  15.918   7.545  0.3076 -0.0374  0.0583
 1005YOPC   C1B13201   9.514  16.812   6.376 -0.0052  0.0124 -0.0976
 1005YOPC   C2B13202   9.596  16.892   6.802  0.1706 -0.3756 -0.0277
 1005YOPC   D3B13203   9.383  16.884   7.257  0.2349 -0.0330  0.3150
 1005YOPC   C4B13204   9.526  16.456   7.440  0.0730 -0.0690 -0.3080
 1006YOPC   NC313205   3.039  16.706   4.779  0.0590  0.0921  0.0324
 1006YOPC   PO413206   2.576  16.535   5.084  0.1592 -0.1657 -0.2921
 1006YOPC   GL113207   2.861  16.416   5.373 -0.0318 -0.2537 -0.0550
 1006YOPC   GL213208   2.635  16.456   5.637 -0.3072  0.1082 -0.4560
 1006YOPC   C1A13209   3.145  16.376   5.684 -0.2274  0.1717 -0.2053
 1006YOPC   D2A13210   3.285  16.701   5.957 -0.0166 -0.0926 -0.0678
 1006YOPC   C3A13211   3.343  16.622   6.310  0.3895  0.2801  0.0204
 1006YOPC   C4A13212   3.213  16.688   6.812  0.1484  0.2128 -0.2354
 1006YOPC   C1B13213   2.397  16.355   5.951  0.0697  0.2753 -0.3474
 1006YOPC   C2B13214   2.465  16.201   6.414 -0.4366 -0.1508 -0.0137
 1006YOPC   D3B13215   2.209  16.137   6.728  0.0518 -0.2169  0.1720
 1006YOPC   C4B13216   2.050  15.920   7.142  0.0501 -0.1906 -0.0567
 1007YOPC   NC313217  16.942   5.870   6.103  0.0802  0.1117 -0.0948
 1007YOPC   PO413218  16.668   5.699   6.284  0.1098 -0.1388  0.0186
 1007YOPC   GL113219  16.621   5.521   6.632 -0.0827  0.0208 -0.1704
 1007YOPC   GL213220  16.609   5.178   6.644  0.3875 -0.1075  0.0263
 1007YOPC   C1A13221  16.774   5.396   7.074 -0.0689 -0.0344  0.0648
 1007YOPC   D2A13222  16.541   5.232   7.419 -0.0063  0.0536 -0.0716
 1007YOPC   C3A13223  16.593   5.431   7.753  0.0670 -0.3783  0.1437
 1007YOPC   C4A13224  16.746   5.692   8.057  0.0329  0.1700 -0.0905
 1007YOPC   C1B13225  16.756   4.907   6.995  0.0866 -0.0888  0.1828
 1007YOPC   C2B13226  16.637   4.706   7.406  0.1629  0.1550 -0.1312
 1007YOPC   D3B13227  16.933   4.439   7.572  0.0218 -0.2228 -0.0080
 1007YOPC   C4B13228  16.926   4.352   8.090 -0.0382  0.1275  0.1423
 1008YOPC   NC313229  10.551   6.640   6.173 -0.2087  0.3849 -0.3171
 1008YOPC   PO413230  10.178   6.731   6.525 -0.0195 -0.0093  0.2488
 1008YOPC   GL113231   9.860   6.867   6.828  0.0542 -0.1901  0.1738
 1008YOPC   GL213232  10.055   7.202   6.976  0.1348  0.0755 -0.2020
 1008YOPC   C1A13233   9.734   6.667   7.166 -0.2286  0.2730  0.1588
 1008YOPC   D2A13234   9.599   6.427   7.556  0.1031 -0.0892  0.1243
 1008YOPC   C3A13235   9.687   6.508   7.999  0.2129 -0.3436 -0.2855
 1008YOPC   C4A13236   9.826   6.776   8.336 -0.2589  0.1634  0.1392
 1008YOPC   C1B13237  10.098   6.941   7.372 -0.2073 -0.3391  0.2691
 1008YOPC   C2B13238  10.060   6.764   7.697  0.0391  0.1427 -0.0753
 1008YOPC   D3B13239  10.225   6.517   8.075 -0.0009 -0.0507  0.1347
 1008YOPC   C4B13240   9.888   6.278   8.365  0.2726  0.0046 -0.1968
 1009YOPC   NC313241   0.876  12.212   5.509 -0.1426  0.4655  0.1033
 1009YOPC   PO413242   0.766  12.660   5.549  0.0471 -0.2827 -0.2439
 1009YOPC   GL113243   0.639  12.836   5.916  0.1543  0.0225  0.1174
 1009YOPC   GL213244   0.338  13.164   5.903 -0.1284  0.8367  0.4767
 1009YOPC   C1A13245   0.481  12.958   6.405 -0.1829  0.2650 -0.4033
 1009YOPC   D2A13246   0.569  13.147   6.761  0.1321  0.2423  0.0980
 1009YOPC   C3A13247   0.717  12.876   7.074 -0.0584 -0.0859 -0.0463
 1009YOPC   C4A13248   1.019  12.689   7.329 -0.3058  0.0686 -0.0099
 1009YOPC   C1B13249   0.061  13.195   6.281  0.0160  0.3434  0.1885
 1009YOPC   C2B13250   0.057  13.219   6.700  0.0495 -0.3575  0.1646
 1009YOPC   D3B13251  -0.142  13.535   6.873  0.1983  0.0241 -0.2836
 1009YOPC   C4B13252  -0.388  13.752   7.075  0.0903 -0.0710 -0.3482
 1010YOPC   NC313253  16.699   0.263   5.421 -0.2817 -0.1384 -0.0431
 1010YOPC   PO413254  17.019   0.107   5.260 -0.1518 -0.2235 -0.2856
 1010YOPC   GL113255  17.123   0.305   5.667  0.0545  0.3682  0.0060
 1010YOPC   GL213256  17.005   0.605   5.815  0.0268 -0.1273 -0.5717
 1010YOPC   C1A13257  17.056   0.007   6.028  0.5341 -0.1697  0.2272
 1010YOPC   D2A13258  17.211  -0.102   6.477 -0.0079  0.1399 -0.0694
 1010YOPC   C3A13259  17.187   0.157   6.844 -0.2851  0.0172 -0.1144
 1010YOPC   C4A13260  17.254   0.395   7.311  0.0064 -0.0726  0.1497
 1010YOPC   C1B13261  16.615   0.376   6.021 -0.1224 -0.0502  0.0045
 1010YOPC   C2B13262  16.487   0.020   6.301 -0.1546  0.2306  0.0576
 1010YOPC   D3B13263  16.701   0.110   6.681 -0.0724  0.0845  0.1149
 1010YOPC   C4B13264  16.694   0.451   6.967  0.0321  0.1090 -0.0161
 1011YOPC   NC313265  10.395   9.881   5.635 -0.0844 -0.1419 -0.1664
 1011YOPC   PO413266  10.653  10.194   5.665 -0.1593 -0.6160  0.0116
 1011YOPC   GL113267  10.426  10.486   5.911  0.0322 -0.0427  0.0117
 1011YOPC   GL213268  10.196  10.637   6.006  0.0185 -0.2445  0.0407
 1011YOPC   C1A13269  10.612  10.645   6.318 -0.1687 -0.1623 -0.1052
 1011YOPC   D2A13270  10.783  10.905   6.640 -0.2419  0.0122 -0.2621
 1011YOPC   C3A13271  10.596  11.000   6.944 -0.1224 -0.2083  0.1659
 1011YOPC   C4A13272  10.664  11.217   7.253 -0.0069 -0.1270 -0.3135
 1011YOPC   C1B13273  10.159  10.480   6.430  0.0282 -0.1947  0.2473
 1011YOPC   C2B13274   9.987  10.410   6.793  0.1294  0.0051 -0.0591
 1011YOPC   D3B13275  10.117  10.603   7.114 -0.0209 -0.1557  0.1208
 1011YOPC   C4B13276  10.425  10.621   7.354  0.2026 -0.0067  0.1076
 1012YOPC   NC313277  10.617   2.707   6.120  0.1580  0.0465 -0.1536
 1012YOPC   PO413278  11.004   2.972   6.210  0.1752 -0.0445  0.1342
 1012YOPC   GL113279  11.013   3.070   6.600 -0.0460 -0.2220 -0.1081
 1012YOPC   GL213280  10.753   3.365   6.772 -0.2528 -0.1806 -0.2691
 1012YOPC   C1A13281  10.901   2.917   6.967 -0.3318 -0.4287 -0.0903
 1012YOPC   D2A13282  11.164   2.723   7.333  0.0001 -0.0267 -0.1822
 1012YOPC   C3A13283  11.066   2.396   7.558 -0.2007  0.0268 -0.1177
 1012YOPC   C4A13284  10.893   2.013   7.760 -0.0115  0.0464 -0.1964
 1012YOPC   C1B13285  10.482   3.514   7.049 -0.0543  0.0597 -0.4121
 1012YOPC   C2B13286  10.372   3.681   7.365  0.1096 -0.1280  0.2428
 1012YOPC   D3B13287  10.236   3.620   7.735  0.1521 -0.0153 -0.0201
 1012YOPC   C4B13288  10.276   3.347   8.075  0.3303  0.0909 -0.1949
 1013YOPC   NC313289  15.803   1.902   5.959  0.0452 -0.0247  0.1047
 1013YOPC   PO413290  15.631   1.562   5.710  0.0413  0.0416 -0.2774
 1013YOPC   GL113291  15.625   1.403   6.107 -0.2845 -0.5894 -0.0016
 1013YOPC   GL213292  15.294   1.194   6.199  0.1907  0.1090  0.1827
 1013YOPC   C1A13293  15.603   1.547   6.561 -0.1004  0.0201  0.2936
 1013YOPC   D2A13294  15.555   1.604   6.884 -0.1638  0.1570 -0.2200
 1013YOPC   C3A13295  15.679   1.351   7.250 -0.0026  0.1782 -0.1955
 1013YOPC   C4A13296  15.562   0.951   7.497 -0.2950 -0.0463  0.4414
 1013YOPC   C1B13297  15.333   1.125   6.601  0.1291 -0.2396 -0.3176
 1013YOPC   C2B13298  15.423   0.954   7.007  0.1690 -0.1892 -0.0524
 1013YOPC   D3B13299  15.150   1.071   7.261  0.1498 -0.0338  0.0998
 1013YOPC   C4B13300  15.339   1.333   7.650 -0.1480  0.0666 -0.3274
 1014YOPC   NC313301   8.459   3.296   6.104 -0.2383 -0.1292  0.0128
 1014YOPC   PO413302   8.457   3.020   6.340  0.0346  0.0291  0.1628
 1014YOPC   GL113303   8.857   2.932   6.469  0.2393  0.0862 -0.1633
 1014YOPC   GL213304   8.889   3.058   6.761  0.1076  0.0898 -0.0903
 1014YOPC   C1A13305   9.058   2.525   6.499 -0.4934  0.2210 -0.2226
 1014YOPC   D2A13306   9.037   2.286   6.864  0.0591 -0.2252 -0.0953
 1014YOPC   C3A13307   9.416   2.132   7.028  0.0025 -0.0445 -0.2358
 1014YOPC   C4A13308   9.832   2.337   7.156  0.3461  0.0084 -0.0772
 1014YOPC   C1B13309   8.917   2.830   7.106  0.2538 -0.3855  0.0451
 1014YOPC   C2B13310   9.008   2.608   7.422  0.1471 -0.0783 -0.0839
 1014YOPC   D3B13311   9.007   2.149   7.417 -0.4115  0.1398 -0.0308
 1014YOPC   C4B13312   8.883   1.883   7.584 -0.3492 -0.3899 -0.1317
 1015YOPC   NC313313   6.307   4.414   5.475 -0.3114 -0.1177 -0.1340
 1015YOPC   PO413314   6.322   4.045   5.651  0.0070 -0.0876  0.2550
 1015YOPC   GL113315   6.045   3.842   6.028 -0.2080  0.0031  0.2960
 1015YOPC   GL213316   6.263   3.882   6.380  0.2504  0.0491 -0.0605
 1015YOPC   C1A13317   5.839   3.676   6.490 -0.1850 -0.1552  0.1107
 1015YOPC   D2A13318   5.693   3.379   6.778 -0.1954 -0.1132  0.1981
 1015YOPC   C3A13319   5.828   3.592   7.218  0.2814  0.0531 -0.1765
 1015YOPC   C4A13320   5.793   3.874   7.621 -0.3054  0.0052 -0.0729
 1015YOPC   C1B13321   6.455   4.038   6.715  0.1647  0.0023  0.1292
 1015YOPC   C2B13322   6.467   4.152   7.162  0.0875 -0.0909 -0.0743
 1015YOPC   D3B13323   6.305   3.808   7.477  0.0238  0.2712  0.4170
 1015YOPC   C4B13324   6.245   3.399   7.467 -0.3032  0.0225  0.2090
 1016YOPC   NC313325  12.954   5.694   6.275 -0.1332 -0.1998  0.2273
 1016YOPC   PO413326  13.146   5.320   6.042 -0.1379 -0.0042 -0.0268
 1016YOPC   GL113327  13.196   5.283   6.513  0.1442  0.1716 -0.1861
 1016YOPC   GL213328  13.331   5.435   6.730  0.0065  0.1375 -0.1016
 1016YOPC   C1A13329  13.412   4.965   6.754 -0.3362 -0.2107  0.0360
 1016YOPC   D2A13330  13.583   4.623   7.008  0.0147 -0.0832  0.1838
 1016YOPC   C3A13331  13.959   4.743   7.255  0.0737 -0.2512 -0.0722
 1016YOPC   C4A13332  13.866   4.790   7.675 -0.0893  0.0388  0.0675
 1016YOPC   C1B13333  13.123   5.433   7.164  0.1912 -0.1305 -0.1961
 1016YOPC   C2B13334  13.051   5.452   7.634  0.0150  0.3070  0.0499
 1016YOPC   D3B13335  12.973   5.267   8.038  0.0778  0.0719 -0.2580
 1016YOPC   C4B13336  12.953   5.283   8.432  0.1829 -0.1656 -0.1023
 1017YOPC   NC313337   4.528   2.305   5.182  0.1044  0.1013 -0.0141
 1017YOPC   PO413338   4.718   2.644   5.349  0.1388  0.3986 -0.2464
 1017YOPC   GL113339   4.826   2.614   5.663  0.0865  0.2609  0.1985
 1017YOPC   GL213340   4.711   2.369   5.859  0.0533  0.3624 -0.1297
 1017YOPC   C1A13341   5.000   2.731   6.137 -0.1107 -0.2498 -0.1127
 1017YOPC   D2A13342   5.057   3.022   6.573  0.0763 -0.4659 -0.0912
 1017YOPC   C3A13343   4.728   2.867   6.851 -0.0298  0.1751 -0.4919
 1017YOPC   C4A13344   4.336   2.698   6.909  0.1348  0.3399 -0.0784
 1017YOPC   C1B13345   4.828   2.024   6.179 -0.2257  0.1949  0.2807
 1017YOPC   C2B13346   4.650   1.741   6.417  0.0547  0.0496  0.2867
 1017YOPC   D3B13347   4.729   1.950   6.857  0.1533  0.1746  0.0693
 1017YOPC   C4B13348   4.736   2.357   7.092 -0.4243  0.3013 -0.2161
 1018YOPC   NC313349   9.867   3.272   5.560 -0.0993  0.3130  0.1549
 1018YOPC   PO413350  10.120   3.499   5.860  0.4898  0.1168  0.0602
 1018YOPC   GL113351  10.124   3.527   6.336 -0.0726  0.0308  0.2176
 1018YOPC   GL213352  10.234   3.308   6.606 -0.0898 -0.4228  0.0735
 1018YOPC   C1A13353  10.213   3.793   6.687 -0.0071  0.1418 -0.0948
 1018YOPC   D2A13354  10.420   4.028   6.940  0.0465 -0.0274 -0.0541
 1018YOPC   C3A13355  10.933   3.933   6.932  0.0609 -0.0711  0.0485
 1018YOPC   C4A13356  11.332   4.075   6.994  0.1435 -0.3050 -0.0022
 1018YOPC   C1B13357  10.338   3.047   6.995 -0.2573 -0.3399 -0.2739
 1018YOPC   C2B13358  10.645   3.154   7.302 -0.1254 -0.0570 -0.1170
 1018YOPC   D3B13359  10.675   3.108   7.732 -0.1810 -0.3395 -0.2822
 1018YOPC   C4B13360  10.746   3.067   8.120  0.0003  0.0658 -0.0479
 1019YOPC   NC313361   6.087   3.357   5.912  0.0159  0.0890 -0.2879
 1019YOPC   PO413362   6.480   3.529   6.096 -0.0500  0.0944  0.0039
 1019YOPC   GL113363   6.670   3.508   6.368  0.3586 -0.2609 -0.0845
 1019YOPC   GL213364   6.965   3.426   6.324  0.2553 -0.3418  0.1879
 1019YOPC   C1A13365   6.757   3.392   6.859 -0.2664 -0.1692 -0.0264
 1019YOPC   D2A13366   6.944   3.137   7.277  0.1935 -0.3655 -0.1311
 1019YOPC   C3A13367   6.749   2.823   7.463  0.1354 -0.2755 -0.2063
 1019YOPC   C4A13368   6.272   2.868   7.660 -0.2751 -0.1618  0.1242
 1019YOPC   C1B13369   6.900   3.075   6.547  0.3680  0.4334 -0.0357
 1019YOPC   C2B13370   6.699   2.821   6.890  0.0019 -0.0960  0.0639
 1019YOPC   D3B13371   6.351   3.059   7.134  0.0196 -0.0928 -0.0739
 1019YOPC   C4B13372   5.970   3.139   7.127 -0.0282 -0.0732  0.0675
 1020YOPC   NC313373   2.340  13.555   5.266 -0.1633  0.2007  0.1279
 1020YOPC   PO413374   2.498  13.244   5.500 -0.2043  0.0457  0.1978
 1020YOPC   GL113375   2.591  13.476   5.930 -0.1306  0.3324  0.4588
 1020YOPC   GL213376   2.897  13.596   5.985  0.1028 -0.1348 -0.0244
 1020YOPC   C1A13377   2.354  13.474   6.360 -0.0927 -0.1094  0.2634
 1020YOPC   D2A13378   2.336  13.524   6.809 -0.0086  0.1041 -0.1334
 1020YOPC   C3A13379   2.238  13.697   7.254 -0.2431 -0.0682  0.0309
 1020YOPC   C4A13380   1.941  13.902   7.490  0.0847 -0.1724 -0.1679
 1020YOPC   C1B13381   2.921  13.514   6.400  0.1650 -0.4031  0.0996
 1020YOPC   C2B13382   3.005  13.520   6.888 -0.0713  0.0625  0.2485
 1020YOPC   D3B13383   2.753  13.621   7.165  0.0317  0.1707 -0.0152
 1020YOPC   C4B13384   2.629  13.866   7.600 -0.2462 -0.0591  0.2166
 1021YOPC   NC313385  15.765  17.767   5.401 -0.3213 -0.2236  0.1891
 1021YOPC   PO413386  16.088  17.805   5.553 -0.2475 -0.2427  0.0434
 1021YOPC   GL113387  16.182  17.825   5.927 -0.1441 -0.3765 -0.0376
 1021YOPC   GL213388  16.513  18.032   6.065 -0.0390  0.2424  0.1899
 1021YOPC   C1A13389  16.241  17.895   6.456 -0.1061 -0.0164 -0.3864
 1021YOPC   D2A13390  16.095  17.889   6.904 -0.2036 -0.2932 -0.3266
 1021YOPC   C3A13391  16.401  17.693   7.263  0.1966 -0.0961 -0.0821
 1021YOPC   C4A13392  16.766  17.514   7.501  0.0556 -0.0832 -0.2083
 1021YOPC   C1B13393  16.909  18.065   6.360 -0.1909 -0.1368 -0.0190
 1021YOPC   C2B13394  17.281  17.900   6.706  0.1476  0.0190 -0.0992
 1021YOPC   D3B13395  17.125  18.148   6.998  0.2240 -0.3768  0.2314
 1021YOPC   C4B13396  16.980  18.430   7.219  0.0437  0.0286 -0.2563
 1022YOPC   NC313397   5.375  15.345   5.339  0.6194 -0.0827 -0.1593
 1022YOPC   PO413398   5.718  15.595   5.444 -0.1851 -0.1759  0.0788
 1022YOPC   GL113399   5.591  15.636   5.777  0.5241 -0.3164 -0.1065
 1022YOPC   GL213400   5.824  15.644   5.980 -0.1723 -0.2915  0.1790
 1022YOPC   C1A13401   5.370  15.451   6.171  0.0848 -0.1036 -0.0701
 1022YOPC   D2A13402   5.041  15.108   6.185  0.0690 -0.1205 -0.0083
 1022YOPC   C3A13403   4.928  15.085   6.657  0.0111 -0.0281  0.1707
 1022YOPC   C4A13404   4.809  15.059   7.084  0.1752 -0.0993 -0.0787
 1022YOPC   C1B13405   5.852  15.371   6.371 -0.0847  0.1138  0.1263
 1022YOPC   C2B13406   6.019  15.114   6.647  0.3295  0.0868 -0.1945
 1022YOPC   D3B13407   6.146  15.150   7.223  0.1111 -0.0211 -0.0777
 1022YOPC   C4B13408   6.163  14.806   7.435 -0.1084  0.4120  0.1629
 1023YOPC   NC313409  12.688  17.630   6.021 -0.0388  0.5750 -0.2840
 1023YOPC   PO413410  13.038  17.773   5.892 -0.0547 -0.0453 -0.0587
 1023YOPC   GL113411  13.048  17.719   6.301 -0.2080 -0.0309 -0.1520
 1023YOPC   GL213412  13.201  18.070   6.365  0.0620 -0.1084  0.0901
 1023YOPC   C1A13413  12.848  17.396   6.659 -0.0464  0.0227  0.2036
 1023YOPC   D2A13414  13.088  17.216   7.057 -0.4539 -0.3540 -0.0776
 1023YOPC   C3A13415  12.991  17.304   7.455 -0.3961  0.0435  0.3080
 1023YOPC   C4A13416  12.996  16.963   7.718 -0.1293  0.2088 -0.0520
 1023YOPC   C1B13417  13.091  17.972   6.712 -0.1675  0.0568  0.2499
 1023YOPC   C2B13418  12.921  17.720   7.043  0.1931 -0.3188  0.3339
 1023YOPC   D3B13419  12.540  17.876   7.262  0.1454  0.0855  0.1509
 1023YOPC   C4B13420  12.136  17.983   7.181 -0.3470  0.0902  0.1676
 1024YOPC   NC313421  10.481  15.069   5.290 -0.0537 -0.2562  0.1752
 1024YOPC   PO413422  10.868  14.754   5.419 -0.2406  0.0351  0.3091
 1024YOPC   GL113423  11.040  14.756   5.859  0.0028 -0.1081 -0.0808
 1024YOPC   GL213424  11.145  15.052   6.117  0.2388  0.1917  0.0005
 1024YOPC   C1A13425  10.912  14.613   6.339  0.1557 -0.0394  0.1864
 1024YOPC   D2A13426  10.986  14.445   6.661 -0.0960 -0.1249 -0.0746
 1024YOPC   C3A13427  11.325  14.618   7.066 -0.1285 -0.1516  0.2005
 1024YOPC   C4A13428  11.601  14.582   7.414 -0.0797 -0.0326  0.1652
 1024YOPC   C1B13429  11.142  15.019   6.568  0.0287  0.2546 -0.2607
 1024YOPC   C2B13430  10.950  14.874   6.906 -0.1486 -0.0188  0.2385
 1024YOPC   D3B13431  10.863  14.547   7.156  0.1258 -0.0229 -0.4998
 1024YOPC   C4B13432  11.044  14.462   7.534 -0.0075  0.2237  0.0013
 1025YOPC   NC313433   7.922   1.435   5.790  0.0039 -0.1524  0.0932
 1025YOPC   PO413434   7.467   1.450   5.908  0.1630  0.0483 -0.0340
 1025YOPC   GL113435   7.642   1.272   6.256  0.0839 -0.1067 -0.0134
 1025YOPC   GL213436   7.512   1.495   6.445  0.1122  0.2481  0.1423
 1025YOPC   C1A13437   7.574   1.119   6.757  0.1234 -0.2609 -0.2429
 1025YOPC   D2A13438   7.335   1.294   7.088  0.2417  0.2504  0.0598
 1025YOPC   C3A13439   7.447   1.149   7.408  0.1050 -0.1337 -0.0009
 1025YOPC   C4A13440   7.661   1.145   7.706 -0.0717  0.4491  0.2135
 1025YOPC   C1B13441   7.390   1.665   6.808 -0.1216  0.0273 -0.2698
 1025YOPC   C2B13442   7.114   1.828   7.140 -0.1395 -0.0156 -0.0802
 1025YOPC   D3B13443   7.112   1.541   7.510 -0.1263  0.1755 -0.0580
 1025YOPC   C4B13444   7.125   1.212   7.853  0.1391 -0.3456 -0.2886
 1026YOPC   NC313445  16.050   4.215   5.963  0.0758 -0.1864 -0.3510
 1026YOPC   PO413446  15.946   3.927   6.237 -0.1698 -0.1156 -0.0789
 1026YOPC   GL113447  15.831   3.779   6.699 -0.2871  0.3541  0.1305
 1026YOPC   GL213448  15.892   3.496   6.558 -0.1772 -0.2966  0.3384
 1026YOPC   C1A13449  15.778   3.681   7.052 -0.6620 -0.2489 -0.1808
 1026YOPC   D2A13450  15.708   3.514   7.475  0.3129 -0.0769 -0.1450
 1026YOPC   C3A13451  15.610   3.784   7.856  0.1921 -0.0083  0.1642
 1026YOPC   C4A13452  15.233   3.860   7.928 -0.0758  0.1039  0.1063
 1026YOPC   C1B13453  16.117   3.370   6.885  0.1903  0.0607  0.1003
 1026YOPC   C2B13454  16.218   3.256   7.265 -0.1576 -0.1590  0.5015
 1026YOPC   D3B13455  16.272   2.894   7.373 -0.0029 -0.1051  0.2324
 1026YOPC   C4B13456  16.266   2.645   7.692 -0.1066  0.1890  0.0088
 1027YOPC   NC313457   8.561  12.175   5.830  0.2153 -0.0166  0.1173
 1027YOPC   PO413458   8.005  12.257   5.896  0.0003 -0.3676  0.0692
 1027YOPC   GL113459   7.884  12.042   6.290  0.3230  0.0703 -0.0114
 1027YOPC   GL213460   7.649  11.829   6.352  0.0762 -0.0919 -0.0296
 1027YOPC   C1A13461   8.127  11.774   6.652  0.2042  0.3988  0.1113
 1027YOPC   D2A13462   8.382  12.003   6.985 -0.0710  0.0053 -0.2253
 1027YOPC   C3A13463   8.726  12.314   6.874 -0.2762 -0.0132 -0.3423
 1027YOPC   C4A13464   8.957  12.580   7.064 -0.1329 -0.1164  0.1321
 1027YOPC   C1B13465   7.675  11.974   6.772  0.0368  0.1803 -0.1716
 1027YOPC   C2B13466   7.877  11.877   7.125  0.0392 -0.0388  0.2548
 1027YOPC   D3B13467   8.109  12.238   7.368 -0.0099  0.1039 -0.3420
 1027YOPC   C4B13468   8.391  12.573   7.338 -0.0901  0.3772 -0.2680
 1028YOPC   NC313469   6.965  17.125   5.422  0.1669 -0.3191  0.1692
 1028YOPC   PO413470   6.849  17.502   5.653 -0.3119 -0.1339  0.0584
 1028YOPC   GL113471   6.528  17.165   5.692  0.0746 -0.1788 -0.4154
 1028YOPC   GL213472   6.212  17.188   5.768 -0.0279 -0.0370 -0.0930
 1028YOPC   C1A13473   6.622  16.847   5.976  0.0798  0.0749 -0.0039
 1028YOPC   D2A13474   6.591  16.463   6.178 -0.1310  0.2442  0.1931
 1028YOPC   C3A13475   6.453  16.417   6.662 -0.1597  0.2182 -0.2487
 1028YOPC   C4A13476   6.757  16.602   6.938  0.0441  0.0975 -0.0313
 1028YOPC   C1B13477   6.086  17.171   6.144  0.0434  0.1219 -0.0140
 1028YOPC   C2B13478   5.773  17.287   6.304  0.2032  0.0248  0.0694
 1028YOPC   D3B13479   5.878  17.294   6.747  0.0566  0.1598 -0.1754
 1028YOPC   C4B13480   5.524  17.339   7.053 -0.1828 -0.0567  0.0962
 1029YOPC   NC313481   2.467  17.365   4.933  0.0196  0.1128 -0.2396
 1029YOPC   PO413482   2.806  17.167   5.027 -0.5601  0.1190  0.0890
 1029YOPC   GL113483   2.682  17.394   5.366  0.3830 -0.1018  0.0241
 1029YOPC   GL213484   2.918  17.376   5.526 -0.0311  0.1945 -0.0784
 1029YOPC   C1A13485   2.568  17.765   5.573  0.0941  0.0753 -0.0796
 1029YOPC   D2A13486   2.924  17.988   5.829 -0.0366  0.3563  0.1186
 1029YOPC   C3A13487   3.164  18.309   5.686 -0.0566 -0.1927  0.1790
 1029YOPC   C4A13488   3.370  18.624   5.510  0.2031 -0.1759 -0.0590
 1029YOPC   C1B13489   2.869  17.480   5.922  0.1103  0.1152 -0.1485
 1029YOPC   C2B13490   2.570  17.625   6.114 -0.1701  0.2907  0.0533
 1029YOPC   D3B13491   2.536  17.381   6.561  0.2006 -0.1552  0.1923
 1029YOPC   C4B13492   2.487  17.315   7.048 -0.3414  0.1445  0.0400
 1030YOPC   NC313493  14.434   0.532   5.528 -0.1990  0.3021  0.0388
 1030YOPC   PO413494  14.558   0.835   5.790 -0.2882  0.0048  0.0959
 1030YOPC   GL113495  14.380   0.851   6.129 -0.1681 -0.1797 -0.0441
 1030YOPC   GL213496  14.341   1.184   6.298 -0.3416 -0.1281  0.2907
 1030YOPC   C1A13497  14.203   0.671   6.472 -0.0851 -0.2595 -0.1209
 1030YOPC   D2A13498  13.908   0.726   6.734 -0.0618  0.0548  0.2158
 1030YOPC   C3A13499  14.018   0.654   7.025 -0.0040 -0.2442 -0.0650
 1030YOPC   C4A13500  14.159   0.819   7.420  0.3067  0.2819 -0.0032
 1030YOPC   C1B13501  14.549   1.389   6.706  0.3160  0.1321  0.2214
 1030YOPC   C2B13502  14.712   1.354   7.255 -0.2789  0.0525  0.1882
 1030YOPC   D3B13503  14.598   1.011   7.584 -0.0189  0.1295 -0.2319
 1030YOPC   C4B13504  14.534   0.587   7.672 -0.0418  0.2640  0.0326
 1031YOPC   NC313505   1.069   4.865   5.129  0.1065 -0.1144 -0.2233
 1031YOPC   PO413506   1.218   4.901   5.524  0.0377 -0.1979  0.3555
 1031YOPC   GL113507   1.336   4.869   5.928 -0.4653 -0.2075  0.2475
 1031YOPC   GL213508   1.139   5.090   6.108  0.1777 -0.0084 -0.0106
 1031YOPC   C1A13509   1.553   4.853   6.395  0.2501  0.2152 -0.2548
 1031YOPC   D2A13510   1.576   4.968   6.842 -0.0785 -0.1247  0.1999
 1031YOPC   C3A13511   1.798   4.963   7.176  0.1517 -0.0436 -0.1657
 1031YOPC   C4A13512   1.587   4.975   7.567  0.2908  0.0815 -0.0978
 1031YOPC   C1B13513   1.053   5.069   6.518  0.1374  0.0036  0.0529
 1031YOPC   C2B13514   1.082   5.361   6.868 -0.0216 -0.1672 -0.2875
 1031YOPC   D3B13515   1.428   5.343   7.212  0.1393 -0.4312 -0.1234
 1031YOPC   C4B13516   1.716   5.485   7.547 -0.4724 -0.2896  0.1426
 1032YOPC   NC313517  13.750   4.369   6.041  0.1591 -0.0734 -0.1108
 1032YOPC   PO413518  13.391   4.315   5.806  0.0925 -0.0790 -0.1781
 1032YOPC   GL113519  13.178   4.292   6.186  0.1016 -0.4399 -0.0416
 1032YOPC   GL213520  13.199   3.973   6.395 -0.1724 -0.1267  0.2332
 1032YOPC   C1A13521  13.269   4.419   6.601  0.3028 -0.0641  0.1181
 1032YOPC   D2A13522  13.355   4.196   6.919  0.1496  0.1087 -0.0183
 1032YOPC   C3A13523  13.095   4.433   7.322  0.0604 -0.3445 -0.2107
 1032YOPC   C4A13524  13.434   4.684   7.495 -0.1092 -0.0785  0.1210
 1032YOPC   C1B13525  12.878   3.995   6.733 -0.2286 -0.4864  0.0050
 1032YOPC   C2B13526  12.921   3.958   7.181 -0.0187 -0.0641 -0.0894
 1032YOPC   D3B13527  12.795   4.104   7.562  0.1037  0.0308  0.1361
 1032YOPC   C4B13528  12.555   4.190   7.848  0.0119 -0.1055 -0.0939
 1033YOPC   NC313529  17.645  16.570   5.150 -0.1380 -0.2052 -0.1267
 1033YOPC   PO413530  17.974  16.986   5.455  0.3842  0.1661 -0.2000
 1033YOPC   GL113531  17.683  16.917   5.801  0.2825 -0.0018  0.2040
 1033YOPC   GL213532  17.553  17.213   5.987  0.2702 -0.0402 -0.2570
 1033YOPC   C1A13533  17.741  16.682   6.186 -0.0403 -0.1983  0.0573
 1033YOPC   D2A13534  17.964  16.387   6.477 -0.2116 -0.0996 -0.3038
 1033YOPC   C3A13535  17.922  15.925   6.466 -0.0436  0.0439  0.0058
 1033YOPC   C4A13536  17.812  15.626   6.108 -0.0113 -0.1156 -0.1968
 1033YOPC   C1B13537  17.648  17.217   6.495  0.2314 -0.2127 -0.0499
 1033YOPC   C2B13538  17.669  17.291   6.948  0.0020  0.1140  0.1012
 1033YOPC   D3B13539  17.793  16.952   7.231 -0.1448 -0.2961  0.0521
 1033YOPC   C4B13540  17.737  16.616   7.569  0.0016  0.1362 -0.0708
 1034YOPC   NC313541   9.145   5.216   5.847 -0.0687 -0.2522  0.0214
 1034YOPC   PO413542   9.491   5.451   6.064 -0.2685 -0.0859 -0.2840
 1034YOPC   GL113543   9.384   5.576   6.479 -0.2959  0.1889  0.0020
 1034YOPC   GL213544   9.569   5.639   6.684 -0.1364  0.0578 -0.1159
 1034YOPC   C1A13545   9.086   5.462   6.902  0.3663  0.0868 -0.0173
 1034YOPC   D2A13546   9.159   5.645   7.348 -0.0166 -0.2106  0.0434
 1034YOPC   C3A13547   9.123   5.451   7.645 -0.0556  0.0974  0.3476
 1034YOPC   C4A13548   9.017   5.246   8.078 -0.0604 -0.0461  0.1947
 1034YOPC   C1B13549   9.576   5.351   7.054  0.1033  0.3904 -0.1388
 1034YOPC   C2B13550   9.634   5.345   7.524  0.2690 -0.2589 -0.1690
 1034YOPC   D3B13551   9.401   5.044   7.792 -0.1658  0.5021 -0.1200
 1034YOPC   C4B13552   9.371   4.681   8.005  0.0254 -0.0327  0.1300
 1035YOPC   NC313553  15.880  14.484   5.593  0.1385  0.0845  0.0175
 1035YOPC   PO413554  15.457  14.432   5.514  0.5008  0.2656  0.2552
 1035YOPC   GL113555  15.429  14.763   5.815 -0.2593  0.4190  0.5017
 1035YOPC   GL213556  15.287  14.689   5.985  0.2470 -0.1270  0.2369
 1035YOPC   C1A13557  15.460  15.202   5.882  0.0944 -0.0710  0.1670
 1035YOPC   D2A13558  15.680  15.274   6.262  0.1139 -0.1227  0.2051
 1035YOPC   C3A13559  15.580  15.634   6.412  0.0913 -0.0971  0.1664
 1035YOPC   C4A13560  15.595  15.821   6.744  0.1462 -0.0026  0.2638
 1035YOPC   C1B13561  14.932  14.711   6.165  0.1396 -0.3099  0.1837
 1035YOPC   C2B13562  14.960  14.731   6.598  0.4818  0.0983  0.0204
 1035YOPC   D3B13563  15.238  14.615   6.925 -0.0355  0.1899 -0.1505
 1035YOPC   C4B13564  15.050  14.403   7.196 -0.0823 -0.1917 -0.1902
 1036YOPC   NC313565  13.940  15.250   5.333  0.0036  0.2076  0.1132
 1036YOPC   PO413566  14.287  15.403   5.482 -0.0169 -0.0263  0.1371
 1036YOPC   GL113567  14.460  15.656   5.730  0.1661 -0.2645 -0.3307
 1036YOPC   GL213568  14.555  15.457   5.977  0.1613 -0.0885  0.2833
 1036YOPC   C1A13569  14.162  15.804   6.035 -0.3826 -0.0249 -0.0155
 1036YOPC   D2A13570  13.797  15.901   6.378 -0.1019  0.0536 -0.0391
 1036YOPC   C3A13571  13.470  16.175   6.325  0.0472 -0.2228  0.1210
 1036YOPC   C4A13572  13.183  16.405   6.148 -0.2556 -0.1382  0.1533
 1036YOPC   C1B13573  14.593  15.579   6.417 -0.0600  0.0710 -0.2172
 1036YOPC   C2B13574  14.582  15.159   6.586 -0.3867 -0.3382 -0.0407
 1036YOPC   D3B13575  14.732  15.003   6.894  0.1034  0.0497 -0.2595
 1036YOPC   C4B13576  14.924  14.890   7.282  0.0703  0.0593 -0.1112
 1037YOPC   NC313577  13.800  11.085   5.415 -0.0394  0.3046  0.0028
 1037YOPC   PO413578  14.024  11.145   5.803 -0.0227 -0.0977 -0.0183
 1037YOPC   GL113579  13.975  11.328   6.178 -0.0831 -0.1927 -0.0384
 1037YOPC   GL213580  13.962  11.093   6.321 -0.2098  0.0754 -0.1612
 1037YOPC   C1A13581  13.957  11.751   6.414  0.0559  0.0854  0.2167
 1037YOPC   D2A13582  14.108  11.823   6.833  0.2592 -0.2399 -0.0557
 1037YOPC   C3A13583  13.814  12.145   6.993  0.3513  0.0574  0.2278
 1037YOPC   C4A13584  13.508  12.102   7.385  0.2665  0.2600 -0.0262
 1037YOPC   C1B13585  13.983  11.289   6.684  0.1053 -0.0470 -0.3147
 1037YOPC   C2B13586  14.086  11.390   7.111 -0.0822 -0.0074 -0.3219
 1037YOPC   D3B13587  13.844  11.367   7.563  0.0919 -0.0242  0.0889
 1037YOPC   C4B13588  13.856  11.143   7.883 -0.0762  0.3991 -0.4062
 1038YOPC   NC313589   6.264  12.118   5.634 -0.1483  0.0816  0.1962
 1038YOPC   PO413590   6.238  11.691   5.782 -0.0553  0.1968  0.1345
 1038YOPC   GL113591   6.425  11.758   6.193  0.2463 -0.1457 -0.1122
 1038YOPC   GL213592   6.665  11.834   6.319 -0.0004 -0.2608  0.0356
 1038YOPC   C1A13593   6.289  12.125   6.543 -0.0462  0.5903 -0.0717
 1038YOPC   D2A13594   6.406  12.177   7.081 -0.1582  0.0266  0.3959
 1038YOPC   C3A13595   6.494  12.501   7.378  0.2428 -0.1754 -0.0604
 1038YOPC   C4A13596   6.426  12.596   7.760 -0.0438  0.1431 -0.0445
 1038YOPC   C1B13597   6.688  11.911   6.729 -0.0949  0.0120 -0.0007
 1038YOPC   C2B13598   6.720  11.604   7.059 -0.1848  0.0891  0.2963
 1038YOPC   D3B13599   6.848  11.855   7.353  0.3023  0.2812  0.0033
 1038YOPC   C4B13600   7.003  11.831   7.628  0.3025 -0.0517  0.0368
 1039YOPC   NC313601   7.619  14.029   5.232 -0.1371  0.0410  0.3273
 1039YOPC   PO413602   8.128  13.975   5.386 -0.1925  0.2105  0.0017
 1039YOPC   GL113603   8.250  14.025   5.795 -0.3399 -0.1038 -0.3027
 1039YOPC   GL213604   7.994  13.971   5.925  0.2346  0.3534  0.1723
 1039YOPC   C1A13605   8.524  14.166   6.171  0.2290 -0.1532 -0.1155
 1039YOPC   D2A13606   8.673  14.152   6.574  0.1638 -0.3481 -0.0402
 1039YOPC   C3A13607   8.623  13.958   6.960  0.0951  0.0582 -0.0828
 1039YOPC   C4A13608   8.225  13.898   7.094 -0.1476  0.2465 -0.0936
 1039YOPC   C1B13609   8.024  14.454   6.097 -0.0149 -0.2518  0.0169
 1039YOPC   C2B13610   7.802  14.590   6.444 -0.0942 -0.0288  0.2978
 1039YOPC   D3B13611   7.691  14.980   6.817 -0.3366  0.0178 -0.2354
 1039YOPC   C4B13612   7.921  15.154   7.176  0.1732 -0.0763 -0.0969
 1040YOPC   NC313613  15.176  10.286   6.155 -0.0121 -0.1389  0.2598
 1040YOPC   PO413614  14.811  10.247   6.376 -0.0104  0.0269  0.1569
 1040YOPC   GL113615  14.918  10.279   6.718  0.3339 -0.1818 -0.0198
 1040YOPC   GL213616  15.035  10.550   6.811 -0.3671  0.1977  0.3405
 1040YOPC   C1A13617  14.733  10.295   7.157 -0.0538  0.0291 -0.0236
 1040YOPC   D2A13618  14.647  10.191   7.625  0.2355 -0.0716 -0.0037
 1040YOPC   C3A13619  14.792  10.461   7.980 -0.0661 -0.0285  0.1426
 1040YOPC   C4A13620  14.769  10.845   8.310  0.1228 -0.1752  0.3484
 1040YOPC   C1B13621  14.904  10.740   7.191  0.1205 -0.1941 -0.2682
 1040YOPC   C2B13622  14.922  10.602   7.543 -0.0189  0.1092 -0.2019
 1040YOPC   D3B13623  14.918  11.006   7.821  0.3416  0.3361 -0.1880
 1040YOPC   C4B13624  14.665  11.298   7.991  0.1333 -0.2623  0.0414
 1041YOPC   NC313625  14.043   8.243   6.256  0.0504  0.0034  0.1124
 1041YOPC   PO413626  14.496   8.415   6.255 -0.0150  0.1701  0.1909
 1041YOPC   GL113627  14.329   8.322   6.643  0.0500 -0.0617 -0.0859
 1041YOPC   GL213628  14.060   8.377   6.787 -0.0160  0.1604  0.0018
 1041YOPC   C1A13629  14.522   8.320   7.060 -0.4068  0.0643  0.0256
 1041YOPC   D2A13630  14.410   8.276   7.513 -0.5782 -0.1655  0.2312
 1041YOPC   C3A13631  14.037   8.477   7.765 -0.1021  0.0182  0.2206
 1041YOPC   C4A13632  13.786   8.727   7.952  0.0436  0.0761 -0.0732
 1041YOPC   C1B13633  13.936   8.441   7.219 -0.0469  0.2549 -0.0835
 1041YOPC   C2B13634  13.873   8.821   7.448 -0.0058  0.0678 -0.0730
 1041YOPC   D3B13635  13.652   9.069   7.362 -0.0733  0.0011 -0.0458
 1041YOPC   C4B13636  13.391   9.389   7.486  0.1544 -0.1452  0.2436
 1042YOPC   NC313637  17.960   0.744   5.294  0.4123  0.2479 -0.2521
 1042YOPC   PO413638  17.810   1.268   5.256  0.1357 -0.0735  0.0438
 1042YOPC   GL113639  18.011   1.205   5.617 -0.0426  0.0992 -0.0722
 1042YOPC   GL213640  18.361   1.035   5.633  0.3051 -0.0232  0.1690
 1042YOPC   C1A13641  18.047   1.136   6.060  0.0344  0.0855  0.0198
 1042YOPC   D2A13642  17.870   1.053   6.442  0.2229 -0.1032 -0.0163
 1042YOPC   C3A13643  18.168   0.944   6.722  0.1974  0.1265  0.1880
 1042YOPC   C4A13644  18.422   0.671   6.969  0.0084 -0.0550  0.3038
 1042YOPC   C1B13645  18.440   0.631   5.868 -0.2811  0.2596  0.1969
 1042YOPC   C2B13646  18.246   0.186   6.043  0.1019  0.0266 -0.0326
 1042YOPC   D3B13647  17.973   0.102   6.210  0.1680  0.0124  0.2286
 1042YOPC   C4B13648  18.165  -0.100   6.665 -0.0928  0.2638 -0.1231
 1043YOPC   NC313649   6.096  15.326   5.663  0.4748 -0.2086  0.3258
 1043YOPC   PO413650   6.153  14.917   5.742  0.0588  0.3610 -0.2413
 1043YOPC   GL113651   6.276  14.786   6.160  0.0623  0.0676 -0.1971
 1043YOPC   GL213652   6.485  14.882   6.378  0.1125 -0.1444 -0.0446
 1043YOPC   C1A13653   6.082  14.637   6.604  0.1049  0.1081  0.0719
 1043YOPC   D2A13654   5.871  14.743   7.027 -0.1131 -0.2812  0.0433
 1043YOPC   C3A13655   5.531  14.549   7.194  0.0053  0.1467  0.0941
 1043YOPC   C4A13656   5.364  14.582   7.520 -0.2901 -0.0950 -0.0259
 1043YOPC   C1B13657   6.437  14.899   6.810 -0.0876 -0.1546  0.2574
 1043YOPC   C2B13658   6.662  14.971   7.092 -0.0540 -0.1656  0.0592
 1043YOPC   D3B13659   6.544  15.087   7.518  0.0638  0.1937  0.4322
 1043YOPC   C4B13660   6.128  15.245   7.714 -0.3769  0.1978  0.2641
 1044YOPC   NC313661  11.961   6.235   6.013 -0.0495  0.0314  0.2376
 1044YOPC   PO413662  11.572   5.910   6.168  0.0432 -0.1469  0.2558
 1044YOPC   GL113663  11.464   5.900   6.611 -0.0981 -0.1145 -0.1782
 1044YOPC   GL213664  11.164   5.681   6.723  0.0053 -0.0197  0.1317
 1044YOPC   C1A13665  11.467   5.851   7.071  0.3533  0.0739 -0.2455
 1044YOPC   D2A13666  11.426   5.891   7.490  0.2338  0.0155 -0.0967
 1044YOPC   C3A13667  11.536   5.598   7.829  0.0852  0.4307  0.0682
 1044YOPC   C4A13668  11.604   5.335   8.044 -0.0143  0.0137 -0.1002
 1044YOPC   C1B13669  10.931   5.837   6.976  0.1848  0.1245  0.1212
 1044YOPC   C2B13670  11.007   5.661   7.431  0.1275  0.1578  0.1157
 1044YOPC   D3B13671  11.045   5.231   7.699  0.0434  0.2713 -0.0408
 1044YOPC   C4B13672  11.165   5.065   8.148  0.0901 -0.2961  0.1014
 1045YOPC   NC313673  12.188  13.569   5.918 -0.1444  0.2157 -0.0201
 1045YOPC   PO413674  12.388  13.952   5.934  0.1437  0.2708  0.2896
 1045YOPC   GL113675  12.531  14.193   6.264  0.0388  0.0680 -0.2170
 1045YOPC   GL213676  12.464  14.614   6.185  0.1836 -0.0522  0.1255
 1045YOPC   C1A13677  12.411  14.374   6.668  0.2703 -0.2567  0.3177
 1045YOPC   D2A13678  12.751  14.413   6.989  0.0381  0.1478  0.0547
 1045YOPC   C3A13679  12.758  14.733   7.323 -0.0112  0.0139 -0.2185
 1045YOPC   C4A13680  12.811  14.792   7.768 -0.2587 -0.0268 -0.2365
 1045YOPC   C1B13681  12.489  14.885   6.553 -0.1859  0.1865  0.2034
 1045YOPC   C2B13682  12.529  14.935   6.910 -0.0663  0.1475 -0.2733
 1045YOPC   D3B13683  12.733  15.226   7.010 -0.0923 -0.2767  0.2728
 1045YOPC   C4B13684  13.075  15.494   6.978 -0.1171  0.0589 -0.0267
 1046YOPC   NC313685  10.201   1.942   5.985  0.3166  0.0911  0.1416
 1046YOPC   PO413686  10.547   2.200   6.150 -0.1967 -0.1125 -0.0176
 1046YOPC   GL113687  10.396   2.359   6.511 -0.1458 -0.2367 -0.0516
 1046YOPC   GL213688  10.071   2.323   6.488 -0.1401  0.0378 -0.1541
 1046YOPC   C1A13689  10.343   2.543   6.964  0.0279 -0.1250  0.0490
 1046YOPC   D2A13690  10.154   2.694   7.325 -0.3071  0.1984 -0.1379
 1046YOPC   C3A13691   9.844   2.584   7.725 -0.0294  0.0203  0.2916
 1046YOPC   C4A13692   9.584   2.345   8.035 -0.1970  0.1322  0.0282
 1046YOPC   C1B13693   9.647   2.464   6.648 -0.0443 -0.3384 -0.4566
 1046YOPC   C2B13694   9.401   2.595   7.063  0.1879  0.1655  0.1340
 1046YOPC   D3B13695   9.459   2.331   7.476 -0.1044 -0.1722  0.2034
 1046YOPC   C4B13696   9.873   2.131   7.641 -0.1117 -0.1046 -0.0982
 1047YOPC   NC313697   6.441   5.370   5.470  0.1733  0.1256 -0.1880
 1047YOPC   PO413698   6.664   5.356   5.889  0.0468 -0.0754 -0.2802
 1047YOPC   GL113699   6.477   5.230   6.314 -0.1250  0.2305 -0.2712
 1047YOPC   GL213700   6.524   4.905   6.337 -0.0398  0.1254 -0.0803
 1047YOPC   C1A13701   6.761   5.137   6.703  0.0059 -0.1237  0.0370
 1047YOPC   D2A13702   6.878   4.977   7.170 -0.2192  0.0915  0.0603
 1047YOPC   C3A13703   6.610   4.988   7.586  0.0171  0.2175 -0.0497
 1047YOPC   C4A13704   6.286   5.211   7.727  0.0497 -0.4531  0.1531
 1047YOPC   C1B13705   6.614   4.674   6.879 -0.2195 -0.1924  0.1103
 1047YOPC   C2B13706   6.927   4.435   7.174 -0.1933 -0.0968 -0.1731
 1047YOPC   D3B13707   6.743   4.458   7.624 -0.1892 -0.0601  0.0635
 1047YOPC   C4B13708   6.431   4.527   8.003 -0.0788  0.2229  0.1350
 1048YOPC   NC313709   0.861  12.571   5.076  0.0123 -0.0636  0.0768
 1048YOPC   PO413710   1.254  12.561   5.334 -0.0692  0.0967  0.0451
 1048YOPC   GL113711   1.186  12.517   5.803 -0.2557 -0.4104  0.1154
 1048YOPC   GL213712   0.911  12.398   5.978  0.3927  0.0415  0.1018
 1048YOPC   C1A13713   1.547  12.535   6.163  0.1173  0.2596  0.1654
 1048YOPC   D2A13714   1.921  12.679   6.137 -0.1187 -0.0565  0.1074
 1048YOPC   C3A13715   2.007  12.440   6.582  0.3606  0.3172  0.2042
 1048YOPC   C4A13716   2.163  12.058   6.669  0.0009  0.0041 -0.0267
 1048YOPC   C1B13717   1.052  12.778   6.280 -0.0779  0.1072 -0.0769
 1048YOPC   C2B13718   1.038  12.665   6.739 -0.1464 -0.0909 -0.0468
 1048YOPC   D3B13719   1.137  13.029   6.926  0.3248  0.2471  0.1605
 1048YOPC   C4B13720   1.445  13.227   7.008 -0.0401  0.1028 -0.0270
 1049YOPC   NC313721   2.066   2.306   5.034 -0.1853  0.1436  0.0791
 1049YOPC   PO413722   1.579   2.312   5.072  0.2326 -0.1626  0.2173
 1049YOPC   GL113723   1.475   2.439   5.537 -0.1887 -0.0774 -0.4362
 1049YOPC   GL213724   1.044   2.394   5.688 -0.2483  0.0464 -0.0320
 1049YOPC   C1A13725   1.762   2.311   5.918 -0.2528 -0.1422  0.2688
 1049YOPC   D2A13726   1.776   2.250   6.329 -0.0033 -0.3005  0.1748
 1049YOPC   C3A13727   2.086   1.881   6.567  0.4244 -0.3215  0.2428
 1049YOPC   C4A13728   2.330   1.775   6.930  0.1715 -0.3587  0.1096
 1049YOPC   C1B13729   0.885   2.482   6.185  0.0428  0.2077 -0.0550
 1049YOPC   C2B13730   0.795   2.335   6.546 -0.1067  0.2631 -0.0395
 1049YOPC   D3B13731   0.973   2.463   6.792 -0.0606  0.2980  0.1562
 1049YOPC   C4B13732   1.247   2.470   7.102 -0.2286  0.0884 -0.0872
 1050YOPC   NC313733   8.633  13.381   5.571  0.1522  0.0954  0.0655
 1050YOPC   PO413734   9.010  13.365   5.309  0.1020  0.0742  0.3142
 1050YOPC   GL113735   9.130  13.540   5.697  0.1281 -0.3825  0.1037
 1050YOPC   GL213736   8.952  13.439   5.920 -0.3744  0.0986 -0.0373
 1050YOPC   C1A13737   9.291  13.841   5.968  0.1504 -0.5273  0.1729
 1050YOPC   D2A13738   9.347  13.547   6.296  0.0406 -0.0316 -0.0166
 1050YOPC   C3A13739   9.612  13.837   6.676  0.0613 -0.3423 -0.0774
 1050YOPC   C4A13740  10.005  14.097   6.604 -0.1549  0.1316 -0.0403
 1050YOPC   C1B13741   8.879  13.733   6.341 -0.2186  0.1124  0.1450
 1050YOPC   C2B13742   9.095  13.885   6.635 -0.1187 -0.0660 -0.1635
 1050YOPC   D3B13743   9.211  13.660   6.958  0.0086  0.1284  0.0130
 1050YOPC   C4B13744   9.481  13.379   7.263 -0.2650  0.0898 -0.0635
 1051YOPC   NC313745   7.362   9.067   5.941 -0.0263 -0.3961 -0.1398
 1051YOPC   PO413746   7.732   9.180   6.063  0.3213  0.0274  0.1972
 1051YOPC   GL113747   7.781   9.370   6.445  0.3390  0.0598 -0.3093
 1051YOPC   GL213748   7.487   9.387   6.746 -0.1056  0.0631 -0.0727
 1051YOPC   C1A13749   7.891   9.644   6.791  0.1287  0.2358 -0.2552
 1051YOPC   D2A13750   8.213   9.682   7.079  0.1134 -0.0696  0.1771
 1051YOPC   C3A13751   8.101   9.990   7.408  0.1455 -0.1748 -0.2963
 1051YOPC   C4A13752   7.748  10.294   7.564  0.3731 -0.0807 -0.0894
 1051YOPC   C1B13753   7.494   9.461   7.155 -0.1844 -0.1482 -0.0270
 1051YOPC   C2B13754   7.814   9.538   7.497 -0.1756 -0.4263 -0.0511
 1051YOPC   D3B13755   8.088   9.176   7.428 -0.4819 -0.2164 -0.0814
 1051YOPC   C4B13756   8.048   8.810   7.393 -0.2475 -0.3676  0.3092
 1052YOPC   NC313757   3.546  11.675   6.020  0.0340  0.0748 -0.4990
 1052YOPC   PO413758   3.707  11.312   5.694  0.0732  0.2178  0.0562
 1052YOPC   GL113759   3.537  11.128   6.020 -0.0766  0.2639  0.0619
 1052YOPC   GL213760   3.670  11.235   6.312 -0.2498 -0.5186  0.1670
 1052YOPC   C1A13761   3.394  10.759   6.214  0.4022  0.2811  0.1199
 1052YOPC   D2A13762   3.550  10.516   6.544 -0.1608 -0.0366  0.1506
 1052YOPC   C3A13763   3.641  10.581   7.042  0.0001  0.1815 -0.0793
 1052YOPC   C4A13764   3.559  10.103   7.372  0.1362  0.0016 -0.2424
 1052YOPC   C1B13765   3.625  11.025   6.708 -0.2391  0.1024  0.1161
 1052YOPC   C2B13766   3.462  11.028   7.118 -0.2743 -0.0148 -0.0011
 1052YOPC   D3B13767   3.669  11.058   7.477 -0.1230 -0.1570  0.2910
 1052YOPC   C4B13768   3.793  11.179   7.822  0.0593 -0.0943 -0.2390
 1053YOPC   NC313769  17.375   5.242   5.697  0.0220 -0.0677 -0.1741
 1053YOPC   PO413770  16.997   5.227   5.885  0.1259 -0.3785  0.1241
 1053YOPC   GL113771  17.035   5.303   6.249 -0.3602 -0.2397  0.0285
 1053YOPC   GL213772  17.287   5.459   6.215  0.1235 -0.1746 -0.1018
 1053YOPC   C1A13773  17.076   5.228   6.683  0.0636  0.2761 -0.0324
 1053YOPC   D2A13774  17.326   5.299   7.082  0.0387  0.1987  0.2783
 1053YOPC   C3A13775  17.115   5.121   7.345 -0.1495  0.0261 -0.0360
 1053YOPC   C4A13776  17.035   5.109   7.731 -0.0896  0.1185  0.1523
 1053YOPC   C1B13777  17.532   5.528   6.599  0.1418  0.1400  0.1847
 1053YOPC   C2B13778  17.792   5.500   6.978 -0.2933 -0.0791  0.0689
 1053YOPC   D3B13779  17.578   5.682   7.332 -0.1358  0.1157  0.0948
 1053YOPC   C4B13780  17.192   5.536   7.547  0.1107 -0.2853 -0.4188
 1054YOPC   NC313781   5.648   1.623   5.506  0.1510 -0.1911 -0.1435
 1054YOPC   PO413782   5.359   1.761   5.290  0.0928 -0.0146  0.0562
 1054YOPC   GL113783   5.037   1.464   5.484 -0.2212  0.1246 -0.0435
 1054YOPC   GL213784   5.094   1.491   5.791 -0.1629 -0.1216 -0.1115
 1054YOPC   C1A13785   4.911   1.090   5.747  0.1634  0.2086  0.1367
 1054YOPC   D2A13786   4.653   0.837   6.143 -0.1789  0.2031 -0.0835
 1054YOPC   C3A13787   4.399   1.147   6.169 -0.2240 -0.1409 -0.0784
 1054YOPC   C4A13788   3.930   1.244   6.248 -0.0002 -0.2970 -0.0716
 1054YOPC   C1B13789   4.922   1.338   6.233 -0.0502 -0.1894  0.2338
 1054YOPC   C2B13790   4.948   1.131   6.691 -0.1150  0.2088 -0.0238
 1054YOPC   D3B13791   4.787   1.397   7.088 -0.0008 -0.0525 -0.0174
 1054YOPC   C4B13792   4.569   1.722   7.305  0.1286 -0.1012 -0.3090
 1055YOPC   NC313793   5.245   6.448   5.855 -0.2346 -0.0816 -0.0590
 1055YOPC   PO413794   5.132   6.846   6.137  0.1308 -0.3619  0.1559
 1055YOPC   GL113795   5.068   6.949   6.512  0.2358  0.1550  0.0373
 1055YOPC   GL213796   4.814   7.129   6.666  0.0699  0.1157 -0.0158
 1055YOPC   C1A13797   5.295   6.872   6.828  0.1518 -0.0556 -0.2907
 1055YOPC   D2A13798   5.563   7.036   7.140  0.1290 -0.2793 -0.1736
 1055YOPC   C3A13799   5.480   6.870   7.540 -0.1227  0.0168  0.1840
 1055YOPC   C4A13800   5.355   6.958   7.867 -0.1682 -0.0714 -0.2689
 1055YOPC   C1B13801   4.876   7.100   7.057 -0.0851  0.0218  0.0742
 1055YOPC   C2B13802   4.898   7.221   7.499 -0.0773  0.0354  0.2006
 1055YOPC   D3B13803   4.746   6.900   7.812 -0.0439 -0.1386  0.1045
 1055YOPC   C4B13804   4.905   6.795   8.169 -0.0618  0.0776  0.0866
 1056YOPC   NC313805   5.291   7.851   6.265 -0.2402 -0.1220 -0.1900
 1056YOPC   PO413806   5.212   8.168   6.301  0.1949  0.1478 -0.3058
 1056YOPC   GL113807   5.203   8.265   6.658 -0.1641 -0.0374 -0.3102
 1056YOPC   GL213808   5.296   8.592   6.702 -0.1510 -0.1329 -0.1676
 1056YOPC   C1A13809   5.323   8.334   7.160 -0.2831  0.1251 -0.0358
 1056YOPC   D2A13810   5.635   8.520   7.439 -0.2466 -0.1076 -0.1661
 1056YOPC   C3A13811   5.710   8.814   7.769 -0.1496  0.1875 -0.2546
 1056YOPC   C4A13812   5.682   9.092   7.992 -0.1590 -0.0367 -0.3155
 1056YOPC   C1B13813   4.930   8.630   7.060  0.2015 -0.4074 -0.2988
 1056YOPC   C2B13814   4.585   8.512   7.369 -0.2513  0.1211  0.3851
 1056YOPC   D3B13815   4.624   8.636   7.666 -0.1146 -0.0087  0.1506
 1056YOPC   C4B13816   4.785   8.924   8.131 -0.3464 -0.0654  0.2843
 1057YOPC   NC313817   2.655  10.009   6.042  0.1492  0.0284 -0.0382
 1057YOPC   PO413818   2.694  10.234   5.732  0.0420  0.1008  0.0700
 1057YOPC   GL113819   2.653  10.609   5.927  0.1845  0.1557 -0.1772
 1057YOPC   GL213820   2.422  10.706   6.103 -0.2122 -0.2079 -0.0287
 1057YOPC   C1A13821   2.907  10.762   6.350  0.1374 -0.1280 -0.1563
 1057YOPC   D2A13822   3.112  10.846   6.656 -0.3293 -0.1489 -0.2519
 1057YOPC   C3A13823   3.040  10.605   6.995 -0.2113  0.3683 -0.0926
 1057YOPC   C4A13824   3.065  10.388   7.311  0.3598  0.0822 -0.0139
 1057YOPC   C1B13825   2.285  10.751   6.553 -0.4471  0.1850  0.1290
 1057YOPC   C2B13826   2.231  11.080   6.810 -0.1848 -0.0345 -0.5563
 1057YOPC   D3B13827   2.304  10.926   7.213  0.1311 -0.1274 -0.2081
 1057YOPC   C4B13828   2.353  11.008   7.640  0.0424 -0.1111  0.3476
 1058YOPC   NC313829  12.003  12.093   5.822 -0.2009  0.3657  0.1392
 1058YOPC   PO413830  11.861  11.644   6.064 -0.0488 -0.3660 -0.3484
 1058YOPC   GL113831  11.613  11.648   6.394  0.3720  0.5073 -0.0932
 1058YOPC   GL213832  11.283  11.662   6.374  0.0759  0.3243  0.3891
 1058YOPC   C1A13833  11.545  11.443   6.795 -0.0431  0.2613 -0.2411
 1058YOPC   D2A13834  11.599  11.302   7.173  0.1795 -0.0536 -0.0310
 1058YOPC   C3A13835  11.399  11.217   7.523 -0.2981 -0.1916  0.0338
 1058YOPC   C4A13836  11.038  11.340   7.806 -0.0661  0.5125 -0.3891
 1058YOPC   C1B13837  11.157  11.859   6.762  0.0090  0.0233  0.1817
 1058YOPC   C2B13838  11.313  12.123   7.078 -0.1156 -0.0598 -0.0152
 1058YOPC   D3B13839  11.045  12.157   7.499  0.0871 -0.4949 -0.2291
 1058YOPC   C4B13840  10.633  12.264   7.550 -0.1799  0.1029 -0.0845
 1059YOPC   NC313841   7.107   1.061   5.976  0.0093  0.0901 -0.1047
 1059YOPC   PO413842   6.991   0.662   6.024 -0.1954  0.0730  0.2060
 1059YOPC   GL113843   7.028   0.716   6.448 -0.1764 -0.1161 -0.1883
 1059YOPC   GL213844   7.297   0.826   6.509 -0.0334  0.2499  0.0522
 1059YOPC   C1A13845   6.823   0.771   6.903  0.1903 -0.1087  0.2480
 1059YOPC   D2A13846   6.972   0.954   7.262  0.3010 -0.1222  0.4249
 1059YOPC   C3A13847   6.705   1.157   7.532  0.2348  0.2677 -0.0914
 1059YOPC   C4A13848   6.363   1.386   7.601 -0.1653 -0.0746  0.1014
 1059YOPC   C1B13849   7.352   0.621   6.894 -0.1178 -0.0960 -0.1208
 1059YOPC   C2B13850   7.348   0.624   7.381 -0.1165  0.1968  0.1507
 1059YOPC   D3B13851   7.146   0.754   7.682 -0.0922  0.3809 -0.0890
 1059YOPC   C4B13852   6.952   0.843   8.099 -0.2449  0.1293 -0.0045
 1060YOPC   NC313853   0.930   2.063   5.041  0.1320 -0.5496 -0.0454
 1060YOPC   PO413854   0.624   2.350   5.319  0.4599 -0.2610 -0.1134
 1060YOPC   GL113855   0.629   2.062   5.640 -0.3911 -0.1092 -0.0615
 1060YOPC   GL213856   0.922   1.877   5.634  0.1300 -0.2904 -0.1356
 1060YOPC   C1A13857   0.714   1.970   6.086  0.1659 -0.2694 -0.0838
 1060YOPC   D2A13858   0.953   1.875   6.328  0.0294  0.1737  0.0317
 1060YOPC   C3A13859   0.831   1.507   6.505  0.1694 -0.0650  0.2159
 1060YOPC   C4A13860   0.800   1.309   6.876 -0.0159  0.2114  0.0505
 1060YOPC   C1B13861   1.295   2.096   5.969 -0.1630 -0.0318  0.0891
 1060YOPC   C2B13862   1.316   2.356   6.354  0.1990  0.2017  0.7035
 1060YOPC   D3B13863   1.591   2.328   6.805  0.1006  0.0979 -0.1293
 1060YOPC   C4B13864   1.802   2.459   7.202  0.1091  0.1232  0.0733
 1061YOPC   NC313865   3.634   6.753   5.836  0.2638 -0.0935 -0.2205
 1061YOPC   PO413866   3.343   6.457   5.747 -0.1802  0.1433  0.1661
 1061YOPC   GL113867   3.121   6.222   6.105 -0.2544 -0.0688  0.2783
 1061YOPC   GL213868   3.362   6.404   6.375 -0.3535 -0.0215  0.2144
 1061YOPC   C1A13869   2.839   6.133   6.513 -0.1584 -0.0227 -0.3141
 1061YOPC   D2A13870   2.745   5.855   6.858  0.1093  0.2026 -0.0587
 1061YOPC   C3A13871   2.931   5.741   7.147  0.2294 -0.0613 -0.0166
 1061YOPC   C4A13872   3.112   5.787   7.641 -0.1415 -0.1246 -0.0455
 1061YOPC   C1B13873   3.543   6.418   6.729  0.0126  0.0949  0.0125
 1061YOPC   C2B13874   3.556   6.670   7.079  0.2315 -0.0066  0.0486
 1061YOPC   D3B13875   3.700   6.580   7.394 -0.1101 -0.2418  0.3017
 1061YOPC   C4B13876   3.796   6.532   7.832 -0.0348 -0.2520 -0.1079
 1062YOPC   NC313877  18.146   4.391   5.862 -0.1005 -0.0756 -0.1411
 1062YOPC   PO413878  18.131   4.769   6.075 -0.0835  0.2424  0.2114
 1062YOPC   GL113879  18.443   4.748   6.419 -0.2531 -0.0684  0.0465
 1062YOPC   GL213880  18.735   4.692   6.263  0.0041 -0.0617 -0.0246
 1062YOPC   C1A13881  18.693   4.881   6.838 -0.1477  0.2676  0.0469
 1062YOPC   D2A13882  18.735   5.128   7.180  0.0839 -0.0322  0.0472
 1062YOPC   C3A13883  19.066   4.989   7.466  0.1195 -0.2055  0.0691
 1062YOPC   C4A13884  19.495   4.981   7.671  0.1359  0.0344 -0.0277
 1062YOPC   C1B13885  19.094   4.735   6.566  0.1688  0.2920 -0.2005
 1062YOPC   C2B13886  19.172   4.841   6.995 -0.0106 -0.0413 -0.0773
 1062YOPC   D3B13887  18.838   4.613   7.228 -0.0456 -0.2287 -0.1918
 1062YOPC   C4B13888  18.444   4.549   7.537  0.2236 -0.3632  0.0312
 1063YOPC   NC313889  10.585  16.498   5.890 -0.2698 -0.1246 -0.0365
 1063YOPC   PO413890  10.063  16.536   5.856 -0.4560  0.1897 -0.2506
 1063YOPC   GL113891  10.110  16.733   6.265  0.0713  0.3411  0.2121
 1063YOPC   GL213892  10.023  16.973   6.494  0.2138 -0.4630 -0.0343
 1063YOPC   C1A13893   9.995  16.489   6.680 -0.0405 -0.3471  0.3096
 1063YOPC   D2A13894   9.894  16.174   6.896 -0.1567  0.0145  0.0687
 1063YOPC   C3A13895   9.831  16.089   7.327  0.1820  0.1640 -0.1974
 1063YOPC   C4A13896  10.039  16.314   7.656 -0.2563 -0.1259  0.2944
 1063YOPC   C1B13897  10.188  17.105   6.919  0.0493  0.0160 -0.0910
 1063YOPC   C2B13898  10.215  17.249   7.377 -0.3813  0.1635 -0.0300
 1063YOPC   D3B13899   9.919  16.992   7.607 -0.0197 -0.0524  0.0608
 1063YOPC   C4B13900   9.789  16.708   7.791  0.2690  0.0656 -0.0859
 1064YOPC   NC313901   6.568   9.091   6.161 -0.1419  0.3329 -0.1323
 1064YOPC   PO413902   6.554   9.515   6.187 -0.2170  0.3096 -0.1824
 1064YOPC   GL113903   6.649   9.684   6.644 -0.2912  0.1742  0.4262
 1064YOPC   GL213904   6.936   9.470   6.715  0.1019 -0.2932  0.1602
 1064YOPC   C1A13905   6.630   9.794   7.008 -0.0021 -0.2673 -0.0796
 1064YOPC   D2A13906   6.640   9.651   7.364 -0.3783  0.3521 -0.2103
 1064YOPC   C3A13907   6.631  10.009   7.579 -0.0013 -0.3993 -0.1375
 1064YOPC   C4A13908   6.555  10.125   8.028 -0.0110  0.2273  0.2455
 1064YOPC   C1B13909   7.024   9.400   7.129  0.2040  0.1368  0.0276
 1064YOPC   C2B13910   7.015   9.380   7.630  0.2264  0.1160  0.1422
 1064YOPC   D3B13911   6.973   9.761   7.867  0.1549 -0.0473  0.0738
 1064YOPC   C4B13912   7.065  10.082   8.137 -0.2140  0.2224  0.4121
 1065YOPC   NC313913  15.269   5.634   6.323 -0.1243  0.0662  0.1169
 1065YOPC   PO413914  14.968   5.868   6.587  0.1861  0.0022  0.3811
 1065YOPC   GL113915  14.994   6.182   7.021 -0.1978  0.4027  0.0207
 1065YOPC   GL213916  15.241   6.420   6.925  0.1067 -0.3054  0.1320
 1065YOPC   C1A13917  15.330   6.099   7.355  0.0811 -0.0662  0.2655
 1065YOPC   D2A13918  15.502   6.387   7.611  0.0454 -0.1623  0.2112
 1065YOPC   C3A13919  15.525   6.444   8.012 -0.0831 -0.1257  0.0874
 1065YOPC   C4A13920  15.574   6.549   8.381  0.3592  0.2320  0.2619
 1065YOPC   C1B13921  15.073   6.606   7.259  0.3226 -0.1840 -0.1613
 1065YOPC   C2B13922  14.749   7.033   7.386  0.3588 -0.1299  0.0432
 1065YOPC   D3B13923  15.021   7.247   7.634  0.1758  0.2349 -0.1255
 1065YOPC   C4B13924  15.025   7.502   7.973 -0.2144  0.2706 -0.2719
 1066YOPC   NC313925   9.625  15.335   5.934 -0.0267 -0.0290 -0.3504
 1066YOPC   PO413926   9.235  15.585   5.878  0.0101  0.2298  0.2483
 1066YOPC   GL113927   9.056  16.006   6.149 -0.0439  0.0182  0.2990
 1066YOPC   GL213928   8.876  16.237   6.007  0.3098  0.2105  0.3152
 1066YOPC   C1A13929   8.911  16.017   6.543 -0.1232  0.0369  0.0973
 1066YOPC   D2A13930   8.746  15.949   6.996  0.0497 -0.1661  0.2852
 1066YOPC   C3A13931   8.952  16.080   7.298 -0.0950  0.2753 -0.0106
 1066YOPC   C4A13932   8.937  16.024   7.753  0.0279 -0.0979  0.1547
 1066YOPC   C1B13933   8.555  16.292   6.388 -0.1320  0.1268 -0.1084
 1066YOPC   C2B13934   8.362  16.092   6.618 -0.1162 -0.0087  0.2387
 1066YOPC   D3B13935   7.917  16.116   6.791  0.0346  0.0603 -0.2635
 1066YOPC   C4B13936   7.648  16.250   7.059 -0.2780 -0.1369 -0.0159
 1067YOPC   NC313937   0.822  15.822   5.214  0.1576 -0.0060 -0.2641
 1067YOPC   PO413938   0.577  15.420   5.495 -0.0046 -0.0917  0.1239
 1067YOPC   GL113939   0.608  15.436   5.934 -0.0017 -0.0381  0.0854
 1067YOPC   GL213940   0.358  15.232   5.959 -0.1605  0.2325  0.3622
 1067YOPC   C1A13941   0.926  15.412   6.223 -0.0831  0.0486 -0.0427
 1067YOPC   D2A13942   1.359  15.495   6.488 -0.0737 -0.2244  0.1008
 1067YOPC   C3A13943   1.370  15.714   6.874  0.2412 -0.1416 -0.1069
 1067YOPC   C4A13944   1.126  15.935   7.265  0.2445 -0.1090 -0.1064
 1067YOPC   C1B13945   0.300  15.604   6.241 -0.0632  0.1953 -0.0066
 1067YOPC   C2B13946   0.325  15.766   6.574 -0.0170 -0.1130 -0.2278
 1067YOPC   D3B13947   0.540  16.123   6.609  0.0454 -0.1256  0.0400
 1067YOPC   C4B13948   0.486  16.513   6.464  0.0574  0.0065  0.1607
 1068YOPC   NC313949   7.445   6.647   6.557 -0.4237  0.1231  0.2290
 1068YOPC   PO413950   7.563   6.978   6.386 -0.2232 -0.0684 -0.1723
 1068YOPC   GL113951   7.583   7.128   6.818  0.0047  0.1321 -0.1800
 1068YOPC   GL213952   7.802   7.390   6.981 -0.2776  0.1715 -0.1255
 1068YOPC   C1A13953   7.431   6.956   7.233 -0.1746 -0.0434 -0.5495
 1068YOPC   D2A13954   7.181   6.626   7.498 -0.0100  0.1549  0.2348
 1068YOPC   C3A13955   7.256   6.483   7.906  0.3902  0.0844  0.0022
 1068YOPC   C4A13956   7.488   6.437   8.289 -0.1406  0.4505 -0.0284
 1068YOPC   C1B13957   8.202   7.640   7.165 -0.0477  0.1933  0.1388
 1068YOPC   C2B13958   8.265   7.731   7.583 -0.0310  0.0871  0.0563
 1068YOPC   D3B13959   8.125   7.955   7.910 -0.2280  0.3167  0.0202
 1068YOPC   C4B13960   8.269   8.007   8.359 -0.2254 -0.0066 -0.2553
 1069YOPC   NC313961   4.987   0.072   4.928  0.0638 -0.3171 -0.2211
 1069YOPC   PO413962   5.246   0.292   5.375 -0.2687 -0.1033 -0.2361
 1069YOPC   GL113963   5.280   0.182   5.782  0.2902  0.0901 -0.0493
 1069YOPC   GL213964   4.996   0.011   5.776 -0.2986 -0.1962  0.0804
 1069YOPC   C1A13965   5.366   0.406   6.123 -0.2997 -0.0370  0.1315
 1069YOPC   D2A13966   5.402   0.327   6.619 -0.3054  0.1684  0.1516
 1069YOPC   C3A13967   5.448   0.290   7.000 -0.6616 -0.0158 -0.1070
 1069YOPC   C4A13968   5.330   0.550   7.338 -0.1379 -0.1448 -0.1408
 1069YOPC   C1B13969   4.750  -0.169   6.145  0.2079 -0.6087  0.0458
 1069YOPC   C2B13970   4.639  -0.257   6.568  0.0566  0.0382 -0.4140
 1069YOPC   D3B13971   4.757   0.056   6.960  0.2257  0.2745 -0.1679
 1069YOPC   C4B13972   4.482   0.263   7.156 -0.0033  0.0457  0.1738
 1070YOPC   NC313973   4.631   6.992   6.173  0.0495 -0.2686 -0.3323
 1070YOPC   PO413974   4.458   7.346   6.413  0.0733  0.1084 -0.0299
 1070YOPC   GL113975   4.314   7.434   6.788 -0.0210 -0.2380 -0.1639
 1070YOPC   GL213976   4.592   7.507   6.922  0.2489 -0.0342  0.2713
 1070YOPC   C1A13977   4.161   7.735   7.097  0.1802  0.2192  0.0077
 1070YOPC   D2A13978   3.957   8.117   7.179 -0.0673  0.0773 -0.0897
 1070YOPC   C3A13979   3.773   8.217   7.457 -0.0812 -0.2907 -0.0630
 1070YOPC   C4A13980   3.448   8.478   7.634  0.0560  0.3508 -0.0861
 1070YOPC   C1B13981   4.536   7.528   7.340 -0.0009  0.1925 -0.1427
 1070YOPC   C2B13982   4.696   7.599   7.716  0.0473 -0.1187  0.0828
 1070YOPC   D3B13983   4.368   7.774   7.978 -0.1591 -0.1421  0.0529
 1070YOPC   C4B13984   4.070   7.809   7.610 -0.0753  0.3560  0.0869
 1071YOPC   NC313985  12.249   5.119   6.296  0.0709 -0.0454  0.0513
 1071YOPC   PO413986  11.812   5.117   6.148 -0.3616 -0.0914  0.1420
 1071YOPC   GL113987  11.816   5.070   6.573  0.3108 -0.1434 -0.1868
 1071YOPC   GL213988  12.144   4.922   6.788  0.1985  0.2575  0.0902
 1071YOPC   C1A13989  11.604   4.956   6.970 -0.3095  0.1001  0.1731
 1071YOPC   D2A13990  11.601   4.727   7.371  0.3208 -0.0550 -0.3160
 1071YOPC   C3A13991  11.595   4.276   7.409  0.0485 -0.0786  0.4229
 1071YOPC   C4A13992  11.205   4.084   7.544 -0.0142  0.0919  0.1123
 1071YOPC   C1B13993  12.108   4.815   7.302 -0.2525 -0.1001  0.0629
 1071YOPC   C2B13994  12.092   4.367   7.512  0.2602 -0.0277  0.0008
 1071YOPC   D3B13995  12.325   4.231   7.275  0.0256  0.4154 -0.0846
 1071YOPC   C4B13996  12.599   4.312   7.033 -0.0461  0.2966  0.0500
 1072YOPC   NC313997   4.559   0.970   4.810  0.5851 -0.0081 -0.0809
 1072YOPC   PO413998   4.479   1.408   5.097  0.3214 -0.1185  0.6283
 1072YOPC   GL113999   4.545   1.534   5.534  0.0173 -0.1679 -0.0651
 1072YOPC   GL214000   4.481   1.224   5.618 -0.0096  0.0846  0.2982
 1072YOPC   C1A14001   4.405   1.733   5.950  0.0593  0.2639 -0.1940
 1072YOPC   D2A14002   4.138   1.812   6.311  0.3535 -0.3281  0.4514
 1072YOPC   C3A14003   4.207   1.495   6.606 -0.2804 -0.0693  0.0828
 1072YOPC   C4A14004   4.007   1.160   6.758  0.0708 -0.1190  0.0558
 1072YOPC   C1B14005   4.076   1.063   5.818  0.0186  0.0940 -0.2103
 1072YOPC   C2B14006   3.611   1.050   5.870  0.0148  0.4982  0.2572
 1072YOPC   D3B14007   3.448   1.238   6.338 -0.0721  0.0431 -0.0602
 1072YOPC   C4B14008   3.205   1.066   6.649 -0.0889  0.0659  0.6731
 1073YOPC   NC314009  14.049  12.339   5.668  0.2633  0.2030  0.0852
 1073YOPC   PO414010  14.359  12.502   5.928  0.1061  0.0870 -0.1788
 1073YOPC   GL114011  14.347  12.816   6.234 -0.2821 -0.2220  0.1836
 1073YOPC   GL214012  14.102  12.896   6.507 -0.1502  0.4431 -0.3248
 1073YOPC   C1A14013  14.703  13.005   6.480 -0.1063  0.2229 -0.1222
 1073YOPC   D2A14014  14.776  13.281   6.909  0.1760  0.1403 -0.0640
 1073YOPC   C3A14015  14.473  13.361   7.186  0.1009  0.2666 -0.0527
 1073YOPC   C4A14016  14.204  13.480   7.527 -0.1021  0.0106 -0.1395
 1073YOPC   C1B14017  14.421  12.843   6.840 -0.1702 -0.1813  0.2933
 1073YOPC   C2B14018  14.749  12.609   7.200  0.0869  0.1844  0.1822
 1073YOPC   D3B14019  14.572  12.542   7.595  0.0869  0.2118 -0.0916
 1073YOPC   C4B14020  14.449  12.194   7.625  0.0807  0.0086 -0.0324
 1074YOPC   NC314021   8.375  14.371   5.253  0.0127  0.2153  0.0489
 1074YOPC   PO414022   8.853  14.271   5.294 -0.0176  0.0045  0.5072
 1074YOPC   GL114023   8.950  14.314   5.667 -0.2398  0.0554 -0.0734
 1074YOPC   GL214024   8.611  14.419   5.742 -0.0003  0.1286  0.3223
 1074YOPC   C1A14025   9.018  14.194   6.116 -0.1290  0.1954  0.1795
 1074YOPC   D2A14026   9.414  14.185   6.356  0.2228  0.2589 -0.1704
 1074YOPC   C3A14027   9.663  14.425   6.574 -0.0785  0.0718 -0.1338
 1074YOPC   C4A14028   9.534  14.758   6.899  0.1118 -0.0069  0.0295
 1074YOPC   C1B14029   8.417  14.779   5.944 -0.0738 -0.1175  0.2170
 1074YOPC   C2B14030   8.168  15.128   5.955  0.0751 -0.2087 -0.2553
 1074YOPC   D3B14031   7.894  15.059   6.296  0.0073  0.1599 -0.2308
 1074YOPC   C4B14032   7.361  15.066   6.252 -0.1670  0.4347  0.1865
 1075YOPC   NC314033  15.319  18.434   5.816 -0.4194 -0.0260  0.1651
 1075YOPC   PO414034  14.869  18.308   5.914 -0.1505 -0.0350 -0.0134
 1075YOPC   GL114035  15.103  18.208   6.236 -0.2443 -0.1120 -0.1802
 1075YOPC   GL214036  14.907  18.045   6.491 -0.1287  0.0120  0.0748
 1075YOPC   C1A14037  15.385  18.153   6.569 -0.1108 -0.2173 -0.2237
 1075YOPC   D2A14038  15.631  18.072   6.945 -0.1124 -0.2765  0.1608
 1075YOPC   C3A14039  15.729  17.792   7.282  0.2135  0.0135  0.3371
 1075YOPC   C4A14040  15.526  17.575   7.620 -0.0716 -0.1821 -0.1660
 1075YOPC   C1B14041  14.996  18.168   6.920 -0.0466  0.1514 -0.1058
 1075YOPC   C2B14042  14.750  18.275   7.346  0.1061  0.0409 -0.0077
 1075YOPC   D3B14043  15.033  18.356   7.673 -0.1221 -0.0579 -0.2441
 1075YOPC   C4B14044  15.248  17.961   7.889  0.0076  0.1813 -0.1758
 1076YOPC   NC314045  12.237  17.153   5.489  0.1779 -0.0531  0.1415
 1076YOPC   PO414046  12.456  17.215   5.920 -0.0258  0.0129 -0.2587
 1076YOPC   GL114047  12.554  16.932   6.231 -0.0556 -0.3209 -0.0007
 1076YOPC   GL214048  12.756  16.628   6.069 -0.0597  0.0237  0.2148
 1076YOPC   C1A14049  12.592  17.021   6.718 -0.1827 -0.2504 -0.1611
 1076YOPC   D2A14050  12.609  17.001   7.217  0.1086 -0.2790 -0.1058
 1076YOPC   C3A14051  12.365  17.022   7.597  0.2035  0.1800  0.2545
 1076YOPC   C4A14052  12.255  17.103   8.086  0.0249 -0.0553  0.1280
 1076YOPC   C1B14053  12.772  16.513   6.488 -0.0516 -0.1603 -0.1415
 1076YOPC   C2B14054  13.082  16.176   6.685 -0.1800 -0.0780  0.0081
 1076YOPC   D3B14055  12.955  16.144   7.153  0.2552  0.1767 -0.6699
 1076YOPC   C4B14056  12.627  16.083   7.466 -0.2984  0.0871 -0.0481
 1077YOPC   NC314057  16.569  11.367   5.111  0.2557 -0.3737  0.0994
 1077YOPC   PO414058  16.588  11.489   5.601 -0.4218 -0.3099 -0.0189
 1077YOPC   GL114059  16.562  11.756   5.943 -0.0285  0.1664 -0.1830
 1077YOPC   GL214060  16.324  11.474   6.045  0.1798 -0.1127 -0.0843
 1077YOPC   C1A14061  16.669  11.986   6.264 -0.1687 -0.1273  0.0031
 1077YOPC   D2A14062  16.731  12.254   6.557 -0.0304  0.0714 -0.1847
 1077YOPC   C3A14063  16.685  12.324   6.955  0.3578  0.2043  0.1928
 1077YOPC   C4A14064  16.802  12.314   7.390 -0.3068 -0.0451 -0.3340
 1077YOPC   C1B14065  16.179  11.751   6.352  0.0463 -0.0389 -0.3763
 1077YOPC   C2B14066  16.229  12.088   6.565 -0.2755 -0.2090  0.0009
 1077YOPC   D3B14067  16.138  12.086   6.902  0.1600  0.0982 -0.0087
 1077YOPC   C4B14068  16.279  12.255   7.336  0.2931  0.1039 -0.0587
 1078YOPC   NC314069  12.319   3.256   6.263 -0.1674 -0.1944 -0.1397
 1078YOPC   PO414070  11.981   3.223   6.513 -0.1897 -0.1430  0.2144
 1078YOPC   GL114071  12.282   3.642   6.688 -0.0553 -0.3423 -0.0855
 1078YOPC   GL214072  12.641   3.481   6.657  0.0347 -0.0326  0.0374
 1078YOPC   C1A14073  12.333   3.763   7.105  0.1052  0.0342 -0.0439
 1078YOPC   D2A14074  12.553   3.724   7.424 -0.2649  0.1827  0.0293
 1078YOPC   C3A14075  12.326   3.733   7.740 -0.2754 -0.1582  0.1623
 1078YOPC   C4A14076  11.970   3.622   7.871  0.2203 -0.0787 -0.1051
 1078YOPC   C1B14077  12.730   3.403   7.079 -0.2373  0.1517  0.0098
 1078YOPC   C2B14078  12.751   3.172   7.443 -0.1254  0.2380  0.1797
 1078YOPC   D3B14079  12.679   3.374   7.893  0.2422 -0.0346  0.1253
 1078YOPC   C4B14080  12.501   3.521   8.261  0.2328  0.0776 -0.0507
 1079YOPC   NC314081   6.315  13.721   5.752  0.1007  0.0218  0.3855
 1079YOPC   PO414082   6.013  14.003   5.928 -0.1193 -0.0286  0.0674
 1079YOPC   GL114083   5.932  13.721   6.318 -0.1209  0.0817  0.0520
 1079YOPC   GL214084   5.646  13.973   6.343 -0.3821 -0.1532 -0.0983
 1079YOPC   C1A14085   6.023  13.482   6.764  0.3120  0.1259 -0.0818
 1079YOPC   D2A14086   5.963  13.474   7.195 -0.0809 -0.0088 -0.4748
 1079YOPC   C3A14087   5.708  13.574   7.489 -0.3344  0.0249  0.1165
 1079YOPC   C4A14088   5.616  13.801   7.980 -0.0857 -0.0570 -0.1220
 1079YOPC   C1B14089   5.501  13.830   6.647  0.0026  0.1544 -0.2383
 1079YOPC   C2B14090   5.524  13.530   7.053  0.0162 -0.0367 -0.0957
 1079YOPC   D3B14091   5.145  13.237   7.180  0.3806 -0.3560 -0.0351
 1079YOPC   C4B14092   4.918  12.974   7.299 -0.2245  0.1295  0.2152
 1080YOPC   NC314093   6.237   7.446   6.463 -0.1562  0.1787  0.2787
 1080YOPC   PO414094   6.311   6.958   6.549  0.1644 -0.3189 -0.4834
 1080YOPC   GL114095   6.205   6.504   6.761  0.1140 -0.2243 -0.1826
 1080YOPC   GL214096   6.183   6.329   6.512 -0.2363  0.0819  0.0480
 1080YOPC   C1A14097   6.056   6.266   7.132  0.3171  0.0974  0.2043
 1080YOPC   D2A14098   6.035   6.396   7.539  0.0872  0.2429 -0.3692
 1080YOPC   C3A14099   6.135   6.123   7.915  0.1828  0.1073 -0.1704
 1080YOPC   C4A14100   6.496   5.901   7.939  0.4615 -0.0699 -0.0655
 1080YOPC   C1B14101   6.032   5.960   6.732  0.0041  0.0974 -0.2161
 1080YOPC   C2B14102   6.164   5.682   7.010  0.1240 -0.2084  0.0541
 1080YOPC   D3B14103   5.955   5.398   7.337  0.0492 -0.1685 -0.1510
 1080YOPC   C4B14104   5.757   5.155   7.762 -0.2006 -0.0046 -0.2400
 1081YOPC   NC314105  16.265   2.890   5.753  0.1895  0.0570  0.0335
 1081YOPC   PO414106  15.853   2.841   6.035  0.1976  0.1718  0.1175
 1081YOPC   GL114107  15.859   2.555   6.269 -0.0918 -0.0422 -0.2349
 1081YOPC   GL214108  15.826   2.260   6.286 -0.0078  0.0572  0.0438
 1081YOPC   C1A14109  15.839   2.504   6.717 -0.0905  0.1426  0.2130
 1081YOPC   D2A14110  15.997   2.492   7.090 -0.1531 -0.1391  0.4033
 1081YOPC   C3A14111  15.810   2.292   7.504 -0.1315 -0.5611 -0.0812
 1081YOPC   C4A14112  16.066   2.207   7.839 -0.0479 -0.0090  0.2177
 1081YOPC   C1B14113  15.713   2.069   6.630  0.0774  0.1685 -0.1012
 1081YOPC   C2B14114  15.745   2.048   7.081 -0.1205  0.1047 -0.0092
 1081YOPC   D3B14115  16.025   1.717   7.324  0.0752  0.1027 -0.0410
 1081YOPC   C4B14116  16.177   1.566   7.716  0.1061 -0.1779  0.1028
 1082YOPC   NC314117   4.092  15.328   5.351 -0.0495 -0.0151  0.1408
 1082YOPC   PO414118   4.358  15.545   5.564  0.0338  0.1139  0.4308
 1082YOPC   GL114119   4.200  15.497   5.979 -0.1083 -0.2082  0.2435
 1082YOPC   GL214120   4.143  15.156   5.933 -0.0844 -0.0347  0.0750
 1082YOPC   C1A14121   4.285  15.718   6.383  0.0925  0.0842  0.0707
 1082YOPC   D2A14122   4.325  15.634   6.780 -0.1231  0.1634 -0.1144
 1082YOPC   C3A14123   4.657  15.551   6.982 -0.2533  0.2228  0.0013
 1082YOPC   C4A14124   5.106  15.514   7.113  0.0584  0.0508 -0.2686
 1082YOPC   C1B14125   4.073  15.138   6.324  0.0749  0.0696  0.1704
 1082YOPC   C2B14126   3.762  15.006   6.634  0.3494 -0.1049 -0.2487
 1082YOPC   D3B14127   3.422  15.078   6.631  0.1516  0.0399  0.0088
 1082YOPC   C4B14128   3.024  14.883   6.691 -0.2245 -0.1031 -0.2471
 1083YOPC   NC314129   2.197  16.204   5.033 -0.1554 -0.2774  0.2889
 1083YOPC   PO414130   2.612  15.931   5.158  0.2005 -0.0302 -0.2415
 1083YOPC   GL114131   2.514  15.861   5.580  0.2843  0.0388 -0.0533
 1083YOPC   GL214132   2.717  15.619   5.689 -0.0220  0.0126  0.3840
 1083YOPC   C1A14133   2.425  15.796   6.050 -0.0736  0.1614  0.1256
 1083YOPC   D2A14134   2.439  15.682   6.497  0.2480 -0.1058  0.0680
 1083YOPC   C3A14135   2.127  15.549   6.826  0.1526 -0.0636  0.0791
 1083YOPC   C4A14136   1.870  15.206   7.013 -0.0678 -0.3640  0.1687
 1083YOPC   C1B14137   2.938  15.347   5.922 -0.0352 -0.4823  0.2286
 1083YOPC   C2B14138   3.338  15.507   6.191 -0.0394 -0.0252  0.0434
 1083YOPC   D3B14139   3.360  15.618   6.663  0.3300  0.0604 -0.0269
 1083YOPC   C4B14140   3.741  15.479   6.915  0.1932 -0.1040  0.2480
 1084YOPC   NC314141   6.069   5.244   5.902  0.0282 -0.0745 -0.1574
 1084YOPC   PO414142   6.040   4.871   5.752 -0.3492  0.2888  0.0653
 1084YOPC   GL114143   5.966   4.838   6.231 -0.0184  0.1817  0.1233
 1084YOPC   GL214144   5.826   5.174   6.339 -0.2334  0.1873  0.2472
 1084YOPC   C1A14145   5.747   4.705   6.655  0.2517  0.0599 -0.2007
 1084YOPC   D2A14146   5.992   4.511   7.030  0.3033 -0.0683 -0.1211
 1084YOPC   C3A14147   6.278   4.600   7.350 -0.2471 -0.0821 -0.1128
 1084YOPC   C4A14148   6.184   4.290   7.586 -0.0088  0.1658  0.1888
 1084YOPC   C1B14149   5.762   5.543   6.642 -0.1028  0.3259 -0.3408
 1084YOPC   C2B14150   5.544   5.529   7.032  0.0511 -0.0962  0.1266
 1084YOPC   D3B14151   5.265   5.854   7.274  0.2224 -0.1720 -0.0059
 1084YOPC   C4B14152   5.312   6.321   7.243 -0.0300 -0.0045 -0.2232
 1085YOPC   NC314153  11.095   9.091   5.446  0.0809 -0.0483 -0.1132
 1085YOPC   PO414154  10.994   9.207   5.897  0.1818  0.0191 -0.2009
 1085YOPC   GL114155  10.903   9.628   6.077 -0.0174  0.3618 -0.0334
 1085YOPC   GL214156  10.670   9.839   6.076 -0.1402 -0.0502 -0.0337
 1085YOPC   C1A14157  11.239   9.883   6.179  0.1283  0.1836 -0.0621
 1085YOPC   D2A14158  11.264  10.138   6.556 -0.1071 -0.3325 -0.3144
 1085YOPC   C3A14159  10.980  10.492   6.577 -0.1209 -0.0238  0.3675
 1085YOPC   C4A14160  10.517  10.485   6.771  0.0735 -0.1059 -0.0613
 1085YOPC   C1B14161  10.633  10.102   6.490 -0.1059 -0.2336  0.0172
 1085YOPC   C2B14162  10.814  10.071   6.904  0.0280  0.1146  0.0363
 1085YOPC   D3B14163  10.839  10.556   7.146  0.0165 -0.2124  0.5144
 1085YOPC   C4B14164  11.035  10.893   7.483 -0.1942 -0.0341 -0.2463
 1086YOPC   NC314165   6.181  14.404   5.785 -0.3478 -0.0190 -0.0916
 1086YOPC   PO414166   6.478  14.146   5.698 -0.1388  0.0215  0.1116
 1086YOPC   GL114167   6.455  14.101   6.062 -0.2877 -0.0485  0.0555
 1086YOPC   GL214168   6.389  14.322   6.308 -0.1371  0.2214 -0.3662
 1086YOPC   C1A14169   6.446  13.813   6.433  0.0415  0.2342  0.0919
 1086YOPC   D2A14170   6.582  13.401   6.748 -0.0799  0.1323 -0.2330
 1086YOPC   C3A14171   7.010  13.166   6.938  0.2094  0.1589 -0.0031
 1086YOPC   C4A14172   7.147  12.801   7.114  0.4617 -0.0293  0.3093
 1086YOPC   C1B14173   6.139  14.036   6.701  0.0990 -0.1304  0.1721
 1086YOPC   C2B14174   6.345  13.787   6.970  0.1132  0.0184 -0.2087
 1086YOPC   D3B14175   6.333  13.736   7.407  0.0269  0.1722  0.2960
 1086YOPC   C4B14176   6.041  13.871   7.725 -0.0576 -0.1659 -0.0022
 1087YOPC   NC314177  15.954  12.977   5.567  0.0507 -0.0401  0.0426
 1087YOPC   PO414178  15.625  13.235   5.833 -0.1533  0.1647 -0.0192
 1087YOPC   GL114179  15.654  13.340   6.305  0.0672  0.1837 -0.0093
 1087YOPC   GL214180  15.467  13.140   6.511 -0.3872 -0.0513  0.0375
 1087YOPC   C1A14181  16.019  13.529   6.589  0.1460 -0.0820  0.0929
 1087YOPC   D2A14182  16.204  13.838   6.369 -0.1093 -0.2842 -0.1163
 1087YOPC   C3A14183  16.250  14.045   6.737 -0.1492  0.4607  0.4179
 1087YOPC   C4A14184  16.463  13.892   7.059  0.1991 -0.0333  0.2977
 1087YOPC   C1B14185  15.572  13.048   7.004  0.0663  0.0565 -0.1882
 1087YOPC   C2B14186  15.598  12.886   7.396 -0.2047 -0.1049  0.1805
 1087YOPC   D3B14187  15.915  13.125   7.662  0.5397  0.2515  0.2053
 1087YOPC   C4B14188  16.132  13.484   7.941  0.2080 -0.2683 -0.2044
 1088YOPC   NC314189   2.295  15.466   5.203 -0.1449 -0.1972  0.1909
 1088YOPC   PO414190   2.632  15.157   5.398 -0.1918  0.0048  0.4625
 1088YOPC   GL114191   2.396  15.249   5.781 -0.0898  0.1633 -0.2568
 1088YOPC   GL214192   2.135  15.316   5.703 -0.3588  0.4460  0.1489
 1088YOPC   C1A14193   2.464  15.236   6.231  0.1743 -0.1205 -0.0388
 1088YOPC   D2A14194   2.448  15.104   6.637  0.1386 -0.0609  0.1837
 1088YOPC   C3A14195   2.419  15.193   7.139  0.3779  0.0548  0.1962
 1088YOPC   C4A14196   2.438  14.835   7.380 -0.1205  0.0294 -0.0763
 1088YOPC   C1B14197   1.914  15.683   5.860  0.0721 -0.1103 -0.3148
 1088YOPC   C2B14198   1.823  15.980   6.161  0.0232  0.2962 -0.1046
 1088YOPC   D3B14199   1.770  15.894   6.648 -0.1089 -0.1685  0.3350
 1088YOPC   C4B14200   1.627  16.134   6.980  0.1508  0.0070  0.1747
 1089YOPC   NC314201  10.559   6.448   6.620  0.1346 -0.0623  0.1889
 1089YOPC   PO414202  10.356   6.104   6.614 -0.0255  0.1591 -0.0195
 1089YOPC   GL114203  10.428   6.020   7.041 -0.2434 -0.1753  0.0145
 1089YOPC   GL214204  10.723   6.305   7.046  0.1428  0.2625  0.1640
 1089YOPC   C1A14205  10.699   6.020   7.509  0.2474 -0.1337  0.1836
 1089YOPC   D2A14206  10.821   5.814   7.889 -0.1088 -0.2819  0.0719
 1089YOPC   C3A14207  10.902   5.493   8.172 -0.2001 -0.0717  0.1913
 1089YOPC   C4A14208  10.828   5.471   8.575 -0.1216  0.1268 -0.1955
 1089YOPC   C1B14209  11.093   6.200   7.410 -0.0005  0.1874  0.0916
 1089YOPC   C2B14210  11.185   6.196   7.841  0.2217 -0.0746  0.2308
 1089YOPC   D3B14211  11.236   5.842   8.086 -0.1497  0.1209  0.1577
 1089YOPC   C4B14212  11.319   5.620   8.433  0.2743 -0.2778  0.1020
 1090YOPC   NC314213   4.158  12.283   5.597  0.1579  0.2598 -0.2282
 1090YOPC   PO414214   4.387  11.886   5.824  0.3026  0.1949  0.2769
 1090YOPC   GL114215   4.478  11.894   6.260  0.1811  0.0048 -0.1603
 1090YOPC   GL214216   4.355  11.760   6.484  0.1849  0.0675  0.2216
 1090YOPC   C1A14217   4.823  11.526   6.504 -0.3926  0.1027  0.1091
 1090YOPC   D2A14218   5.100  11.497   6.802  0.2356 -0.3342 -0.0109
 1090YOPC   C3A14219   5.199  11.351   7.180  0.1286  0.4921  0.0726
 1090YOPC   C4A14220   5.089  11.160   7.520 -0.1927 -0.1185  0.2001
 1090YOPC   C1B14221   4.464  11.664   6.876 -0.1578  0.3265  0.5249
 1090YOPC   C2B14222   4.462  11.768   7.343 -0.2613  0.0775 -0.0953
 1090YOPC   D3B14223   4.721  12.070   7.421  0.3064 -0.0263 -0.0548
 1090YOPC   C4B14224   5.095  12.129   7.690  0.1883  0.0248 -0.1677
 1091YOPC   NC314225  14.105   7.461   6.033 -0.1537  0.3417  0.3180
 1091YOPC   PO414226  13.868   7.722   6.318 -0.1070 -0.0903 -0.1013
 1091YOPC   GL114227  13.823   7.902   6.758  0.2651  0.0701 -0.3667
 1091YOPC   GL214228  14.120   7.826   6.762  0.2014  0.1111 -0.1737
 1091YOPC   C1A14229  13.735   7.996   7.107 -0.3362  0.1272 -0.0066
 1091YOPC   D2A14230  13.560   8.138   7.496 -0.1290  0.0649  0.4856
 1091YOPC   C3A14231  13.632   8.215   7.937  0.0413 -0.0940 -0.0249
 1091YOPC   C4A14232  13.786   8.375   8.337 -0.0395 -0.3400 -0.1391
 1091YOPC   C1B14233  14.221   7.950   7.170 -0.0989 -0.1539  0.0507
 1091YOPC   C2B14234  13.991   8.045   7.594 -0.4849 -0.3466  0.1305
 1091YOPC   D3B14235  14.291   7.923   7.872  0.0132  0.0182 -0.2403
 1091YOPC   C4B14236  14.337   8.111   8.229 -0.0966  0.0483 -0.1736
 1092YOPC   NC314237   2.543  12.027   5.959 -0.0028  0.1745  0.0329
 1092YOPC   PO414238   2.135  11.680   5.955 -0.0452  0.0435  0.2040
 1092YOPC   GL114239   1.997  11.767   6.277  0.1407 -0.1243  0.1077
 1092YOPC   GL214240   1.765  12.080   6.296 -0.0521 -0.2947  0.0263
 1092YOPC   C1A14241   1.783  11.683   6.634 -0.0006  0.0847 -0.0798
 1092YOPC   D2A14242   2.046  11.587   6.938 -0.1631 -0.1702  0.1625
 1092YOPC   C3A14243   2.365  11.565   6.716  0.3679  0.0498 -0.1094
 1092YOPC   C4A14244   2.704  11.679   6.628 -0.2139  0.0507  0.1476
 1092YOPC   C1B14245   1.509  12.209   6.668  0.2100  0.0203 -0.0490
 1092YOPC   C2B14246   1.319  12.264   7.069 -0.0881  0.1951 -0.2577
 1092YOPC   D3B14247   1.403  12.314   7.434  0.0596  0.0294 -0.3093
 1092YOPC   C4B14248   1.792  12.383   7.588  0.1581  0.1137 -0.1471
 1093YOPC   NC314249   1.585  16.997   4.968  0.0769 -0.0102 -0.3058
 1093YOPC   PO414250   1.986  17.359   4.891  0.3749  0.1836 -0.1800
 1093YOPC   GL114251   2.132  17.489   5.383 -0.0027  0.2196  0.3396
 1093YOPC   GL214252   2.028  17.825   5.564 -0.4112 -0.0147  0.1073
 1093YOPC   C1A14253   2.303  17.351   5.767 -0.0966  0.3057 -0.1722
 1093YOPC   D2A14254   2.359  17.066   6.190  0.1722  0.2691  0.1033
 1093YOPC   C3A14255   2.563  16.651   6.283  0.2202 -0.1051 -0.0198
 1093YOPC   C4A14256   2.888  16.349   6.138 -0.2481 -0.1410  0.1835
 1093YOPC   C1B14257   1.804  17.954   5.945  0.1309  0.0997  0.4474
 1093YOPC   C2B14258   1.712  18.096   6.268  0.0336  0.2299 -0.1728
 1093YOPC   D3B14259   1.766  17.868   6.668 -0.2684  0.0698  0.1002
 1093YOPC   C4B14260   1.874  17.883   7.085 -0.0316  0.0623 -0.3029
 1094YOPC   NC314261   4.463  10.275   5.957 -0.1815  0.2684 -0.2828
 1094YOPC   PO414262   4.920  10.144   6.171 -0.0276 -0.1648 -0.0774
 1094YOPC   GL114263   4.646  10.120   6.429 -0.1896 -0.1010 -0.0966
 1094YOPC   GL214264   4.632   9.795   6.706  0.1383  0.2247 -0.2343
 1094YOPC   C1A14265   4.397  10.150   6.849  0.2931  0.0060  0.0225
 1094YOPC   D2A14266   4.568  10.203   7.267 -0.1189  0.2739  0.0373
 1094YOPC   C3A14267   4.544  10.445   7.598  0.1091 -0.2079  0.0192
 1094YOPC   C4A14268   4.129  10.563   7.912 -0.0404  0.2536  0.1906
 1094YOPC   C1B14269   4.797   9.760   7.150  0.1182 -0.1447 -0.0879
 1094YOPC   C2B14270   4.762   9.805   7.496 -0.1688 -0.0773  0.1325
 1094YOPC   D3B14271   5.156   9.734   7.834  0.0103 -0.0588 -0.1523
 1094YOPC   C4B14272   5.466   9.498   8.061  0.1840 -0.1458  0.0099
 1095YOPC   NC314273   3.119   7.412   5.821  0.0997  0.0541 -0.1980
 1095YOPC   PO414274   2.805   7.723   5.891  0.0298  0.4419  0.0154
 1095YOPC   GL114275   2.826   7.916   6.291 -0.0009  0.2196 -0.1839
 1095YOPC   GL214276   2.492   7.792   6.410 -0.1265  0.1266  0.1748
 1095YOPC   C1A14277   2.948   7.958   6.692 -0.2063  0.0234  0.4344
 1095YOPC   D2A14278   2.548   8.042   6.924  0.2137 -0.2227  0.1056
 1095YOPC   C3A14279   2.577   8.253   7.307 -0.0829  0.5096  0.1678
 1095YOPC   C4A14280   2.390   8.427   7.698  0.2873  0.2924 -0.0843
 1095YOPC   C1B14281   2.643   7.574   6.796 -0.2646  0.2361 -0.3345
 1095YOPC   C2B14282   2.805   7.214   6.942  0.0144 -0.0760  0.1181
 1095YOPC   D3B14283   2.598   6.874   7.090  0.2244 -0.0068 -0.0108
 1095YOPC   C4B14284   2.264   6.611   7.246  0.2462 -0.0707  0.0721
 1096YOPC   NC314285  11.353   7.865   6.164 -0.1716  0.2201 -0.1141
 1096YOPC   PO414286  11.812   7.747   6.196  0.1547 -0.0581 -0.0009
 1096YOPC   GL114287  11.735   7.893   6.589  0.5560  0.2212  0.0668
 1096YOPC   GL214288  11.580   8.153   6.535 -0.3264  0.1123 -0.0891
 1096YOPC   C1A14289  11.827   7.663   7.035  0.2305  0.0204 -0.1301
 1096YOPC   D2A14290  11.822   7.447   7.362 -0.0889 -0.0789  0.0452
 1096YOPC   C3A14291  12.056   7.602   7.782  0.0485 -0.1388 -0.1407
 1096YOPC   C4A14292  12.164   8.096   7.864 -0.4499 -0.0974 -0.0361
 1096YOPC   C1B14293  11.443   7.956   6.960  0.2610  0.0473  0.0016
 1096YOPC   C2B14294  11.480   7.935   7.403 -0.1165  0.1587 -0.0973
 1096YOPC   D3B14295  11.292   7.529   7.439 -0.3542  0.0542  0.2111
 1096YOPC   C4B14296  11.489   7.085   7.498  0.1777 -0.4152  0.1465
 1097YOPC   NC314297  17.560   6.590   6.074 -0.0967  0.2881  0.3180
 1097YOPC   PO414298  17.347   6.984   6.179  0.0887 -0.1246  0.1614
 1097YOPC   GL114299  17.328   7.067   6.628  0.2484 -0.0133  0.0290
 1097YOPC   GL214300  17.294   6.811   6.941  0.1028  0.0634 -0.1259
 1097YOPC   C1A14301  17.507   7.315   7.033 -0.0252 -0.0321  0.2054
 1097YOPC   D2A14302  17.487   7.368   7.370  0.0304  0.1061 -0.2878
 1097YOPC   C3A14303  17.348   7.202   7.687  0.0341  0.0436 -0.0403
 1097YOPC   C4A14304  17.072   7.281   8.026 -0.0800 -0.0470 -0.0705
 1097YOPC   C1B14305  17.679   6.737   7.026  0.1721 -0.1353  0.1412
 1097YOPC   C2B14306  17.841   7.000   7.346 -0.3574  0.1502  0.0709
 1097YOPC   D3B14307  17.716   6.694   7.708  0.1543  0.0753 -0.0835
 1097YOPC   C4B14308  17.920   6.339   7.935  0.2302 -0.1946  0.2010
 1098YOPC   NC314309  10.761  13.708   5.396  0.0325 -0.2214  0.2361
 1098YOPC   PO414310  10.739  13.657   5.866  0.2982  0.1469 -0.0070
 1098YOPC   GL114311  10.562  13.666   6.201 -0.0327  0.2302  0.0389
 1098YOPC   GL214312  10.338  13.942   6.130  0.3783  0.2840 -0.3522
 1098YOPC   C1A14313  10.601  13.432   6.657 -0.0498  0.0739  0.0511
 1098YOPC   D2A14314  10.697  13.574   7.038 -0.0108 -0.2755  0.1398
 1098YOPC   C3A14315  10.564  13.343   7.405  0.1267 -0.0381 -0.0898
 1098YOPC   C4A14316  10.164  13.235   7.711  0.1138  0.1322 -0.3937
 1098YOPC   C1B14317  10.058  13.630   6.513  0.1112  0.0358 -0.2326
 1098YOPC   C2B14318   9.755  13.431   6.847  0.0926 -0.0180 -0.0568
 1098YOPC   D3B14319   9.756  13.050   6.968  0.0350  0.0043  0.1872
 1098YOPC   C4B14320   9.428  12.860   7.319  0.0267  0.0827 -0.2991
 1099YOPC   NC314321   4.313   4.561   5.715 -0.1247  0.0216 -0.1229
 1099YOPC   PO414322   4.046   4.214   5.851 -0.0819 -0.4198  0.1588
 1099YOPC   GL114323   4.130   4.062   6.357  0.0634  0.1392  0.0922
 1099YOPC   GL214324   4.230   3.814   6.250  0.0445  0.1746  0.0891
 1099YOPC   C1A14325   3.997   3.986   6.791 -0.2103  0.0686  0.0239
 1099YOPC   D2A14326   3.834   4.212   7.149  0.2539  0.0773 -0.2165
 1099YOPC   C3A14327   3.523   4.228   7.482  0.0172 -0.0734  0.3603
 1099YOPC   C4A14328   3.575   4.172   7.901 -0.1538  0.1737 -0.0764
 1099YOPC   C1B14329   4.272   3.614   6.658  0.1403 -0.1144  0.1830
 1099YOPC   C2B14330   4.241   3.568   7.023 -0.0898 -0.2824 -0.0998
 1099YOPC   D3B14331   4.307   3.091   7.212  0.1061 -0.4549 -0.1955
 1099YOPC   C4B14332   4.127   2.719   7.390  0.1292  0.0407 -0.2057
 1100YOPC   NC314333  12.746   4.334   5.986 -0.0184  0.2340 -0.0170
 1100YOPC   PO414334  12.567   4.643   6.145 -0.2211 -0.1734 -0.0900
 1100YOPC   GL114335  12.580   4.600   6.576 -0.0525  0.0071 -0.0520
 1100YOPC   GL214336  12.882   4.677   6.727 -0.0483  0.0502  0.0675
 1100YOPC   C1A14337  12.579   4.781   7.056  0.0639  0.0754  0.4247
 1100YOPC   D2A14338  12.583   4.603   7.446 -0.1822 -0.2125 -0.1065
 1100YOPC   C3A14339  12.365   4.761   7.703  0.1714  0.2184  0.0888
 1100YOPC   C4A14340  12.385   4.590   8.116 -0.0010 -0.0088  0.1079
 1100YOPC   C1B14341  13.141   4.900   7.134  0.3793 -0.2387  0.0638
 1100YOPC   C2B14342  12.962   4.982   7.539  0.0504 -0.1154  0.2814
 1100YOPC   D3B14343  12.973   4.632   7.850 -0.0363  0.0512 -0.0080
 1100YOPC   C4B14344  12.781   4.492   8.342 -0.0454 -0.2692  0.0267
 1101YOPC   NC314345  16.162  15.273   5.220  0.2478  0.2508 -0.1897
 1101YOPC   PO414346  16.087  14.867   5.326  0.0017  0.0349 -0.0877
 1101YOPC   GL114347  16.127  15.049   5.627  0.2805 -0.1168  0.1610
 1101YOPC   GL214348  15.828  15.030   5.746 -0.3480 -0.2941 -0.3793
 1101YOPC   C1A14349  16.223  15.246   6.053  0.1623 -0.1760  0.0186
 1101YOPC   D2A14350  16.062  15.066   6.437 -0.3382 -0.2050  0.0125
 1101YOPC   C3A14351  16.092  14.630   6.484 -0.3673 -0.0127  0.1425
 1101YOPC   C4A14352  16.021  14.338   6.362 -0.6477  0.1418 -0.1376
 1101YOPC   C1B14353  15.675  14.793   6.228 -0.1053 -0.0098  0.4479
 1101YOPC   C2B14354  15.520  14.567   6.509  0.1787  0.0906  0.0472
 1101YOPC   D3B14355  15.746  14.447   6.868 -0.0841 -0.2220 -0.1351
 1101YOPC   C4B14356  15.570  14.259   7.214  0.0200  0.2007  0.0800
 1102YOPC   NC314357  11.766   3.678   6.429  0.1470 -0.0206  0.2947
 1102YOPC   PO414358  11.392   3.302   6.308  0.1660  0.3403 -0.0183
 1102YOPC   GL114359  11.535   3.311   6.697 -0.1547  0.0833 -0.2557
 1102YOPC   GL214360  11.610   3.557   6.916  0.1599  0.0738  0.2259
 1102YOPC   C1A14361  11.326   3.138   7.073  0.2218 -0.0858  0.1039
 1102YOPC   D2A14362  11.196   3.157   7.536  0.1749  0.0480 -0.1619
 1102YOPC   C3A14363  11.117   2.820   7.852  0.0215 -0.3197 -0.0325
 1102YOPC   C4A14364  10.935   2.596   8.156  0.4702  0.0856  0.0613
 1102YOPC   C1B14365  11.569   3.545   7.379 -0.0339  0.0752  0.1543
 1102YOPC   C2B14366  11.426   3.575   7.822  0.1488  0.2948  0.0078
 1102YOPC   D3B14367  11.267   3.332   8.025 -0.0238 -0.1909  0.1187
 1102YOPC   C4B14368  11.210   2.938   8.353  0.3006 -0.3830  0.0708
 1103YOPC   NC314369   9.302  12.150   5.138 -0.0043  0.2641 -0.0454
 1103YOPC   PO414370   9.414  12.596   5.406 -0.0544  0.0975  0.0015
 1103YOPC   GL114371   9.408  12.682   5.854  0.0846  0.1645 -0.4225
 1103YOPC   GL214372   9.529  12.507   6.071  0.0601 -0.1608 -0.0136
 1103YOPC   C1A14373   9.260  13.050   6.210  0.2677  0.1076  0.1375
 1103YOPC   D2A14374   9.270  13.278   6.660 -0.0292  0.1040 -0.0505
 1103YOPC   C3A14375   8.993  13.125   7.058 -0.2321  0.3689 -0.1273
 1103YOPC   C4A14376   8.891  12.816   7.477  0.0752  0.0354 -0.0265
 1103YOPC   C1B14377   9.780  12.244   6.375  0.2262  0.4469 -0.0430
 1103YOPC   C2B14378   9.654  11.826   6.729 -0.0935  0.1427 -0.1503
 1103YOPC   D3B14379   9.906  11.779   7.104  0.1324  0.0612  0.0681
 1103YOPC   C4B14380  10.308  12.037   7.228 -0.2402 -0.2685 -0.2265
 1104YOPC   NC314381   4.980  11.155   5.844 -0.1261 -0.4326  0.3182
 1104YOPC   PO414382   5.096  10.785   5.859  0.0928 -0.2803  0.0537
 1104YOPC   GL114383   5.124  10.604   6.238  0.2505  0.1109  0.1304
 1104YOPC   GL214384   4.781  10.598   6.299  0.2443  0.0049  0.2976
 1104YOPC   C1A14385   5.159  10.536   6.674 -0.0832  0.1757  0.1258
 1104YOPC   D2A14386   4.931  10.292   6.959  0.0411 -0.0556  0.2464
 1104YOPC   C3A14387   5.067  10.279   7.370 -0.0695 -0.1253  0.2035
 1104YOPC   C4A14388   4.943  10.211   7.737 -0.1831  0.1400 -0.2455
 1104YOPC   C1B14389   4.503  10.598   6.575  0.4251  0.1339  0.0909
 1104YOPC   C2B14390   4.484  10.650   6.987  0.0837  0.0019 -0.1354
 1104YOPC   D3B14391   4.513  11.040   7.048 -0.1507 -0.0743  0.5904
 1104YOPC   C4B14392   4.666  11.323   7.242  0.0489 -0.3382 -0.0320
 1105YOPC   NC314393   8.780   5.104   5.460  0.2541 -0.1890 -0.0390
 1105YOPC   PO414394   8.792   4.823   5.800 -0.1583 -0.2444  0.1361
 1105YOPC   GL114395   8.892   4.797   6.254 -0.2888  0.3122 -0.0419
 1105YOPC   GL214396   9.014   4.571   6.397  0.0853 -0.1699  0.0127
 1105YOPC   C1A14397   8.828   4.971   6.598  0.1254 -0.1248  0.1849
 1105YOPC   D2A14398   8.641   5.021   7.015 -0.0499  0.0113 -0.1809
 1105YOPC   C3A14399   8.669   4.816   7.365  0.0548 -0.1236  0.3641
 1105YOPC   C4A14400   8.415   4.679   7.590  0.0461 -0.0716 -0.3320
 1105YOPC   C1B14401   8.906   4.506   6.769  0.1849 -0.1352 -0.0476
 1105YOPC   C2B14402   9.132   4.504   7.146 -0.0716  0.0317 -0.0103
 1105YOPC   D3B14403   9.079   4.626   7.558 -0.0500 -0.2085 -0.1027
 1105YOPC   C4B14404   8.856   4.753   7.874 -0.1057  0.4013  0.0033
 1106YOPC   NC314405  12.197   8.048   6.318  0.1553 -0.0156  0.2616
 1106YOPC   PO414406  12.659   8.191   6.531  0.1314 -0.4041 -0.0893
 1106YOPC   GL114407  12.771   8.184   6.923 -0.2106 -0.0939  0.2858
 1106YOPC   GL214408  12.506   8.377   7.034  0.1509  0.3740 -0.0960
 1106YOPC   C1A14409  12.878   8.323   7.347  0.2987 -0.2267  0.0692
 1106YOPC   D2A14410  12.814   8.439   7.742 -0.2590 -0.3384 -0.1736
 1106YOPC   C3A14411  13.165   8.493   8.029  0.0820  0.0252 -0.0652
 1106YOPC   C4A14412  13.350   8.037   8.314 -0.2468 -0.0394 -0.2547
 1106YOPC   C1B14413  12.310   8.348   7.459 -0.1653 -0.1863 -0.0609
 1106YOPC   C2B14414  12.379   8.558   7.871 -0.0193 -0.0153 -0.0269
 1106YOPC   D3B14415  12.040   8.522   8.133  0.3430 -0.0714 -0.4569
 1106YOPC   C4B14416  11.616   8.480   8.187 -0.1328  0.0954 -0.2544
 1107YOPC   NC314417   3.434   2.888   5.161  0.0581 -0.0196 -0.1089
 1107YOPC   PO414418   3.590   3.263   5.195 -0.2425 -0.0006 -0.0477
 1107YOPC   GL114419   3.461   3.402   5.551 -0.1885  0.2467 -0.2282
 1107YOPC   GL214420   3.495   3.097   5.681 -0.1765 -0.2123  0.2768
 1107YOPC   C1A14421   3.295   3.710   5.875  0.2174 -0.0180  0.2619
 1107YOPC   D2A14422   3.311   3.977   6.138  0.0352 -0.1020 -0.0159
 1107YOPC   C3A14423   3.572   4.144   6.423 -0.0664  0.0694  0.2128
 1107YOPC   C4A14424   3.516   4.286   6.809  0.0581 -0.1675  0.3375
 1107YOPC   C1B14425   3.440   3.231   6.143  0.1146 -0.1696 -0.2783
 1107YOPC   C2B14426   3.415   3.098   6.566 -0.1578  0.2181 -0.2213
 1107YOPC   D3B14427   3.143   2.904   6.976 -0.1814 -0.0798 -0.1830
 1107YOPC   C4B14428   2.892   3.087   7.322 -0.1333  0.1911 -0.1286
 1108YOPC   NC314429  13.275  10.491   5.949  0.0610 -0.1859  0.1061
 1108YOPC   PO414430  13.188  10.811   5.874  0.1747 -0.1577 -0.0401
 1108YOPC   GL114431  13.262  11.108   6.277 -0.2478  0.0238  0.0478
 1108YOPC   GL214432  13.494  11.392   6.341  0.2583  0.2796  0.1305
 1108YOPC   C1A14433  13.077  11.257   6.747 -0.2193  0.1257  0.0931
 1108YOPC   D2A14434  12.917  11.117   7.208  0.2064  0.0930  0.2003
 1108YOPC   C3A14435  12.719  11.358   7.489 -0.2528  0.3554 -0.1973
 1108YOPC   C4A14436  12.785  11.518   7.853 -0.1306 -0.1240 -0.1169
 1108YOPC   C1B14437  13.491  11.555   6.725  0.0360 -0.1248  0.1838
 1108YOPC   C2B14438  13.662  11.631   7.133  0.1149  0.1915 -0.1713
 1108YOPC   D3B14439  13.379  11.610   7.435  0.2219  0.2071 -0.0226
 1108YOPC   C4B14440  13.238  11.817   7.729 -0.0631  0.2691  0.2164
 1109YOPC   NC314441   7.992   6.560   6.241  0.0273  0.1240 -0.1849
 1109YOPC   PO414442   7.659   6.384   6.177 -0.1130 -0.3198  0.3240
 1109YOPC   GL114443   7.858   6.144   6.559 -0.2262  0.2741  0.1502
 1109YOPC   GL214444   7.551   6.156   6.730 -0.2179 -0.0480 -0.0647
 1109YOPC   C1A14445   7.980   6.027   7.020 -0.1415 -0.2738 -0.2219
 1109YOPC   D2A14446   8.221   5.769   7.261 -0.0512  0.2852 -0.0353
 1109YOPC   C3A14447   8.316   5.680   7.736 -0.2102  0.1008 -0.0118
 1109YOPC   C4A14448   8.677   5.629   8.030 -0.1384 -0.0313 -0.1965
 1109YOPC   C1B14449   7.478   6.361   7.221  0.0841 -0.1671  0.0338
 1109YOPC   C2B14450   7.552   6.206   7.623 -0.1659 -0.0165  0.1422
 1109YOPC   D3B14451   7.908   6.102   7.628  0.0487 -0.2495  0.0673
 1109YOPC   C4B14452   8.171   6.125   8.018  0.2002  0.1284 -0.2004
 1110YOPC   NC314453   2.302  16.940   5.062 -0.2203  0.1076  0.0987
 1110YOPC   PO414454   1.930  16.635   5.038 -0.2279  0.3578  0.1238
 1110YOPC   GL114455   2.113  16.590   5.331 -0.0141 -0.1642  0.0132
 1110YOPC   GL214456   1.738  16.573   5.507 -0.0415  0.1308  0.0901
 1110YOPC   C1A14457   2.310  16.817   5.718  0.0138 -0.1162 -0.3928
 1110YOPC   D2A14458   2.638  16.993   5.773 -0.0025 -0.4836  0.0121
 1110YOPC   C3A14459   2.916  16.896   6.097 -0.0932 -0.1187 -0.1033
 1110YOPC   C4A14460   2.768  16.968   6.620 -0.0774  0.0335  0.3740
 1110YOPC   C1B14461   1.788  16.456   5.933 -0.0916  0.0490  0.0056
 1110YOPC   C2B14462   2.001  16.415   6.312 -0.2596  0.1624 -0.1674
 1110YOPC   D3B14463   2.207  16.797   6.582 -0.0838 -0.0763  0.1620
 1110YOPC   C4B14464   2.233  16.880   7.001 -0.5328 -0.2388 -0.3863
 1111YOPC   NC314465   2.964  14.716   5.470  0.1684 -0.0467  0.0268
 1111YOPC   PO414466   3.225  14.422   5.516  0.0068 -0.0224 -0.2200
 1111YOPC   GL114467   3.094  14.491   5.899  0.3254  0.0525 -0.0395
 1111YOPC   GL214468   3.070  14.088   6.009 -0.3385  0.3323 -0.0609
 1111YOPC   C1A14469   3.029  14.473   6.367  0.0514 -0.0242 -0.0500
 1111YOPC   D2A14470   2.998  14.347   6.753  0.2308  0.4163 -0.1569
 1111YOPC   C3A14471   3.150  14.533   7.075 -0.1023  0.0867  0.0665
 1111YOPC   C4A14472   3.302  14.499   7.504 -0.1773 -0.1579  0.4841
 1111YOPC   C1B14473   3.080  13.984   6.432  0.2078  0.0553  0.0025
 1111YOPC   C2B14474   3.230  13.894   6.745 -0.2386 -0.0083 -0.0552
 1111YOPC   D3B14475   3.064  14.048   7.122  0.1185  0.2578  0.0716
 1111YOPC   C4B14476   3.199  14.050   7.494 -0.1810  0.0130  0.0384
 1112YOPC   NC314477  12.871   7.490   5.853 -0.4388 -0.0791 -0.0459
 1112YOPC   PO414478  13.126   7.195   5.910  0.0286  0.4098  0.1261
 1112YOPC   GL114479  13.177   7.309   6.344 -0.0753  0.1302  0.1432
 1112YOPC   GL214480  12.898   7.582   6.387 -0.0002 -0.1581 -0.0431
 1112YOPC   C1A14481  13.276   7.218   6.821 -0.1336  0.0820 -0.1587
 1112YOPC   D2A14482  13.012   6.988   7.145  0.1124 -0.1710  0.2066
 1112YOPC   C3A14483  12.855   7.080   7.478  0.0845 -0.0772  0.3144
 1112YOPC   C4A14484  12.954   6.958   7.928  0.0327  0.2277  0.1288
 1112YOPC   C1B14485  12.951   7.622   6.842  0.0051  0.2065 -0.1533
 1112YOPC   C2B14486  13.022   7.510   7.298 -0.1091  0.0835 -0.1778
 1112YOPC   D3B14487  13.423   7.688   7.513 -0.0311  0.1835  0.0901
 1112YOPC   C4B14488  13.512   7.700   7.929 -0.0246  0.0868 -0.1115
 1113YOPC   NC314489   9.551   8.666   6.338 -0.1251 -0.0222 -0.2847
 1113YOPC   PO414490   9.079   8.874   6.352  0.1794 -0.0228 -0.2057
 1113YOPC   GL114491   9.328   8.897   6.742 -0.1411 -0.0829 -0.2061
 1113YOPC   GL214492   9.767   8.967   6.816 -0.1409 -0.2236  0.1304
 1113YOPC   C1A14493   9.302   8.912   7.167  0.0712  0.3475 -0.4756
 1113YOPC   D2A14494   9.194   9.077   7.596 -0.4317  0.0671 -0.1192
 1113YOPC   C3A14495   9.302   8.933   7.993 -0.0727 -0.3516  0.0460
 1113YOPC   C4A14496   9.226   8.988   8.426 -0.2313  0.0119 -0.0617
 1113YOPC   C1B14497   9.772   9.135   7.150 -0.6611 -0.0585 -0.2383
 1113YOPC   C2B14498   9.720   9.218   7.617  0.4033 -0.0401 -0.1064
 1113YOPC   D3B14499   9.690   9.472   7.943  0.1922 -0.2756 -0.2766
 1113YOPC   C4B14500   9.459   9.815   8.130  0.1839 -0.0802  0.1561
 1114YOPC   NC314501  10.556  17.441   5.836  0.2198 -0.1889 -0.0636
 1114YOPC   PO414502  10.522  17.257   6.271  0.0930 -0.1004  0.0871
 1114YOPC   GL114503  10.524  16.926   6.561 -0.0573  0.3153  0.2216
 1114YOPC   GL214504  10.614  16.626   6.340 -0.2283 -0.2040  0.3921
 1114YOPC   C1A14505  10.418  16.706   6.827  0.0548  0.0958  0.2694
 1114YOPC   D2A14506  10.225  16.450   7.219  0.3167  0.0235  0.1435
 1114YOPC   C3A14507   9.834  16.721   7.171 -0.1826 -0.0569 -0.0448
 1114YOPC   C4A14508   9.770  17.266   7.164 -0.0981 -0.0457  0.0177
 1114YOPC   C1B14509  10.951  16.768   6.760  0.0517 -0.0900 -0.0315
 1114YOPC   C2B14510  11.048  17.057   7.171 -0.0571  0.3955  0.4912
 1114YOPC   D3B14511  10.984  16.962   7.528  0.1379  0.4228 -0.1871
 1114YOPC   C4B14512  10.965  16.554   7.759 -0.2795  0.3912  0.0818
 1115YOPC   NC314513   5.119   3.839   5.510  0.1408  0.0975 -0.1335
 1115YOPC   PO414514   5.024   3.472   5.584 -0.3971  0.2675  0.2263
 1115YOPC   GL114515   5.128   3.204   6.005 -0.0527 -0.1458 -0.0939
 1115YOPC   GL214516   4.870   3.455   6.194 -0.1821 -0.1931 -0.5046
 1115YOPC   C1A14517   5.580   3.252   6.294  0.2497  0.2420 -0.1602
 1115YOPC   D2A14518   6.023   3.121   6.388 -0.2092 -0.1635  0.0770
 1115YOPC   C3A14519   6.306   3.353   6.679 -0.1412 -0.0246  0.0962
 1115YOPC   C4A14520   6.390   3.634   7.031  0.2930  0.0226  0.1498
 1115YOPC   C1B14521   4.686   3.419   6.632  0.1035 -0.0355  0.0045
 1115YOPC   C2B14522   4.740   3.425   7.106 -0.2556 -0.1766  0.0688
 1115YOPC   D3B14523   4.596   3.900   7.245  0.2974 -0.1144  0.1204
 1115YOPC   C4B14524   4.418   4.168   7.096  0.0903 -0.0881  0.3013
 1116YOPC   NC314525   5.923  17.893   5.213  0.0403 -0.0675  0.2694
 1116YOPC   PO414526   6.196  17.598   5.446  0.4600 -0.1702 -0.2842
 1116YOPC   GL114527   6.416  17.648   5.850 -0.1108  0.2406 -0.0048
 1116YOPC   GL214528   6.485  17.899   5.858 -0.1634 -0.2325  0.0685
 1116YOPC   C1A14529   6.549  17.335   6.187 -0.0877  0.0642  0.1992
 1116YOPC   D2A14530   6.507  16.981   6.492  0.1271 -0.1814  0.1707
 1116YOPC   C3A14531   6.435  17.034   6.930 -0.0337 -0.0417  0.0688
 1116YOPC   C4A14532   6.346  16.970   7.294  0.1121 -0.0724 -0.0386
 1116YOPC   C1B14533   6.416  18.143   6.296 -0.0071  0.2154  0.1486
 1116YOPC   C2B14534   6.467  18.022   6.735  0.1655  0.1178 -0.2701
 1116YOPC   D3B14535   6.511  18.305   7.015 -0.0160 -0.0538 -0.1312
 1116YOPC   C4B14536   6.491  18.442   7.475  0.0774 -0.1112 -0.3784
 1117YOPC   NC314537   5.121   3.009   5.532  0.0793 -0.1245 -0.0246
 1117YOPC   PO414538   5.575   2.786   5.414  0.1933  0.0973 -0.0431
 1117YOPC   GL114539   5.371   2.572   5.832 -0.1390 -0.2781  0.1075
 1117YOPC   GL214540   5.276   2.287   5.976 -0.3159  0.0053  0.1164
 1117YOPC   C1A14541   5.482   2.657   6.271  0.0857 -0.0405 -0.4292
 1117YOPC   D2A14542   5.599   2.889   6.656 -0.0083 -0.1080  0.1743
 1117YOPC   C3A14543   6.039   2.795   6.784 -0.0498 -0.1748 -0.1673
 1117YOPC   C4A14544   6.147   2.526   6.995 -0.3748  0.1844 -0.0556
 1117YOPC   C1B14545   5.327   2.289   6.507  0.2885 -0.0152  0.4396
 1117YOPC   C2B14546   5.131   2.559   6.828 -0.1352 -0.0805  0.1608
 1117YOPC   D3B14547   5.337   2.906   7.099  0.4056  0.3304  0.3137
 1117YOPC   C4B14548   5.613   3.020   7.446 -0.0142 -0.0330 -0.0630
 1118YOPC   NC314549   7.903   3.915   5.965 -0.1947 -0.0170  0.0617
 1118YOPC   PO414550   7.689   4.405   6.107 -0.3113 -0.3760 -0.1025
 1118YOPC   GL114551   7.763   4.615   6.563  0.0519 -0.0538  0.0264
 1118YOPC   GL214552   7.997   4.449   6.788 -0.0014  0.0799  0.0716
 1118YOPC   C1A14553   7.682   4.776   6.983 -0.1375  0.0460 -0.0128
 1118YOPC   D2A14554   7.739   5.035   7.260 -0.1697  0.0160  0.1935
 1118YOPC   C3A14555   7.672   5.265   7.645  0.0430  0.1581  0.1059
 1118YOPC   C4A14556   7.526   5.730   7.713  0.1273  0.2448  0.0923
 1118YOPC   C1B14557   8.009   4.169   7.049 -0.1490 -0.0710 -0.1756
 1118YOPC   C2B14558   8.191   4.139   7.401  0.0877  0.2046  0.0593
 1118YOPC   D3B14559   8.229   4.264   7.796 -0.1160  0.0998 -0.0815
 1118YOPC   C4B14560   8.533   4.442   8.101  0.2825  0.1670  0.0571
 1119YOPC   NC314561   4.969  14.957   5.296 -0.0376 -0.0491  0.3586
 1119YOPC   PO414562   4.909  15.306   5.562 -0.1359 -0.0770  0.0501
 1119YOPC   GL114563   4.726  15.439   5.870  0.0315 -0.1843  0.1525
 1119YOPC   GL214564   4.618  15.755   5.896  0.2208  0.2117 -0.0362
 1119YOPC   C1A14565   4.738  15.458   6.359 -0.1143  0.0908  0.1221
 1119YOPC   D2A14566   5.122  15.520   6.590  0.1024 -0.0466  0.1941
 1119YOPC   C3A14567   5.181  15.934   6.697 -0.0518  0.0406 -0.0674
 1119YOPC   C4A14568   5.317  16.242   6.923  0.0207 -0.0701  0.1451
 1119YOPC   C1B14569   4.548  16.197   6.152  0.1108 -0.0365 -0.3886
 1119YOPC   C2B14570   4.484  16.561   6.323 -0.0525  0.1695  0.1037
 1119YOPC   D3B14571   4.427  16.530   6.695  0.0189  0.4543  0.0732
 1119YOPC   C4B14572   4.138  16.563   7.044  0.3005 -0.1359 -0.2108
 1120YOPC   NC314573  11.018  15.459   5.811  0.0353  0.0961  0.1841
 1120YOPC   PO414574  11.329  15.685   5.989  0.1519  0.0627 -0.0377
 1120YOPC   GL114575  11.671  15.458   6.197  0.3499  0.0313  0.1113
 1120YOPC   GL214576  11.647  15.177   6.120 -0.0874  0.0601  0.2231
 1120YOPC   C1A14577  11.561  15.308   6.584 -0.3386  0.1312 -0.0659
 1120YOPC   D2A14578  11.446  15.095   6.971 -0.1088 -0.0470 -0.4082
 1120YOPC   C3A14579  11.729  15.196   7.317 -0.1176 -0.1769 -0.1654
 1120YOPC   C4A14580  12.061  15.226   7.692 -0.1451 -0.0344  0.1607
 1120YOPC   C1B14581  11.500  14.728   6.340  0.0948 -0.0824 -0.1109
 1120YOPC   C2B14582  11.457  14.312   6.539 -0.2645  0.0233 -0.0091
 1120YOPC   D3B14583  11.634  14.207   6.909  0.3802 -0.0162 -0.1639
 1120YOPC   C4B14584  11.859  14.184   7.307 -0.0057  0.1531  0.0883
 1121YOPC   NC314585  12.410  15.583   5.457 -0.0829  0.2503 -0.0995
 1121YOPC   PO414586  12.194  16.074   5.656 -0.2308  0.0162  0.0918
 1121YOPC   GL114587  12.210  16.059   6.123 -0.1246  0.4272 -0.0607
 1121YOPC   GL214588  11.958  16.019   6.323  0.2632 -0.0672  0.1201
 1121YOPC   C1A14589  12.549  16.088   6.320 -0.3659 -0.1410 -0.0819
 1121YOPC   D2A14590  12.987  15.979   6.120  0.0993 -0.0872 -0.1782
 1121YOPC   C3A14591  13.117  15.727   6.428  0.2550 -0.1753 -0.0005
 1121YOPC   C4A14592  13.392  15.363   6.379  0.0449  0.1630  0.0530
 1121YOPC   C1B14593  12.145  16.062   6.677  0.1358  0.0382  0.2722
 1121YOPC   C2B14594  12.184  16.129   7.178 -0.2540 -0.0625  0.1826
 1121YOPC   D3B14595  11.761  16.135   7.455 -0.0729  0.3049 -0.3889
 1121YOPC   C4B14596  11.672  15.921   7.740  0.1371  0.1087  0.0049
 1122YOPC   NC314597  14.622   5.709   6.280 -0.0288  0.1301  0.1818
 1122YOPC   PO414598  14.649   5.457   6.549 -0.2096 -0.3578  0.4128
 1122YOPC   GL114599  14.695   5.652   7.015 -0.3684  0.3866 -0.1205
 1122YOPC   GL214600  14.996   5.730   7.136 -0.0420  0.0226  0.0972
 1122YOPC   C1A14601  14.495   5.618   7.433  0.2917  0.1418 -0.0377
 1122YOPC   D2A14602  14.481   5.432   7.870  0.0692 -0.0675  0.5055
 1122YOPC   C3A14603  14.698   5.010   7.906  0.1492 -0.0529 -0.1328
 1122YOPC   C4A14604  14.609   4.678   8.168 -0.1499 -0.1885  0.0254
 1122YOPC   C1B14605  14.980   5.763   7.568 -0.0732 -0.1907  0.1968
 1122YOPC   C2B14606  15.161   5.524   8.002 -0.0862 -0.1742 -0.1423
 1122YOPC   D3B14607  14.862   5.362   8.226 -0.1406  0.2985 -0.1453
 1122YOPC   C4B14608  14.846   5.626   8.586  0.4158  0.1916  0.3211
 1123YOPC   NC314609   9.758  13.074   5.490  0.0963  0.3370  0.1046
 1123YOPC   PO414610  10.103  12.938   5.865  0.2322 -0.0605  0.0163
 1123YOPC   GL114611   9.733  12.972   6.066  0.0799 -0.1944  0.3442
 1123YOPC   GL214612   9.801  13.310   6.315  0.1589  0.0548 -0.2657
 1123YOPC   C1A14613   9.635  12.905   6.513  0.0655  0.0682 -0.2109
 1123YOPC   D2A14614   9.302  12.819   6.808 -0.1685  0.3196  0.1810
 1123YOPC   C3A14615   8.986  12.826   6.558  0.0107  0.0812 -0.0620
 1123YOPC   C4A14616   8.645  12.733   6.451  0.0534 -0.0871  0.1187
 1123YOPC   C1B14617  10.139  13.169   6.605 -0.4918 -0.2137  0.0296
 1123YOPC   C2B14618  10.279  13.254   7.030  0.1260  0.0678  0.0900
 1123YOPC   D3B14619   9.935  13.506   7.321  0.1401  0.2918 -0.1844
 1123YOPC   C4B14620  10.094  13.717   7.564 -0.1454 -0.0376  0.0306
 1124YOPC   NC314621   0.789  16.678   4.778  0.0966  0.1390 -0.1530
 1124YOPC   PO414622   1.100  16.931   4.837  0.0754 -0.5144  0.2641
 1124YOPC   GL114623   1.114  17.227   5.222 -0.0128  0.2620 -0.0933
 1124YOPC   GL214624   1.377  17.336   5.413 -0.1376 -0.3320  0.2060
 1124YOPC   C1A14625   0.888  17.331   5.598  0.1365 -0.1955  0.0208
 1124YOPC   D2A14626   0.903  17.568   5.967 -0.3375  0.0775 -0.0726
 1124YOPC   C3A14627   0.756  17.929   6.243  0.1652  0.0975  0.0367
 1124YOPC   C4A14628   0.874  18.162   6.657 -0.3491 -0.2626 -0.0265
 1124YOPC   C1B14629   1.471  17.464   5.820  0.0860 -0.3309 -0.0429
 1124YOPC   C2B14630   1.270  17.273   6.153  0.1613  0.1121 -0.3733
 1124YOPC   D3B14631   1.359  17.423   6.535 -0.0224 -0.0836  0.0981
 1124YOPC   C4B14632   1.535  17.446   6.957  0.4115  0.1231  0.0879
 1125YOPC   NC314633  12.537   9.961   5.884  0.1172  0.2994  0.3924
 1125YOPC   PO414634  12.426   9.503   5.973  0.1665  0.3631 -0.0401
 1125YOPC   GL114635  12.387   9.648   6.352  0.1571  0.0158  0.0599
 1125YOPC   GL214636  12.674   9.800   6.380 -0.2320 -0.1835  0.0494
 1125YOPC   C1A14637  12.110   9.614   6.697 -0.2577 -0.1113 -0.2613
 1125YOPC   D2A14638  12.151   9.588   7.235  0.0654 -0.2656  0.0074
 1125YOPC   C3A14639  11.766   9.858   7.421 -0.0003  0.2126  0.0287
 1125YOPC   C4A14640  11.452  10.034   7.688  0.1884 -0.3998  0.0710
 1125YOPC   C1B14641  12.700   9.789   6.797  0.0422 -0.2393 -0.1849
 1125YOPC   C2B14642  12.561   9.995   7.240 -0.2582  0.0145 -0.2556
 1125YOPC   D3B14643  12.625   9.777   7.621 -0.4275  0.3896  0.1199
 1125YOPC   C4B14644  12.936   9.914   7.963  0.0568 -0.0639 -0.0733
 1126YOPC   NC314645   4.139   6.608   5.881  0.2817  0.0024  0.2179
 1126YOPC   PO414646   4.073   6.977   6.073 -0.1694 -0.0508 -0.0879
 1126YOPC   GL114647   4.248   6.814   6.439  0.0687 -0.0209  0.2787
 1126YOPC   GL214648   4.293   6.470   6.331 -0.1788  0.1187 -0.0624
 1126YOPC   C1A14649   4.364   6.963   6.909 -0.2227 -0.0272  0.3397
 1126YOPC   D2A14650   4.461   7.050   7.280 -0.3137 -0.1083 -0.2113
 1126YOPC   C3A14651   4.288   6.787   7.593  0.0884  0.1561  0.0038
 1126YOPC   C4A14652   4.084   6.871   8.045 -0.1946  0.1245  0.0121
 1126YOPC   C1B14653   4.378   6.306   6.837 -0.0923  0.1876  0.4150
 1126YOPC   C2B14654   4.458   5.811   6.897  0.0626  0.0824 -0.0794
 1126YOPC   D3B14655   4.129   5.532   6.648 -0.3063  0.4716  0.0880
 1126YOPC   C4B14656   3.965   5.133   6.547 -0.1487  0.0320 -0.0607
 1127YOPC   NC314657  10.557   4.671   6.180  0.0543  0.2167 -0.2014
 1127YOPC   PO414658  10.985   4.621   6.391  0.1658 -0.1516 -0.1882
 1127YOPC   GL114659  10.679   4.369   6.711 -0.3786  0.0923  0.1861
 1127YOPC   GL214660  10.357   4.261   6.518 -0.1205  0.0554  0.0039
 1127YOPC   C1A14661  10.778   4.369   7.115 -0.0893 -0.0263 -0.0063
 1127YOPC   D2A14662  10.693   4.208   7.380 -0.1705 -0.0460 -0.4105
 1127YOPC   C3A14663  10.794   4.340   7.758 -0.0987 -0.3138  0.3011
 1127YOPC   C4A14664  10.825   4.563   7.996  0.2445 -0.2728  0.1686
 1127YOPC   C1B14665   9.987   4.561   6.515 -0.1148 -0.1468 -0.1122
 1127YOPC   C2B14666   9.553   4.636   6.624  0.1514  0.2582 -0.1405
 1127YOPC   D3B14667   9.228   4.949   6.911  0.0052  0.0311  0.3338
 1127YOPC   C4B14668   9.150   5.091   7.294  0.1019  0.2664 -0.0818
 1128YOPC   NC314669  16.591   1.133   4.915  0.3206  0.0640 -0.2775
 1128YOPC   PO414670  16.750   1.219   5.281  0.2269 -0.0285 -0.0373
 1128YOPC   GL114671  17.023   1.112   5.657  0.1727 -0.0812 -0.0459
 1128YOPC   GL214672  17.286   1.265   5.723  0.0352  0.0247  0.1969
 1128YOPC   C1A14673  16.912   0.979   6.081  0.1003  0.4114 -0.0232
 1128YOPC   D2A14674  16.835   1.184   6.461 -0.0355  0.1910  0.0318
 1128YOPC   C3A14675  16.766   1.143   6.873 -0.1585 -0.0404  0.3547
 1128YOPC   C4A14676  16.520   0.872   7.129  0.2950  0.1345  0.2007
 1128YOPC   C1B14677  17.554   1.303   6.109 -0.2917  0.3301 -0.3217
 1128YOPC   C2B14678  17.605   1.403   6.705 -0.2084 -0.1506  0.0122
 1128YOPC   D3B14679  17.682   1.629   7.022 -0.1533  0.1369  0.0440
 1128YOPC   C4B14680  17.695   1.869   7.326 -0.2544 -0.1693  0.1173
 1129YOPC   NC314681   4.021   3.313   5.413  0.1061 -0.2941  0.1173
 1129YOPC   PO414682   3.872   2.863   5.446 -0.0419  0.0347 -0.0530
 1129YOPC   GL114683   4.099   2.999   5.795 -0.0143 -0.2037  0.5155
 1129YOPC   GL214684   3.947   3.125   5.908 -0.0466 -0.1418 -0.0012
 1129YOPC   C1A14685   4.198   2.628   6.081  0.4282  0.2050  0.0558
 1129YOPC   D2A14686   4.377   2.261   6.184  0.1940  0.3946 -0.0682
 1129YOPC   C3A14687   4.360   2.210   6.675  0.1474 -0.2466 -0.1104
 1129YOPC   C4A14688   3.980   2.320   7.022  0.0653 -0.0987  0.3147
 1129YOPC   C1B14689   3.854   2.956   6.315  0.1170 -0.2425 -0.0630
 1129YOPC   C2B14690   3.932   2.633   6.611  0.1108  0.3043  0.2077
 1129YOPC   D3B14691   3.639   2.730   6.920  0.0013  0.0979  0.2574
 1129YOPC   C4B14692   3.542   2.796   7.320  0.1792  0.2099 -0.1061
 1130YOPC   NC314693   4.792  11.690   5.608  0.5504 -0.2645  0.2679
 1130YOPC   PO414694   5.265  11.514   5.584  0.1959  0.0650 -0.3254
 1130YOPC   GL114695   5.466  11.363   6.009 -0.1887  0.1235 -0.3899
 1130YOPC   GL214696   5.430  11.700   6.107 -0.0605  0.0458 -0.0041
 1130YOPC   C1A14697   5.421  11.166   6.431  0.0428 -0.1928 -0.3077
 1130YOPC   D2A14698   5.389  10.947   6.886  0.0334  0.1497 -0.2600
 1130YOPC   C3A14699   5.594  10.953   7.260  0.0899  0.0178  0.0629
 1130YOPC   C4A14700   5.552  11.122   7.679 -0.1632  0.0846  0.1087
 1130YOPC   C1B14701   5.286  11.981   6.447  0.1208 -0.0926 -0.0187
 1130YOPC   C2B14702   5.067  12.247   6.801  0.1185  0.2384  0.1401
 1130YOPC   D3B14703   4.983  11.911   7.058 -0.2254  0.0573 -0.1254
 1130YOPC   C4B14704   4.948  11.656   7.429 -0.1066 -0.1826 -0.1936
 1131YOPC   NC314705  18.127  17.894   5.350  0.3049  0.4703 -0.2449
 1131YOPC   PO414706  18.516  17.652   5.108 -0.1740 -0.3441 -0.2643
 1131YOPC   GL114707  18.611  17.318   5.354 -0.2116  0.2581  0.1699
 1131YOPC   GL214708  18.502  17.094   5.433  0.1570 -0.3171  0.0877
 1131YOPC   C1A14709  18.969  17.030   5.515  0.0498  0.2364  0.1100
 1131YOPC   D2A14710  19.173  16.861   5.768 -0.0625 -0.1184 -0.2319
 1131YOPC   C3A14711  19.134  16.966   6.182  0.3363 -0.1264  0.1033
 1131YOPC   C4A14712  19.376  17.106   6.536 -0.1095 -0.2665 -0.1706
 1131YOPC   C1B14713  18.398  17.022   5.886 -0.1233  0.3912  0.0385
 1131YOPC   C2B14714  18.523  16.709   6.189 -0.1885  0.0963  0.0704
 1131YOPC   D3B14715  18.829  16.446   5.986  0.2747  0.1231  0.2016
 1131YOPC   C4B14716  19.010  15.990   6.097 -0.0531 -0.1270 -0.0767
 1132YOPC   NC314717   2.800   5.679   5.625  0.0943 -0.3844 -0.1044
 1132YOPC   PO414718   2.809   6.061   5.818 -0.1765 -0.0435  0.1081
 1132YOPC   GL114719   2.656   5.910   6.151  0.1384 -0.0514  0.0441
 1132YOPC   GL214720   2.898   5.722   6.266  0.1536  0.0679 -0.1482
 1132YOPC   C1A14721   2.404   5.834   6.469 -0.1656 -0.0223 -0.2298
 1132YOPC   D2A14722   2.110   5.813   6.769 -0.2514  0.2217  0.2206
 1132YOPC   C3A14723   1.796   6.178   6.683 -0.1413  0.0472 -0.0028
 1132YOPC   C4A14724   1.421   6.178   6.748 -0.0255  0.1073 -0.1434
 1132YOPC   C1B14725   3.098   5.568   6.495 -0.2120  0.1804  0.0050
 1132YOPC   C2B14726   3.120   5.368   6.857 -0.2895  0.0028  0.1820
 1132YOPC   D3B14727   2.963   5.243   7.210 -0.2796 -0.0416  0.0689
 1132YOPC   C4B14728   2.704   5.468   7.490 -0.1835 -0.1449  0.0319
 1133YOPC   NC314729  10.514  10.578   5.439  0.1886 -0.3220  0.0273
 1133YOPC   PO414730  10.202  10.955   5.602 -0.3876  0.0940  0.1402
 1133YOPC   GL114731  10.306  11.233   5.974 -0.0688  0.0687 -0.0217
 1133YOPC   GL214732  10.185  11.538   6.183  0.0806  0.1615 -0.1179
 1133YOPC   C1A14733  10.307  11.113   6.414 -0.3585  0.4641 -0.1899
 1133YOPC   D2A14734  10.004  10.917   6.747  0.0041  0.0169 -0.1225
 1133YOPC   C3A14735  10.108  11.124   6.960  0.2394  0.0376  0.0081
 1133YOPC   C4A14736  10.003  11.064   7.324  0.1169 -0.1241 -0.2185
 1133YOPC   C1B14737  10.012  11.477   6.612  0.0461 -0.1845  0.0168
 1133YOPC   C2B14738   9.676  11.321   6.979 -0.2953  0.1718  0.0969
 1133YOPC   D3B14739   9.678  11.455   7.446  0.3579  0.1579 -0.0598
 1133YOPC   C4B14740  10.005  11.442   7.856 -0.3579  0.0634 -0.1146
 1134YOPC   NC314741  12.059   7.150   6.182  0.2877 -0.4418 -0.4846
 1134YOPC   PO414742  11.897   6.645   6.313 -0.2676 -0.0063  0.0632
 1134YOPC   GL114743  11.888   6.801   6.747 -0.1586 -0.0937  0.2980
 1134YOPC   GL214744  11.774   6.413   6.735  0.3976  0.0261 -0.4405
 1134YOPC   C1A14745  11.772   6.698   7.172  0.1054 -0.0577 -0.4660
 1134YOPC   D2A14746  11.515   6.377   7.458  0.0882 -0.2438  0.1883
 1134YOPC   C3A14747  11.736   6.157   7.732 -0.0287  0.2543  0.0636
 1134YOPC   C4A14748  11.889   5.783   8.166  0.4511  0.0025  0.0857
 1134YOPC   C1B14749  11.798   6.193   7.141 -0.1662  0.0274 -0.0462
 1134YOPC   C2B14750  11.971   5.846   7.399  0.0551  0.0059  0.2318
 1134YOPC   D3B14751  12.190   5.962   7.849 -0.0713  0.1731 -0.0015
 1134YOPC   C4B14752  12.284   6.058   8.329  0.0080  0.1712 -0.2320
 1135YOPC   NC314753  17.716   9.398   5.884 -0.0678 -0.3314  0.4054
 1135YOPC   PO414754  18.039   9.557   6.141 -0.1817 -0.0240  0.2767
 1135YOPC   GL114755  18.236   9.706   6.560 -0.0481 -0.0178 -0.0266
 1135YOPC   GL214756  18.233  10.071   6.614  0.1251 -0.0306  0.2055
 1135YOPC   C1A14757  18.346   9.631   6.999 -0.1055  0.1723  0.1354
 1135YOPC   D2A14758  18.257   9.562   7.393  0.0079  0.0011 -0.2461
 1135YOPC   C3A14759  18.533   9.372   7.580  0.4831  0.3244  0.1446
 1135YOPC   C4A14760  18.899   9.130   7.889  0.3061  0.0639 -0.1823
 1135YOPC   C1B14761  18.032  10.018   7.002 -0.0359 -0.2730  0.2901
 1135YOPC   C2B14762  18.029  10.297   7.312  0.1142 -0.0510  0.2306
 1135YOPC   D3B14763  18.116  10.361   7.734  0.1242 -0.0365  0.1716
 1135YOPC   C4B14764  17.991  10.609   8.085  0.3184 -0.1162  0.1124
 1136YOPC   NC314765   1.722   1.016   5.000  0.0895 -0.1735  0.0005
 1136YOPC   PO414766   1.679   1.418   4.806 -0.0995 -0.3708  0.0961
 1136YOPC   GL114767   1.765   1.688   5.179 -0.2301  0.1002 -0.1666
 1136YOPC   GL214768   1.965   1.445   5.310  0.0441 -0.2777 -0.3410
 1136YOPC   C1A14769   1.737   1.816   5.653 -0.1318  0.3564 -0.0476
 1136YOPC   D2A14770   1.842   1.778   6.083 -0.0457  0.1614 -0.2359
 1136YOPC   C3A14771   1.761   1.492   6.402 -0.3424  0.0507 -0.3703
 1136YOPC   C4A14772   1.901   1.168   6.773  0.1650  0.1607 -0.1547
 1136YOPC   C1B14773   2.210   1.132   5.524 -0.0031  0.1873  0.0068
 1136YOPC   C2B14774   2.477   1.136   5.818  0.0973 -0.0973 -0.0954
 1136YOPC   D3B14775   2.723   1.495   5.816  0.0899 -0.0274 -0.0509
 1136YOPC   C4B14776   2.640   1.921   6.013  0.2567  0.0770 -0.1616
 1137YOPC   NC314777  14.765  16.590   5.670 -0.0953  0.2719  0.1912
 1137YOPC   PO414778  14.343  16.632   5.841  0.0324 -0.1813  0.0911
 1137YOPC   GL114779  14.458  16.219   6.058  0.1404  0.4302 -0.3100
 1137YOPC   GL214780  14.669  15.961   6.137 -0.2565  0.1109 -0.0174
 1137YOPC   C1A14781  14.339  15.975   6.497  0.3389 -0.0929  0.0202
 1137YOPC   D2A14782  14.408  15.857   6.864  0.0698 -0.1700  0.2881
 1137YOPC   C3A14783  14.463  15.421   7.012 -0.0047  0.1443  0.1105
 1137YOPC   C4A14784  14.792  15.334   7.358 -0.1010  0.0810 -0.1680
 1137YOPC   C1B14785  14.831  16.091   6.575 -0.2678 -0.0170  0.1468
 1137YOPC   C2B14786  14.984  15.957   6.937 -0.3011  0.5765  0.0596
 1137YOPC   D3B14787  14.723  15.887   7.246 -0.2180 -0.0587  0.3532
 1137YOPC   C4B14788  14.614  15.920   7.652 -0.1170  0.2242  0.0581
 1138YOPC   NC314789   2.273   8.648   5.954 -0.0628  0.1721  0.2271
 1138YOPC   PO414790   2.021   9.049   6.042 -0.3721 -0.0123 -0.3982
 1138YOPC   GL114791   1.970   8.979   6.477  0.0650 -0.1453  0.1039
 1138YOPC   GL214792   2.184   8.705   6.565  0.0751  0.2411 -0.1664
 1138YOPC   C1A14793   1.676   9.131   6.875 -0.0445  0.0479  0.1618
 1138YOPC   D2A14794   1.602   9.094   7.384  0.0229 -0.1724  0.3509
 1138YOPC   C3A14795   1.844   9.075   7.742 -0.0555 -0.1249 -0.1228
 1138YOPC   C4A14796   2.213   8.818   8.094  0.2100  0.3064 -0.1291
 1138YOPC   C1B14797   2.086   8.774   6.995  0.3185 -0.4211 -0.2456
 1138YOPC   C2B14798   2.075   8.795   7.393 -0.0164 -0.0291 -0.1143
 1138YOPC   D3B14799   1.897   8.552   7.799 -0.0041 -0.2438 -0.1420
 1138YOPC   C4B14800   1.632   8.295   8.092 -0.0499  0.1607  0.1969
 1139YOPC   NC314801  12.069   3.870   5.683  0.1610  0.1414 -0.0203
 1139YOPC   PO414802  11.797   4.057   6.084  0.0084  0.0797 -0.0847
 1139YOPC   GL114803  11.838   4.140   6.548 -0.1301 -0.0266 -0.0003
 1139YOPC   GL214804  12.136   4.388   6.735  0.0731 -0.2781  0.1320
 1139YOPC   C1A14805  11.653   4.414   6.879 -0.3517 -0.2976 -0.0953
 1139YOPC   D2A14806  11.280   4.617   7.052  0.1162  0.2048 -0.1532
 1139YOPC   C3A14807  11.074   4.642   7.475 -0.4724 -0.5898  0.2512
 1139YOPC   C4A14808  11.200   4.715   7.772 -0.2018 -0.0005 -0.5026
 1139YOPC   C1B14809  11.930   4.079   7.036  0.0447  0.1934 -0.2959
 1139YOPC   C2B14810  11.908   3.854   7.476  0.1842 -0.1433 -0.3798
 1139YOPC   D3B14811  11.680   4.031   7.880  0.2469 -0.0542  0.3011
 1139YOPC   C4B14812  11.219   4.233   8.020  0.1549  0.1510 -0.3118
 1140YOPC   NC314813  15.498   9.875   6.244 -0.1493 -0.0509 -0.2247
 1140YOPC   PO414814  15.083   9.692   6.266 -0.0783  0.0018  0.0494
 1140YOPC   GL114815  15.002   9.738   6.618 -0.2566  0.1466 -0.0252
 1140YOPC   GL214816  14.727   9.636   6.721  0.0855  0.1213 -0.3448
 1140YOPC   C1A14817  15.138   9.940   6.946 -0.1050  0.0833  0.0214
 1140YOPC   D2A14818  15.253  10.263   7.280  0.3494 -0.0989 -0.0977
 1140YOPC   C3A14819  15.229  10.146   7.691  0.0002  0.1550  0.0131
 1140YOPC   C4A14820  14.993  10.019   8.004  0.1285  0.0148  0.0404
 1140YOPC   C1B14821  14.417   9.286   6.727  0.3149 -0.2071 -0.2698
 1140YOPC   C2B14822  13.976   9.191   6.674  0.1912  0.0409  0.1898
 1140YOPC   D3B14823  13.523   9.126   6.760  0.0412  0.0863 -0.0910
 1140YOPC   C4B14824  13.200   9.060   7.125  0.2375 -0.0466 -0.1330
 1141YOPC   NC314825   0.390  11.527   5.626 -0.2244  0.0465  0.1146
 1141YOPC   PO414826   0.416  12.034   5.676 -0.1735 -0.0109  0.4640
 1141YOPC   GL114827   0.413  12.329   5.891  0.1858 -0.1055 -0.1389
 1141YOPC   GL214828   0.218  12.178   6.182  0.1392 -0.0165  0.0595
 1141YOPC   C1A14829   0.610  12.458   6.412  0.1663 -0.3494  0.2450
 1141YOPC   D2A14830   0.482  12.459   6.823  0.0997  0.0641  0.1554
 1141YOPC   C3A14831   0.345  12.568   7.240 -0.2169  0.1863 -0.2979
 1141YOPC   C4A14832   0.172  12.725   7.558 -0.0398  0.2983  0.3376
 1141YOPC   C1B14833   0.140  12.200   6.610 -0.1747 -0.0147 -0.0796
 1141YOPC   C2B14834   0.054  11.991   6.969 -0.1516 -0.0516 -0.1112
 1141YOPC   D3B14835   0.151  12.139   7.447 -0.2000  0.0650 -0.0931
 1141YOPC   C4B14836   0.168  12.339   7.820  0.1390  0.1106 -0.0722
 1142YOPC   NC314837  15.104   9.297   5.987  0.0530  0.0574  0.1990
 1142YOPC   PO414838  15.595   9.391   6.007  0.1380  0.1231 -0.0488
 1142YOPC   GL114839  15.483   9.372   6.454  0.0604 -0.1526  0.0489
 1142YOPC   GL214840  15.217   9.213   6.473  0.0219  0.0460 -0.0829
 1142YOPC   C1A14841  15.190   9.432   6.944 -0.0552  0.3290  0.1096
 1142YOPC   D2A14842  15.354   9.718   7.319 -0.1147  0.0742  0.4941
 1142YOPC   C3A14843  15.657   9.654   7.617  0.0731 -0.0133  0.0900
 1142YOPC   C4A14844  16.076   9.445   7.849 -0.0728 -0.1570 -0.0267
 1142YOPC   C1B14845  14.871   9.069   6.747 -0.1730 -0.0668 -0.1965
 1142YOPC   C2B14846  14.620   9.168   7.176 -0.1500  0.1083 -0.0460
 1142YOPC   D3B14847  14.813   9.443   7.374  0.2757  0.1742 -0.0073
 1142YOPC   C4B14848  14.862   9.810   7.367 -0.1286  0.1399 -0.1528
 1143YOPC   NC314849  13.408  13.438   5.285 -0.1676  0.1440  0.3092
 1143YOPC   PO414850  13.137  13.761   5.524  0.0465  0.0813  0.0191
 1143YOPC   GL114851  13.336  13.828   5.888  0.2436 -0.3767  0.0281
 1143YOPC   GL214852  13.225  13.575   6.017 -0.0701  0.6025  0.1155
 1143YOPC   C1A14853  13.349  13.927   6.411  0.0987 -0.1455 -0.0659
 1143YOPC   D2A14854  13.211  14.027   6.901  0.0834 -0.1718 -0.1724
 1143YOPC   C3A14855  13.185  14.337   7.133  0.1173 -0.1111 -0.0815
 1143YOPC   C4A14856  13.489  14.380   7.535 -0.0849 -0.1658  0.1628
 1143YOPC   C1B14857  13.354  13.458   6.380 -0.1375  0.2406  0.3550
 1143YOPC   C2B14858  13.067  13.523   6.757 -0.2898  0.0508 -0.2875
 1143YOPC   D3B14859  13.223  13.554   7.142  0.2185  0.0376  0.3641
 1143YOPC   C4B14860  13.290  13.827   7.414  0.2915 -0.2140 -0.0923
 1144ERGO   ROH14861  15.424   7.805   8.067  0.0799 -0.2218  0.0127
 1144ERGO    R114862  15.268   7.818   8.303  0.0181 -0.0226 -0.0365
 1144ERGO    R214863  15.010   7.918   8.307  0.0487  0.0658 -0.1696
 1144ERGO    R314864  14.953   7.677   8.420 -0.0608  0.1536 -0.0348
 1144ERGO    R414865  14.721   7.845   8.481 -0.0109  0.2727 -0.1795
 1144ERGO    R514866  14.841   7.733   8.624 -0.0803  0.3152 -0.0894
 1144ERGO    C114867  14.499   7.577   8.689 -0.1484  0.4757 -0.0589
 1144ERGO    C214868  14.137   7.543   8.601 -0.0543  0.0526  0.0567
 1145ERGO   ROH14869   1.675  18.475   8.914 -0.0592 -0.0035  0.0320
 1145ERGO    R114870   1.809  18.450   8.666  0.1352 -0.0423  0.1407
 1145ERGO    R214871   1.869  18.206   8.552 -0.1791 -0.0612  0.0196
 1145ERGO    R314872   1.737  18.308   8.338  0.1970  0.3300 -0.0413
 1145ERGO    R414873   1.912  18.101   8.226 -0.2847 -0.1476  0.0311
 1145ERGO    R514874   1.900  18.310   8.163  0.3090 -0.0888  0.0440
 1145ERGO    C114875   1.813  18.137   7.835  0.0069  0.1693 -0.0192
 1145ERGO    C214876   1.795  18.172   7.586  0.0179  0.1900 -0.3535
 1146ERGO   ROH14877  10.636  14.089   9.537 -0.1442 -0.1895  0.0158
 1146ERGO    R114878  10.563  13.945   9.304 -0.1005 -0.2279  0.0261
 1146ERGO    R214879  10.361  14.029   9.135 -0.0536 -0.2457 -0.0349
 1146ERGO    R314880  10.556  14.010   8.946 -0.0133 -0.2966  0.0107
 1146ERGO    R414881  10.306  13.956   8.802 -0.0278  0.0194 -0.0996
 1146ERGO    R514882  10.484  13.830   8.805 -0.1379 -0.1450 -0.1269
 1146ERGO    C114883  10.457  13.896   8.430  0.0249  0.1260 -0.0943
 1146ERGO    C214884  10.450  13.894   8.042 -0.0775 -0.0774  0.2766
 1147ERGO   ROH14885  15.628   6.109  10.342 -0.0691 -0.1380  0.0113
 1147ERGO    R114886  15.788   6.105  10.109  0.0117  0.0409  0.0632
 1147ERGO    R214887  15.821   5.878   9.955  0.2691  0.0948  0.0447
 1147ERGO    R314888  15.738   6.041   9.754  0.1897  0.0435  0.0345
 1147ERGO    R414889  15.910   5.843   9.623  0.0701 -0.0584  0.0049
 1147ERGO    R514890  15.928   6.060   9.610  0.1179 -0.0601 -0.0846
 1147ERGO    C114891  15.882   5.976   9.241 -0.1205 -0.1957 -0.0278
 1147ERGO    C214892  15.770   5.670   8.935  0.0111 -0.2813  0.2835
 1148ERGO   ROH14893  17.790   0.572   9.249  0.2620 -0.2090 -0.0189
 1148ERGO    R114894  17.713   0.457   9.002  0.1369 -0.0917 -0.0353
 1148ERGO    R214895  17.594   0.603   8.800  0.1993  0.0420  0.0286
 1148ERGO    R314896  17.798   0.502   8.651  0.1010 -0.0586 -0.0410
 1148ERGO    R414897  17.597   0.586   8.455  0.1041  0.1237  0.0225
 1148ERGO    R514898  17.689   0.389   8.471 -0.0200  0.0546 -0.0443
 1148ERGO    C114899  17.790   0.480   8.114 -0.0432  0.0768 -0.0462
 1148ERGO    C214900  17.727   0.504   7.763  0.4323 -0.0395 -0.2143
 1149ERGO   ROH14901   2.567  12.709   9.211  0.2294  0.0348  0.0396
 1149ERGO    R114902   2.538  12.688   8.931 -0.0696 -0.1366  0.0788
 1149ERGO    R214903   2.296  12.727   8.802 -0.1337  0.1655  0.2790
 1149ERGO    R314904   2.440  12.908   8.658  0.0385 -0.1777  0.0067
 1149ERGO    R414905   2.191  12.871   8.506 -0.2388  0.2315  0.3476
 1149ERGO    R514906   2.394  12.850   8.430 -0.3706 -0.2023  0.0886
 1149ERGO    C114907   2.264  13.124   8.198 -0.1383 -0.0522  0.1321
 1149ERGO    C214908   2.098  13.134   7.992  0.1803  0.0519  0.1689
 1150ERGO   ROH14909   4.749   6.536   6.592 -0.0671  0.1689 -0.0927
 1150ERGO    R114910   4.787   6.676   6.835 -0.0424  0.1586 -0.0909
 1150ERGO    R214911   4.691   6.583   7.077 -0.0251  0.1544 -0.0889
 1150ERGO    R314912   4.950   6.612   7.154 -0.0191  0.1434 -0.1046
 1150ERGO    R414913   4.805   6.558   7.402 -0.0308  0.2467 -0.0796
 1150ERGO    R514914   4.938   6.727   7.364 -0.0046  0.2182 -0.1405
 1150ERGO    C114915   5.115   6.571   7.664 -0.0284  0.2900 -0.0890
 1150ERGO    C214916   5.224   6.480   7.998 -0.0540  0.2464 -0.0646
 1151ERGO   ROH14917   4.053   0.059   8.787 -0.1453  0.0111 -0.0433
 1151ERGO    R114918   3.971  -0.013   8.526 -0.1332  0.2168 -0.1046
 1151ERGO    R214919   4.061   0.119   8.300  0.2270  0.1127 -0.0262
 1151ERGO    R314920   4.131  -0.132   8.222 -0.1749 -0.0012 -0.0433
 1151ERGO    R414921   4.070   0.010   7.972  0.2101  0.1718 -0.0467
 1151ERGO    R514922   3.985  -0.179   8.038 -0.1664  0.3016 -0.1348
 1151ERGO    C114923   4.141  -0.289   7.708 -0.1770  0.0992 -0.0748
 1151ERGO    C214924   4.366  -0.302   7.491 -0.1850  0.1093  0.0150
 1152ERGO   ROH14925   4.631  17.619   9.061 -0.0049 -0.1161 -0.0354
 1152ERGO    R114926   4.628  17.813   8.855  0.0116 -0.0210  0.0531
 1152ERGO    R214927   4.853  17.955   8.780  0.0494 -0.0858  0.0436
 1152ERGO    R314928   4.792  17.860   8.533 -0.0738  0.0525  0.0196
 1152ERGO    R414929   4.983  18.077   8.484  0.2296 -0.1911  0.0774
 1152ERGO    R514930   4.785  18.055   8.394  0.1975  0.0985  0.0642
 1152ERGO    C114931   5.000  18.059   8.080  0.2189 -0.1228  0.0745
 1152ERGO    C214932   5.297  17.969   7.925  0.1196 -0.1818 -0.1324
 1153ERGO   ROH14933   4.302   3.471   5.832  0.0217  0.1057 -0.0282
 1153ERGO    R114934   4.439   3.378   6.061  0.1190  0.0463 -0.1097
 1153ERGO    R214935   4.319   3.217   6.251  0.1596  0.1057 -0.0342
 1153ERGO    R314936   4.531   3.055   6.200  0.0551  0.0056 -0.1606
 1153ERGO    R414937   4.382   2.918   6.412  0.2701  0.2217  0.1413
 1153ERGO    R514938   4.593   2.970   6.415  0.2930  0.1686 -0.1606
 1153ERGO    C114939   4.618   2.591   6.459  0.2363  0.1954  0.1248
 1153ERGO    C214940   4.807   2.330   6.559 -0.0380 -0.2772  0.0681
 1154ERGO   ROH14941   8.327   2.820  10.042 -0.0301  0.0382 -0.1330
 1154ERGO    R114942   8.209   2.889   9.794 -0.0156  0.1384 -0.1123
 1154ERGO    R214943   8.171   3.151   9.715  0.0820  0.1696 -0.0525
 1154ERGO    R314944   8.310   3.071   9.495  0.0394  0.1659 -0.0781
 1154ERGO    R414945   8.106   3.255   9.392  0.1609  0.3475 -0.0122
 1154ERGO    R514946   8.143   3.051   9.324  0.0291  0.3464 -0.0936
 1154ERGO    C114947   8.199   3.240   8.997  0.1669  0.4476 -0.0129
 1154ERGO    C214948   8.151   3.314   8.553  0.2259 -0.3057 -0.1992
 1155ERGO   ROH14949  10.480  10.145   9.926  0.0223 -0.2884  0.0727
 1155ERGO    R114950  10.518  10.219   9.656  0.2073 -0.1736  0.1286
 1155ERGO    R214951  10.748  10.159   9.516  0.1537 -0.4401  0.1541
 1155ERGO    R314952  10.573  10.048   9.340  0.0254 -0.0618  0.0340
 1155ERGO    R414953  10.821  10.083   9.186  0.0796 -0.2011  0.0807
 1155ERGO    R514954  10.622  10.155   9.131  0.1621  0.0902  0.1403
 1155ERGO    C114955  10.698   9.935   8.829 -0.0841  0.2933 -0.0748
 1155ERGO    C214956  10.832   9.832   8.460  0.2082  0.0527  0.0657
 1156ERGO   ROH14957   8.582  17.405   6.209 -0.1713  0.1999  0.0772
 1156ERGO    R114958   8.517  17.437   6.482  0.0032  0.1248  0.1281
 1156ERGO    R214959   8.313  17.297   6.605 -0.0276  0.2171  0.1758
 1156ERGO    R314960   8.509  17.226   6.779  0.0180 -0.0012  0.0412
 1156ERGO    R414961   8.266  17.103   6.886 -0.1037  0.4452  0.3240
 1156ERGO    R514962   8.403  17.234   6.994  0.2085  0.2919  0.1347
 1156ERGO    C114963   8.422  16.923   7.214 -0.1052  0.3734  0.2840
 1156ERGO    C214964   8.556  16.770   7.426  0.2333  0.2420  0.2148
 1157ERGO   ROH14965  13.235   2.831  10.038  0.0916 -0.1108 -0.2342
 1157ERGO    R114966  13.142   2.887   9.777  0.0895 -0.1034 -0.2311
 1157ERGO    R214967  13.313   2.936   9.565  0.0857 -0.0932 -0.2271
 1157ERGO    R314968  13.172   2.736   9.447  0.0888 -0.0899 -0.2385
 1157ERGO    R414969  13.231   2.923   9.230 -0.1455  0.0650 -0.1800
 1157ERGO    R514970  13.035   2.847   9.285 -0.0768 -0.0532 -0.0802
 1157ERGO    C114971  13.051   2.727   8.924 -0.2771  0.1603 -0.1633
 1157ERGO    C214972  12.917   2.678   8.663 -0.1327 -0.0800 -0.3156
 1158ERGO   ROH14973  17.150   2.559   9.667  0.0847  0.0461 -0.2453
 1158ERGO    R114974  16.971   2.576   9.448  0.1594 -0.0813 -0.3179
 1158ERGO    R214975  16.828   2.805   9.391 -0.1675 -0.2555 -0.2296
 1158ERGO    R314976  16.942   2.777   9.146 -0.0010  0.0817 -0.1961
 1158ERGO    R414977  16.675   2.884   9.091 -0.1552 -0.3217 -0.2530
 1158ERGO    R514978  16.763   2.704   9.005  0.1822 -0.1278 -0.3251
 1158ERGO    C114979  16.693   2.903   8.687  0.0082 -0.0436 -0.2350
 1158ERGO    C214980  16.561   2.920   8.415  0.0254  0.1361 -0.1510
 1159ERGO   ROH14981   8.107   9.753   9.914 -0.2599  0.2382 -0.0974
 1159ERGO    R114982   8.237   9.650   9.684 -0.1663  0.0073  0.0541
 1159ERGO    R214983   8.099   9.526   9.479 -0.1210  0.0521 -0.0076
 1159ERGO    R314984   8.226   9.711   9.325  0.1928 -0.1369  0.0154
 1159ERGO    R414985   8.077   9.545   9.135 -0.0549  0.1127 -0.0082
 1159ERGO    R514986   8.290   9.590   9.129  0.0215 -0.2274  0.0154
 1159ERGO    C114987   8.183   9.729   8.790  0.2783 -0.0295  0.0129
 1159ERGO    C214988   8.054   9.866   8.585  0.1311 -0.0706 -0.1402
 1160ERGO   ROH14989   8.976  16.765   6.163 -0.0697  0.1508  0.0421
 1160ERGO    R114990   8.967  16.557   6.355 -0.1682  0.1342  0.0199
 1160ERGO    R214991   9.158  16.528   6.552 -0.0473 -0.1180 -0.1277
 1160ERGO    R314992   8.942  16.533   6.717  0.0795  0.1168  0.0374
 1160ERGO    R414993   9.173  16.538   6.898  0.2228 -0.0963 -0.1381
 1160ERGO    R514994   9.006  16.398   6.904  0.0845  0.0711  0.0017
 1160ERGO    C114995   8.979  16.548   7.253  0.4991  0.1367  0.0108
 1160ERGO    C214996   9.041  16.483   7.662 -0.1989  0.3070  0.0427
 1161ERGO   ROH14997   9.402   3.335   6.422  0.1818  0.1300  0.0065
 1161ERGO    R114998   9.627   3.426   6.567  0.2449 -0.0320  0.0122
 1161ERGO    R214999   9.608   3.533   6.821  0.2980  0.1108 -0.0420
 1161ERGO    R315000   9.791   3.342   6.881  0.0886 -0.0524  0.0891
 1161ERGO    R415001   9.780   3.513   7.120  0.1296  0.0046  0.0489
 1161ERGO    R515002   9.959   3.458   7.007  0.1362 -0.1866  0.1498
 1161ERGO    C115003  10.053   3.321   7.350 -0.1650 -0.2104  0.2249
 1161ERGO    C215004  10.165   3.135   7.562  0.1798  0.2025 -0.1979
 1162ERGO   ROH15005   5.813   8.721   9.826 -0.0626  0.1756  0.0246
 1162ERGO    R115006   5.754   8.671   9.554 -0.1148  0.1883  0.0330
 1162ERGO    R215007   5.723   8.873   9.368  0.0077  0.1936  0.0134
 1162ERGO    R315008   5.913   8.734   9.232 -0.0924  0.0519  0.0174
 1162ERGO    R415009   5.800   8.920   9.035  0.0730  0.1534  0.0232
 1162ERGO    R515010   5.819   8.704   9.014 -0.0979  0.1418  0.0090
 1162ERGO    C115011   6.024   8.817   8.713  0.0171 -0.0028  0.0326
 1162ERGO    C215012   6.182   8.810   8.377  0.1298  0.1329  0.1160
 1163ERGO   ROH15013   9.187   8.629  10.166 -0.0709  0.0262 -0.0102
 1163ERGO    R115014   9.097   8.577   9.903 -0.1203  0.0596 -0.0006
 1163ERGO    R215015   8.860   8.679   9.804 -0.1092  0.1297  0.0324
 1163ERGO    R315016   9.021   8.773   9.606 -0.1049  0.0930  0.0193
 1163ERGO    R415017   8.751   8.781   9.492 -0.0785 -0.0154 -0.0264
 1163ERGO    R515018   8.926   8.685   9.405 -0.0468 -0.0035  0.0387
 1163ERGO    C115019   8.839   8.929   9.125 -0.0564 -0.1345 -0.0732
 1163ERGO    C215020   9.008   9.126   8.826 -0.0008  0.2988 -0.1723
 1164ERGO   ROH15021   8.626  10.619   6.712 -0.1061 -0.0734 -0.1598
 1164ERGO    R115022   8.710  10.788   6.923 -0.0762 -0.0969 -0.1535
 1164ERGO    R215023   8.551  10.990   7.025 -0.0282 -0.0579 -0.1651
 1164ERGO    R315024   8.599  10.864   7.261 -0.0776 -0.0676 -0.1594
 1164ERGO    R415025   8.643  11.149   7.318  0.1696 -0.0869 -0.2091
 1164ERGO    R515026   8.782  10.985   7.357  0.0477 -0.2005 -0.2195
 1164ERGO    C115027   8.740  11.123   7.711  0.2382 -0.1128 -0.2296
 1164ERGO    C215028   8.808  11.467   8.034 -0.0664 -0.0330  0.1318
 1165ERGO   ROH15029   6.411  17.250   9.400 -0.1222 -0.1045  0.0001
 1165ERGO    R115030   6.581  17.354   9.199 -0.1826  0.2396  0.1226
 1165ERGO    R215031   6.647  17.212   8.971  0.3456  0.3237  0.2201
 1165ERGO    R315032   6.554  17.434   8.844 -0.0612  0.0847  0.0746
 1165ERGO    R415033   6.658  17.264   8.629  0.3281  0.1428  0.1895
 1165ERGO    R515034   6.711  17.472   8.668 -0.0785  0.2850  0.0899
 1165ERGO    C115035   6.578  17.502   8.312 -0.0639 -0.1869  0.0349
 1165ERGO    C215036   6.340  17.523   7.987  0.0199  0.0487  0.1067
 1166ERGO   ROH15037   6.474  18.370   9.263 -0.1478  0.1507  0.0358
 1166ERGO    R115038   6.444  18.508   9.018 -0.1126  0.0160 -0.0462
 1166ERGO    R215039   6.433  18.379   8.774 -0.1677 -0.1264  0.0295
 1166ERGO    R315040   6.200  18.517   8.748 -0.1226 -0.0636 -0.0398
 1166ERGO    R415041   6.333  18.545   8.488  0.0749  0.1087  0.0778
 1166ERGO    R515042   6.259  18.707   8.614  0.0126  0.0278  0.1451
 1166ERGO    C115043   6.057  18.772   8.296  0.2586  0.3045  0.0410
 1166ERGO    C215044   5.799  18.731   7.935 -0.0689  0.2253  0.0073
 1167ERGO   ROH15045   0.334   9.007   9.992  0.0916  0.2237  0.1311
 1167ERGO    R115046   0.324   8.931   9.719 -0.0840  0.1320  0.1605
 1167ERGO    R215047   0.184   9.076   9.529  0.0390  0.2424  0.1467
 1167ERGO    R315048   0.424   9.078   9.401  0.0095 -0.1080  0.0786
 1167ERGO    R415049   0.225   9.115   9.189  0.0087  0.1348  0.1305
 1167ERGO    R515050   0.381   8.964   9.195 -0.2003 -0.0797  0.1077
 1167ERGO    C115051   0.474   9.140   8.870 -0.0366 -0.2569  0.0572
 1167ERGO    C215052   0.361   9.200   8.669  0.0628  0.2371  0.1853
 1168ERGO   ROH15053   8.870  12.490   9.485  0.1302 -0.0104 -0.0034
 1168ERGO    R115054   8.970  12.337   9.268 -0.1606 -0.1513 -0.0441
 1168ERGO    R215055   8.833  12.307   9.031 -0.1797  0.2670 -0.0933
 1168ERGO    R315056   9.064  12.399   8.922  0.0685 -0.2074  0.0060
 1168ERGO    R415057   8.899  12.323   8.692 -0.1559  0.4664 -0.0805
 1168ERGO    R515058   9.102  12.256   8.734 -0.3119 -0.1126 -0.1535
 1168ERGO    C115059   9.155  12.418   8.393  0.0910  0.1372  0.0200
 1168ERGO    C215060   9.353  12.339   8.182  0.0604  0.1289 -0.0324
 1169ERGO   ROH15061  12.887  10.626   6.370 -0.3646  0.1559  0.2814
 1169ERGO    R115062  13.108  10.661   6.544 -0.2980  0.2357  0.1812
 1169ERGO    R215063  13.086  10.785   6.789 -0.2893 -0.0030  0.3019
 1169ERGO    R315064  13.198  10.555   6.880  0.0126  0.0334  0.0403
 1169ERGO    R415065  13.259  10.754   7.087 -0.1796 -0.0900  0.2304
 1169ERGO    R515066  13.402  10.626   6.984 -0.0431  0.1809  0.0596
 1169ERGO    C115067  13.466  10.520   7.345  0.1675 -0.1065 -0.0569
 1169ERGO    C215068  13.490  10.359   7.634  0.1235  0.1986 -0.2238
 1170ERGO   ROH15069  13.083   9.120   8.136  0.0995 -0.1204 -0.1981
 1170ERGO    R115070  12.894   8.978   8.291  0.1459  0.0016 -0.0279
 1170ERGO    R215071  12.770   8.749   8.201 -0.1213  0.1110  0.0609
 1170ERGO    R315072  12.866   8.644   8.433  0.0324  0.0007 -0.0491
 1170ERGO    R415073  12.703   8.430   8.315 -0.4442  0.2151  0.1741
 1170ERGO    R515074  12.684   8.512   8.517 -0.0638  0.2722  0.1981
 1170ERGO    C115075  12.753   8.146   8.600 -0.4878  0.1722  0.1366
 1170ERGO    C215076  12.843   7.931   8.489  0.2028  0.0883  0.0660
 1171ERGO   ROH15077   8.196  13.507   9.535 -0.3181 -0.0954 -0.1440
 1171ERGO    R115078   8.290  13.570   9.276 -0.1283 -0.2174 -0.1062
 1171ERGO    R215079   8.160  13.489   9.047 -0.2362  0.0861 -0.1567
 1171ERGO    R315080   8.167  13.754   8.987  0.2963  0.0970 -0.0972
 1171ERGO    R415081   8.241  13.618   8.737 -0.2863 -0.0247 -0.2173
 1171ERGO    R515082   8.354  13.776   8.838  0.1903 -0.2931 -0.3007
 1171ERGO    C115083   8.295  13.942   8.500  0.1844 -0.0790 -0.1966
 1171ERGO    C215084   8.377  13.951   8.228  0.1015 -0.2428 -0.0820
 1172ERGO   ROH15085   5.340   4.444  10.000  0.0699 -0.0990 -0.0835
 1172ERGO    R115086   5.505   4.441   9.770  0.0712 -0.0441 -0.0819
 1172ERGO    R215087   5.484   4.246   9.576  0.1436 -0.0534 -0.0726
 1172ERGO    R315088   5.456   4.459   9.410  0.0691 -0.0708 -0.0846
 1172ERGO    R415089   5.524   4.235   9.233  0.1370 -0.0688 -0.0739
 1172ERGO    R515090   5.626   4.428   9.244  0.0782 -0.0308 -0.0884
 1172ERGO    C115091   5.520   4.428   8.877  0.0632 -0.0941 -0.0858
 1172ERGO    C215092   5.536   4.273   8.481 -0.0032 -0.0690 -0.1107
 1173ERGO   ROH15093   2.525  14.040   9.297 -0.0258  0.1899  0.0082
 1173ERGO    R115094   2.470  14.145   9.040 -0.0688  0.0572 -0.0365
 1173ERGO    R215095   2.577  14.384   8.951 -0.1826  0.0690 -0.1289
 1173ERGO    R315096   2.662  14.231   8.743 -0.1028  0.0276 -0.0685
 1173ERGO    R415097   2.525  14.458   8.618  0.2441  0.1932 -0.1759
 1173ERGO    R515098   2.485  14.246   8.582  0.0770  0.2321 -0.2584
 1173ERGO    C115099   2.574  14.358   8.228  0.5674  0.2268 -0.1465
 1173ERGO    C215100   2.765  14.380   8.012  0.0519  0.2469 -0.1477
 1174ERGO   ROH15101  11.103   3.529   7.099  0.0750  0.1319 -0.0289
 1174ERGO    R115102  11.096   3.640   7.360 -0.0515  0.2152 -0.0663
 1174ERGO    R215103  10.869   3.754   7.467 -0.2055 -0.0668 -0.0810
 1174ERGO    R315104  10.915   3.578   7.669  0.0687  0.0637 -0.0253
 1174ERGO    R415105  10.737   3.780   7.785 -0.1759 -0.1267 -0.0638
 1174ERGO    R515106  10.929   3.715   7.865 -0.0711  0.1546 -0.0781
 1174ERGO    C115107  10.703   3.630   8.160  0.0989 -0.0392 -0.0015
 1174ERGO    C215108  10.496   3.595   8.415 -0.0401  0.0327  0.0590
 1175ERGO   ROH15109  10.220  13.827   9.685 -0.0809 -0.0454  0.0870
 1175ERGO    R115110  10.214  13.642   9.471  0.0315  0.0294  0.0174
 1175ERGO    R215111   9.996  13.617   9.302  0.0002 -0.1138  0.0748
 1175ERGO    R315112  10.183  13.657   9.108 -0.0950  0.1421  0.0327
 1175ERGO    R415113   9.940  13.579   8.963  0.0908 -0.6618  0.1117
 1175ERGO    R515114  10.137  13.488   8.946  0.3395 -0.1801  0.2290
 1175ERGO    C115115  10.083  13.595   8.584  0.0541 -0.7405  0.0937
 1175ERGO    C215116  10.048  13.687   8.224 -0.1100  0.2301 -0.2811
 1176ERGO   ROH15117  11.956   1.245   6.692 -0.2337 -0.1932 -0.0965
 1176ERGO    R115118  12.106   1.244   6.932 -0.2118 -0.1148 -0.1098
 1176ERGO    R215119  11.996   1.310   7.176 -0.2080 -0.1082 -0.1100
 1176ERGO    R315120  12.096   1.068   7.250 -0.1340 -0.0694 -0.0817
 1176ERGO    R415121  12.050   1.211   7.503  0.1026  0.0571 -0.1068
 1176ERGO    R515122  12.236   1.117   7.438  0.0446  0.0285 -0.2368
 1176ERGO    C115123  12.174   0.926   7.763  0.3530  0.1898 -0.0785
 1176ERGO    C215124  12.158   0.788   8.060 -0.0213  0.2715 -0.1160
 1177ERGO   ROH15125   3.681  10.460   9.677  0.0466 -0.1435 -0.0334
 1177ERGO    R115126   3.557  10.510   9.427 -0.0037 -0.1235 -0.0057
 1177ERGO    R215127   3.681  10.653   9.225 -0.0302 -0.1311 -0.0350
 1177ERGO    R315128   3.624  10.432   9.079 -0.0873 -0.1250 -0.0201
 1177ERGO    R415129   3.653  10.645   8.881 -0.1435 -0.1342 -0.0254
 1177ERGO    R515130   3.484  10.511   8.902 -0.1381 -0.1233  0.0268
 1177ERGO    C115131   3.584  10.432   8.543 -0.2630 -0.1302 -0.0059
 1177ERGO    C215132   3.709  10.423   8.329  0.1195  0.0327  0.0593
 1178ERGO   ROH15133   1.980   7.631   6.455 -0.3158  0.0137  0.0155
 1178ERGO    R115134   2.143   7.591   6.683 -0.1333 -0.0503 -0.1226
 1178ERGO    R215135   2.152   7.771   6.893  0.1295 -0.0438 -0.1315
 1178ERGO    R315136   2.091   7.551   7.041  0.1571 -0.0128 -0.0749
 1178ERGO    R415137   2.193   7.745   7.235  0.0334  0.0791 -0.1103
 1178ERGO    R515138   2.264   7.541   7.207  0.1071  0.0956 -0.0194
 1178ERGO    C115139   2.160   7.524   7.574  0.0033  0.1798 -0.0447
 1178ERGO    C215140   2.135   7.235   7.826 -0.2074 -0.0311  0.1060
 1179ERGO   ROH15141  11.555  15.718   9.632 -0.1241 -0.0605  0.1695
 1179ERGO    R115142  11.405  15.817   9.413 -0.1113 -0.1963  0.1002
 1179ERGO    R215143  11.500  16.013   9.244 -0.2061 -0.1227  0.1463
 1179ERGO    R315144  11.442  15.831   9.051  0.0356 -0.1712  0.1128
 1179ERGO    R415145  11.523  16.072   8.905 -0.1983 -0.0430  0.1590
 1179ERGO    R515146  11.338  15.960   8.878 -0.0782 -0.2542  0.1081
 1179ERGO    C115147  11.482  15.936   8.525  0.0332 -0.0420  0.1350
 1179ERGO    C215148  11.396  15.992   8.210  0.0252  0.0896  0.1372
 1180ERGO   ROH15149  14.622  17.250   6.347  0.0155 -0.0310 -0.1119
 1180ERGO    R115150  14.585  17.146   6.608 -0.1318  0.0966 -0.0797
 1180ERGO    R215151  14.766  16.974   6.727 -0.4150 -0.2090 -0.0678
 1180ERGO    R315152  14.761  17.159   6.926 -0.0484 -0.1435 -0.1149
 1180ERGO    R415153  14.805  16.903   7.063 -0.5846 -0.2029 -0.0465
 1180ERGO    R515154  14.649  17.050   7.107 -0.2908  0.1334 -0.0938
 1180ERGO    C115155  14.823  17.036   7.445 -0.3391 -0.1378 -0.0783
 1180ERGO    C215156  14.878  16.895   7.718  0.0780  0.1333  0.1512
 1181ERGO   ROH15157   0.269  13.955   5.858 -0.0776 -0.0415 -0.0866
 1181ERGO    R115158   0.208  13.880   6.124 -0.0675 -0.0968 -0.0994
 1181ERGO    R215159   0.309  13.651   6.241 -0.1341 -0.1702 -0.1798
 1181ERGO    R315160   0.392  13.825   6.433 -0.0423 -0.2551 -0.1423
 1181ERGO    R415161   0.387  13.564   6.566 -0.1368 -0.2855 -0.2100
 1181ERGO    R515162   0.288  13.746   6.634 -0.0535 -0.2629 -0.1526
 1181ERGO    C115163   0.511  13.676   6.936 -0.0521 -0.4321 -0.1925
 1181ERGO    C215164   0.526  13.527   7.303 -0.0031  0.0397 -0.1835
 1182ERGO   ROH15165  11.770   1.420   9.910  0.1376 -0.1413 -0.1390
 1182ERGO    R115166  11.640   1.371   9.663  0.0073  0.0037 -0.1013
 1182ERGO    R215167  11.650   1.549   9.452  0.1512 -0.0082 -0.1076
 1182ERGO    R315168  11.740   1.332   9.315 -0.1370 -0.1171 -0.1297
 1182ERGO    R415169  11.629   1.509   9.109 -0.0796 -0.0381 -0.0911
 1182ERGO    R515170  11.578   1.300   9.142 -0.2666  0.0159 -0.0346
 1182ERGO    C115171  11.701   1.282   8.781 -0.4847 -0.1578 -0.1022
 1182ERGO    C215172  11.661   1.468   8.551  0.2561  0.1513  0.0121
 1183ERGO   ROH15173   4.762   2.340   9.566  0.3102 -0.0840 -0.0004
 1183ERGO    R115174   4.802   2.230   9.308 -0.0075 -0.0677 -0.0609
 1183ERGO    R215175   4.608   2.234   9.113 -0.1022  0.3417  0.0351
 1183ERGO    R315176   4.803   2.353   8.966  0.0376  0.0544 -0.0186
 1183ERGO    R415177   4.620   2.234   8.768 -0.3446  0.5271  0.0234
 1183ERGO    R515178   4.836   2.203   8.781 -0.3835  0.0922 -0.1392
 1183ERGO    C115179   4.811   2.345   8.428 -0.3545  0.3655 -0.0339
 1183ERGO    C215180   4.855   2.303   8.136  0.0499  0.4793  0.0852
 1184ERGO   ROH15181  17.686   5.457  10.073  0.2552  0.0179 -0.1824
 1184ERGO    R115182  17.614   5.368   9.814  0.1557 -0.0086 -0.1458
 1184ERGO    R215183  17.354   5.372   9.723  0.1230 -0.0076 -0.0499
 1184ERGO    R315184  17.462   5.513   9.518  0.0525 -0.0368 -0.1074
 1184ERGO    R415185  17.227   5.381   9.402  0.1202 -0.2120 -0.0561
 1184ERGO    R515186  17.431   5.373   9.326  0.1284 -0.1366 -0.0489
 1184ERGO    C115187  17.255   5.519   9.021  0.0525 -0.3585 -0.1137
 1184ERGO    C215188  17.201   5.526   8.607 -0.0560 -0.4539 -0.0610
 1185ERGO   ROH15189  15.474   6.917  10.404 -0.0854 -0.2312  0.0797
 1185ERGO    R115190  15.458   6.832  10.135 -0.2535 -0.0731  0.0368
 1185ERGO    R215191  15.257   6.915   9.964 -0.1666  0.3106  0.1047
 1185ERGO    R315192  15.466   6.989   9.806 -0.0760  0.0881  0.1177
 1185ERGO    R415193  15.260   6.898   9.619 -0.1297  0.2458  0.1088
 1185ERGO    R515194  15.466   6.829   9.629 -0.1975  0.0575  0.1484
 1185ERGO    C115195  15.457   6.958   9.270 -0.0231 -0.0007  0.1233
 1185ERGO    C215196  15.604   6.836   8.958 -0.1665 -0.1811 -0.2514
 1186ERGO   ROH15197   6.114   9.743   6.409 -0.0609 -0.0213 -0.1103
 1186ERGO    R115198   6.133   9.786   6.688  0.0806 -0.0696 -0.1108
 1186ERGO    R215199   5.938   9.702   6.865  0.0168  0.1642 -0.0636
 1186ERGO    R315200   6.148   9.580   6.987 -0.0963 -0.1249 -0.1373
 1186ERGO    R415201   5.962   9.644   7.205  0.1278  0.2820 -0.0502
 1186ERGO    R515202   6.173   9.698   7.194  0.2209 -0.0616 -0.2038
 1186ERGO    C115203   6.173   9.495   7.517  0.0862  0.0792 -0.1117
 1186ERGO    C215204   6.018   9.401   7.758 -0.2535 -0.0422 -0.0642
 1187ERGO   ROH15205  14.676  16.692   6.182 -0.2870 -0.1571 -0.0963
 1187ERGO    R115206  14.546  16.679   6.433 -0.1991 -0.1192 -0.0466
 1187ERGO    R215207  14.485  16.439   6.559 -0.1288 -0.1074  0.0316
 1187ERGO    R315208  14.624  16.550   6.764 -0.0632 -0.0405 -0.0505
 1187ERGO    R415209  14.494  16.319   6.882  0.0250 -0.0100  0.0635
 1187ERGO    R515210  14.483  16.522   6.955  0.0290 -0.0043  0.0129
 1187ERGO    C115211  14.628  16.353   7.264  0.1760  0.1094  0.0051
 1187ERGO    C215212  14.754  16.435   7.635 -0.1999  0.3743  0.1337
 1188ERGO   ROH15213   2.071   6.218   9.630  0.2737 -0.1284 -0.0796
 1188ERGO    R115214   2.178   6.193   9.369 -0.0006 -0.2205 -0.1874
 1188ERGO    R215215   2.019   6.152   9.146 -0.2698  0.0537 -0.0567
 1188ERGO    R315216   2.150   6.371   9.053 -0.0435 -0.1046 -0.1180
 1188ERGO    R415217   2.024   6.254   8.816 -0.2379  0.0092 -0.0693
 1188ERGO    R515218   2.235   6.304   8.840 -0.1743 -0.2267 -0.1309
 1188ERGO    C115219   2.150   6.520   8.537 -0.0068 -0.1654 -0.1341
 1188ERGO    C215220   2.131   6.639   8.193 -0.0542  0.0750  0.1330
 1189ERGO   ROH15221   9.523   7.280   7.012 -0.1591 -0.0356  0.0232
 1189ERGO    R115222   9.622   7.133   7.233 -0.0751 -0.0664 -0.0348
 1189ERGO    R215223   9.691   7.252   7.472 -0.0237 -0.1053 -0.0299
 1189ERGO    R315224   9.519   7.068   7.575  0.0317 -0.1508 -0.0179
 1189ERGO    R415225   9.633   7.202   7.810 -0.0896 -0.0264 -0.0292
 1189ERGO    R515226   9.629   6.988   7.772  0.0168 -0.0405  0.0362
 1189ERGO    C115227   9.438   7.001   8.103 -0.0759 -0.0232 -0.0174
 1189ERGO    C215228   9.247   7.099   8.386  0.0691  0.1197 -0.0847
 1190ERGO   ROH15229  10.452   6.857   7.026 -0.2305 -0.0096  0.0436
 1190ERGO    R115230  10.598   6.750   7.243 -0.1229  0.1500  0.0520
 1190ERGO    R215231  10.540   6.811   7.506 -0.3072 -0.0310  0.0555
 1190ERGO    R315232  10.526   6.540   7.532  0.1202 -0.0687 -0.0420
 1190ERGO    R415233  10.611   6.637   7.796 -0.1909 -0.0099  0.0401
 1190ERGO    R515234  10.711   6.485   7.675  0.1318  0.1880  0.0471
 1190ERGO    C115235  10.640   6.282   7.990  0.2778 -0.0332 -0.0603
 1190ERGO    C215236  10.727   6.120   8.272  0.0724 -0.2315  0.1407
 1191ERGO   ROH15237  15.633  11.937   6.400 -0.1236  0.2622  0.0925
 1191ERGO    R115238  15.534  11.940   6.665 -0.3043  0.3015  0.0272
 1191ERGO    R215239  15.699  11.912   6.885 -0.4889  0.0045  0.1379
 1191ERGO    R315240  15.582  12.145   6.962 -0.2315  0.1388  0.1282
 1191ERGO    R415241  15.704  12.040   7.207 -0.3166  0.0362  0.1224
 1191ERGO    R515242  15.496  12.100   7.181 -0.2547  0.2556  0.1415
 1191ERGO    C115243  15.597  12.333   7.465  0.0254  0.1808  0.1042
 1191ERGO    C215244  15.701  12.591   7.834  0.1774 -0.1405 -0.1212
 1192ERGO   ROH15245   7.143   0.204   6.412 -0.2797 -0.1993 -0.1425
 1192ERGO    R115246   6.971   0.234   6.635 -0.1626 -0.0037 -0.0763
 1192ERGO    R215247   6.961   0.050   6.842 -0.3044 -0.0023 -0.0857
 1192ERGO    R315248   7.009   0.269   6.995  0.0131 -0.0649 -0.0865
 1192ERGO    R415249   6.878   0.079   7.176  0.2270 -0.0831  0.0632
 1192ERGO    R515250   6.817   0.285   7.138  0.2337 -0.0461  0.2228
 1192ERGO    C115251   6.874   0.302   7.515  0.8344 -0.1889  0.1492
 1192ERGO    C215252   7.004   0.266   7.786  0.0226 -0.2630 -0.0381
 1193ERGO   ROH15253   9.931   8.073   7.128  0.1682  0.0137  0.0377
 1193ERGO    R115254   9.888   8.165   7.392  0.1401  0.2217 -0.0372
 1193ERGO    R215255   9.944   8.011   7.614 -0.2322  0.2509  0.0848
 1193ERGO    R315256  10.093   8.226   7.687  0.0530  0.0690  0.0554
 1193ERGO    R415257   9.979   8.127   7.938 -0.1196  0.2844  0.0610
 1193ERGO    R515258   9.966   8.331   7.861  0.1689  0.2860  0.0114
 1193ERGO    C115259  10.138   8.397   8.194  0.2137  0.1333  0.0195
 1193ERGO    C215260  10.418   8.507   8.348 -0.1758  0.0513 -0.3491
 1194ERGO   ROH15261  16.293  13.667   9.670 -0.1265  0.0341  0.0015
 1194ERGO    R115262  16.330  13.759   9.405 -0.1863 -0.0046 -0.0205
 1194ERGO    R215263  16.540  13.674   9.246 -0.0703  0.1711  0.0369
 1194ERGO    R315264  16.340  13.611   9.073  0.0208 -0.0954  0.0242
 1194ERGO    R415265  16.574  13.654   8.902 -0.0519  0.3727  0.0252
 1194ERGO    R515266  16.380  13.750   8.882 -0.2216  0.0571  0.0787
 1194ERGO    C115267  16.407  13.582   8.540  0.0442  0.2397  0.0067
 1194ERGO    C215268  16.570  13.417   8.240  0.1045  0.3481  0.0794
 1195ERGO   ROH15269  13.089   9.763  10.005  0.1138  0.1604 -0.1003
 1195ERGO    R115270  13.122   9.513   9.876 -0.0263  0.0382  0.0952
 1195ERGO    R215271  12.908   9.356   9.800 -0.1291  0.2708 -0.1074
 1195ERGO    R315272  13.029   9.366   9.556  0.2304 -0.0271  0.0486
 1195ERGO    R415273  12.821   9.162   9.527 -0.1053  0.3313 -0.1586
 1195ERGO    R515274  13.033   9.139   9.482 -0.0743 -0.0661  0.1384
 1195ERGO    C115275  12.884   9.058   9.140  0.2461  0.0868 -0.0421
 1195ERGO    C215276  12.670   8.884   8.901 -0.0852 -0.0321  0.0919
 1196ERGO   ROH15277  10.733   9.824   9.805  0.0713  0.0268  0.0033
 1196ERGO    R115278  10.834   9.702   9.570  0.0624  0.0044  0.0102
 1196ERGO    R215279  10.726   9.471   9.464 -0.0251  0.0629 -0.0381
 1196ERGO    R315280  10.708   9.622   9.239  0.0897  0.0995 -0.0224
 1196ERGO    R415281  10.845   9.377   9.153 -0.1401 -0.0125 -0.0594
 1196ERGO    R515282  10.914   9.582   9.123  0.0406 -0.0739 -0.0470
 1196ERGO    C115283  10.897   9.464   8.761 -0.0993 -0.0221 -0.0570
 1196ERGO    C215284  11.122   9.333   8.500 -0.1735 -0.1335  0.4650
 1197ERGO   ROH15285   5.684   7.652   9.915 -0.3632  0.0382  0.0917
 1197ERGO    R115286   5.660   7.792   9.670 -0.4071  0.0856  0.1239
 1197ERGO    R215287   5.773   7.700   9.435 -0.0939  0.3390  0.1719
 1197ERGO    R315288   5.519   7.726   9.341 -0.0744 -0.0256 -0.0012
 1197ERGO    R415289   5.689   7.784   9.110 -0.0012  0.0804  0.0781
 1197ERGO    R515290   5.530   7.910   9.188 -0.2133 -0.0803 -0.0802
 1197ERGO    C115291   5.402   7.856   8.833  0.0710 -0.4124 -0.1391
 1197ERGO    C215292   5.326   7.877   8.513 -0.1697  0.1761 -0.2361
 1198ERGO   ROH15293  15.589  15.169   9.582  0.0003 -0.1301 -0.1264
 1198ERGO    R115294  15.633  14.995   9.364 -0.0223 -0.0602 -0.1870
 1198ERGO    R215295  15.435  14.928   9.183 -0.0628 -0.0667 -0.1398
 1198ERGO    R315296  15.616  15.016   9.001 -0.1454  0.0314 -0.1764
 1198ERGO    R415297  15.474  14.797   8.866  0.1670 -0.2696 -0.0316
 1198ERGO    R515298  15.689  14.816   8.890  0.1410  0.0375 -0.0059
 1198ERGO    C115299  15.667  14.803   8.510  0.2231 -0.2955 -0.0029
 1198ERGO    C215300  15.686  14.780   8.132 -0.0479 -0.1690 -0.0719
 1199ERGO   ROH15301  11.614   8.970  10.108  0.1259 -0.1107 -0.1098
 1199ERGO    R115302  11.470   8.899   9.875 -0.0101 -0.0332 -0.0516
 1199ERGO    R215303  11.492   9.039   9.638 -0.0595 -0.0220 -0.0531
 1199ERGO    R315304  11.551   8.794   9.536 -0.2047 -0.0396 -0.0961
 1199ERGO    R415305  11.426   8.939   9.314  0.1734  0.1801 -0.1661
 1199ERGO    R515306  11.367   8.744   9.391 -0.1067  0.2072 -0.3099
 1199ERGO    C115307  11.443   8.651   9.029  0.1726  0.2813 -0.2723
 1199ERGO    C215308  11.368   8.561   8.643  0.0778 -0.2828 -0.1000
 1200ERGO   ROH15309   2.275   6.691   9.691 -0.3705  0.1325  0.0307
 1200ERGO    R115310   2.355   6.832   9.458 -0.2500 -0.0316 -0.0286
 1200ERGO    R215311   2.425   6.703   9.223 -0.2987 -0.1927  0.0420
 1200ERGO    R315312   2.236   6.867   9.116 -0.1829 -0.1247 -0.0614
 1200ERGO    R415313   2.399   6.783   8.888 -0.0437 -0.1145  0.0385
 1200ERGO    R515314   2.352   6.988   8.945 -0.0338 -0.1168  0.0453
 1200ERGO    C115315   2.207   6.983   8.592  0.2135 -0.0051 -0.0605
 1200ERGO    C215316   2.129   7.095   8.328 -0.0842  0.0934 -0.3673
 1201ERGO   ROH15317   4.174   9.800   6.615 -0.0130 -0.1376  0.0503
 1201ERGO    R115318   4.107   9.693   6.869  0.0271 -0.0869  0.0825
 1201ERGO    R215319   4.288   9.553   7.024  0.1781  0.2914  0.2640
 1201ERGO    R315320   4.221   9.737   7.212 -0.2100  0.3092  0.1166
 1201ERGO    R415321   4.346   9.518   7.362  0.0293  0.5804  0.3220
 1201ERGO    R515322   4.150   9.606   7.400 -0.1285  0.3139  0.1505
 1201ERGO    C115323   4.317   9.671   7.737 -0.4217  0.7653  0.2173
 1201ERGO    C215324   4.433   9.603   7.986 -0.3979 -0.3137 -0.2173
 1202ERGO   ROH15325  14.129  10.024   9.906 -0.0746  0.0579  0.0436
 1202ERGO    R115326  14.134  10.152   9.654 -0.1405 -0.0366 -0.0054
 1202ERGO    R215327  14.349  10.133   9.481 -0.1543 -0.0331 -0.0154
 1202ERGO    R315328  14.159  10.050   9.306 -0.1423 -0.1587  0.0285
 1202ERGO    R415329  14.385  10.128   9.138 -0.2027 -0.0625 -0.0209
 1202ERGO    R515330  14.180  10.199   9.120 -0.2472 -0.1700  0.0024
 1202ERGO    C115331  14.228  10.048   8.773 -0.2196 -0.1976  0.0169
 1202ERGO    C215332  14.084   9.914   8.371  0.0227 -0.2294  0.2241
 1203ERGO   ROH15333  14.011   3.796  10.273 -0.0082  0.0346 -0.0198
 1203ERGO    R115334  14.138   3.737  10.027  0.0635 -0.1516  0.0582
 1203ERGO    R215335  14.070   3.518   9.873 -0.1521 -0.0696  0.0224
 1203ERGO    R315336  14.037   3.705   9.679  0.2253 -0.0209 -0.0003
 1203ERGO    R415337  14.023   3.448   9.538 -0.2371 -0.0081  0.0222
 1203ERGO    R515338  14.154   3.616   9.490  0.0852 -0.2562  0.0248
 1203ERGO    C115339  13.965   3.584   9.160  0.0678  0.0733  0.0009
 1203ERGO    C215340  13.691   3.618   8.944  0.2341 -0.3673 -0.0627
 1204ERGO   ROH15341   7.627  15.720   6.066  0.0454 -0.0541 -0.0816
 1204ERGO    R115342   7.645  15.588   6.316 -0.0845 -0.2145 -0.1562
 1204ERGO    R215343   7.638  15.724   6.556  0.2148 -0.3250 -0.0895
 1204ERGO    R315344   7.435  15.551   6.611 -0.0502 -0.0306 -0.1042
 1204ERGO    R415345   7.503  15.671   6.870  0.2856 -0.2833 -0.0508
 1204ERGO    R515346   7.493  15.458   6.824 -0.0873 -0.2547 -0.1815
 1204ERGO    C115347   7.234  15.478   7.105  0.0781  0.0174 -0.0423
 1204ERGO    C215348   7.035  15.647   7.423 -0.0817  0.0797  0.0988
 1205ERGO   ROH15349   3.658   3.999   9.635 -0.0646  0.0122  0.0409
 1205ERGO    R115350   3.490   4.137   9.454  0.0461  0.1769  0.0638
 1205ERGO    R215351   3.568   4.370   9.327  0.3533 -0.0229 -0.1229
 1205ERGO    R315352   3.503   4.232   9.102 -0.0138 -0.0568 -0.0034
 1205ERGO    R415353   3.569   4.501   9.007  0.6330 -0.2826 -0.2348
 1205ERGO    R515354   3.385   4.391   8.967  0.3495  0.1245 -0.1168
 1205ERGO    C115355   3.508   4.447   8.610  0.4512 -0.4657 -0.1879
 1205ERGO    C215356   3.676   4.528   8.241 -0.0898  0.1759  0.1910
 1206ERGO   ROH15357   6.011  16.413   9.014  0.0334  0.2239 -0.0434
 1206ERGO    R115358   6.051  16.548   8.769  0.1604  0.0903 -0.0977
 1206ERGO    R215359   6.180  16.432   8.554  0.1954 -0.0580  0.0031
 1206ERGO    R315360   5.953  16.501   8.422  0.2625 -0.0478 -0.1089
 1206ERGO    R415361   6.151  16.457   8.210  0.2949 -0.3206 -0.0270
 1206ERGO    R515362   6.029  16.635   8.238  0.3774 -0.2335 -0.2007
 1206ERGO    C115363   5.920  16.536   7.886  0.4159 -0.4640 -0.1497
 1206ERGO    C215364   6.119  16.566   7.534 -0.4646 -0.0033  0.2576
 1207ERGO   ROH15365   5.844   2.342   9.646  0.1791  0.1327 -0.1275
 1207ERGO    R115366   5.779   2.299   9.373  0.2194  0.0838 -0.1305
 1207ERGO    R215367   5.668   2.496   9.214  0.0939  0.0103 -0.1426
 1207ERGO    R315368   5.879   2.439   9.053  0.1426  0.1459 -0.1261
 1207ERGO    R415369   5.662   2.503   8.868  0.0378 -0.2810 -0.1495
 1207ERGO    R515370   5.784   2.323   8.867  0.2644 -0.1276 -0.0190
 1207ERGO    C115371   5.857   2.454   8.516  0.0508 -0.3233 -0.1380
 1207ERGO    C215372   6.032   2.482   8.220  0.1077  0.1927  0.2206
 1208ERGO   ROH15373   2.521  13.859   5.657 -0.0683  0.1716 -0.0677
 1208ERGO    R115374   2.521  14.001   5.902  0.0721  0.1001 -0.0247
 1208ERGO    R215375   2.367  13.925   6.118  0.1468  0.0736  0.0214
 1208ERGO    R315376   2.605  13.930   6.249  0.2061 -0.0230 -0.0813
 1208ERGO    R415377   2.402  13.935   6.461  0.3035 -0.1708  0.0142
 1208ERGO    R515378   2.567  14.076   6.435  0.2925 -0.1549  0.0402
 1208ERGO    C115379   2.646  13.945   6.784  0.4505 -0.4037 -0.0865
 1208ERGO    C215380   2.574  14.061   7.049  0.1285 -0.1180 -0.2134
 1209ERGO   ROH15381   9.419  11.050   6.568 -0.1311  0.1666  0.2506
 1209ERGO    R115382   9.411  10.894   6.804  0.0607  0.0501  0.1828
 1209ERGO    R215383   9.560  10.664   6.836  0.0190 -0.0140 -0.0871
 1209ERGO    R315384   9.647  10.790   7.061  0.2914 -0.1605 -0.1054
 1209ERGO    R415385   9.646  10.505   7.131 -0.1533 -0.1826 -0.1257
 1209ERGO    R515386   9.548  10.666   7.240  0.1342 -0.0185 -0.0858
 1209ERGO    C115387   9.778  10.532   7.514  0.0022 -0.4183 -0.1652
 1209ERGO    C215388  10.049  10.596   7.674 -0.3140  0.2961  0.0810
 1210ERGO   ROH15389  14.113  15.294   5.945 -0.0156  0.1610 -0.0327
 1210ERGO    R115390  14.131  15.288   6.227 -0.0805  0.1076 -0.0298
 1210ERGO    R215391  14.037  15.494   6.387 -0.1841  0.0412 -0.0103
 1210ERGO    R315392  13.898  15.293   6.507 -0.1474 -0.0275 -0.0803
 1210ERGO    R415393  13.932  15.496   6.716 -0.0561 -0.1460  0.0336
 1210ERGO    R515394  13.986  15.285   6.730 -0.0581 -0.1628 -0.1150
 1210ERGO    C115395  13.741  15.309   7.021  0.0529 -0.3195 -0.0064
 1210ERGO    C215396  13.490  15.329   7.231  0.1090 -0.0899 -0.0406
 1211ERGO   ROH15397   8.460   4.211   6.779 -0.1119  0.3348 -0.0487
 1211ERGO    R115398   8.550   4.125   7.032 -0.2518  0.2831 -0.0143
 1211ERGO    R215399   8.815   4.144   7.110 -0.1968 -0.1733 -0.0449
 1211ERGO    R315400   8.709   4.278   7.322  0.0596  0.1330 -0.1033
 1211ERGO    R415401   8.927   4.117   7.436 -0.2523 -0.2399 -0.0319
 1211ERGO    R515402   8.719   4.120   7.503 -0.2500  0.1952 -0.0316
 1211ERGO    C115403   8.892   4.227   7.825 -0.0440  0.0088 -0.0791
 1211ERGO    C215404   9.053   4.335   8.219  0.0017 -0.0674  0.1892
 1212ERGO   ROH15405  11.561  10.967   9.728  0.0388  0.1549 -0.0505
 1212ERGO    R115406  11.514  10.865   9.468 -0.0136  0.0746 -0.0093
 1212ERGO    R215407  11.634  10.971   9.243 -0.1296  0.0629 -0.0756
 1212ERGO    R315408  11.715  10.714   9.204 -0.0500  0.0818 -0.0412
 1212ERGO    R415409  11.719  10.835   8.937  0.0600  0.0880 -0.0357
 1212ERGO    R515410  11.616  10.652   8.995  0.0720  0.0630 -0.0938
 1212ERGO    C115411  11.845  10.515   8.723  0.2451  0.1205  0.0198
 1212ERGO    C215412  11.888  10.363   8.463 -0.0127  0.1105  0.0612
 1213ERGO   ROH15413   7.784  11.337   6.478  0.2153  0.4635 -0.0787
 1213ERGO    R115414   7.803  11.429   6.745  0.1053  0.3283 -0.0226
 1213ERGO    R215415   7.581  11.474   6.903  0.0410  0.1910 -0.0696
 1213ERGO    R315416   7.710  11.306   7.074  0.0262  0.1310 -0.1175
 1213ERGO    R415417   7.549  11.479   7.247 -0.0790 -0.0077 -0.0765
 1213ERGO    R515418   7.763  11.443   7.263 -0.0755  0.0410 -0.0231
 1213ERGO    C115419   7.650  11.325   7.608 -0.1629 -0.1796 -0.1256
 1213ERGO    C215420   7.423  11.376   7.832  0.1822 -0.1931  0.1029
 1214ERGO   ROH15421   7.908  10.150   9.889  0.0334 -0.0507  0.0356
 1214ERGO    R115422   8.005  10.092   9.629  0.0541  0.0690  0.0167
 1214ERGO    R215423   7.885   9.907   9.463  0.1163  0.0882 -0.0456
 1214ERGO    R315424   7.879  10.115   9.288  0.0511  0.1440  0.0217
 1214ERGO    R415425   7.765   9.889   9.140  0.1517  0.1398 -0.0621
 1214ERGO    R515426   7.931  10.016   9.076  0.1111  0.2282 -0.0067
 1214ERGO    C115427   7.689  10.074   8.787  0.1111  0.2222 -0.0086
 1214ERGO    C215428   7.354  10.026   8.684  0.1989 -0.0496  0.0140
 1215ERGO   ROH15429   8.026   8.333  10.261 -0.1819  0.1584  0.1157
 1215ERGO    R115430   8.027   8.363   9.980 -0.0559  0.1777  0.1186
 1215ERGO    R215431   8.209   8.234   9.817 -0.1300  0.0069  0.1757
 1215ERGO    R315432   7.985   8.146   9.690 -0.1760  0.2394  0.0877
 1215ERGO    R415433   8.208   8.042   9.529 -0.1975 -0.2950  0.3714
 1215ERGO    R515434   8.040   8.161   9.457  0.0465 -0.0868  0.1095
 1215ERGO    C115435   7.998   7.848   9.243 -0.2801 -0.2524  0.4027
 1215ERGO    C215436   7.991   7.769   8.959  0.0970  0.1041  0.0422
 1216ERGO   ROH15437   5.584  10.872   9.624 -0.0891 -0.2306  0.0252
 1216ERGO    R115438   5.589  10.739   9.374  0.1485 -0.0791 -0.0547
 1216ERGO    R215439   5.415  10.800   9.169 -0.0252 -0.3193  0.0118
 1216ERGO    R315440   5.645  10.831   9.027 -0.1007  0.2480 -0.0118
 1216ERGO    R415441   5.439  10.781   8.825  0.0227 -0.5090  0.0250
 1216ERGO    R515442   5.626  10.672   8.848  0.3552  0.0469  0.1066
 1216ERGO    C115443   5.668  10.798   8.491 -0.0204 -0.0870  0.0105
 1216ERGO    C215444   5.715  10.640   8.144  0.0343  0.1618 -0.0187
 1217ERGO   ROH15445   0.672   2.729   5.765 -0.2622  0.0205  0.0500
 1217ERGO    R115446   0.442   2.713   5.928 -0.2056  0.0079  0.1290
 1217ERGO    R215447   0.355   2.477   6.041 -0.2068 -0.0144  0.0818
 1217ERGO    R315448   0.367   2.620   6.272 -0.0970 -0.0930  0.1256
 1217ERGO    R415449   0.312   2.345   6.358 -0.1508 -0.1047  0.0524
 1217ERGO    R515450   0.198   2.523   6.411 -0.0836 -0.0890  0.1445
 1217ERGO    C115451   0.298   2.403   6.759 -0.0150 -0.2311  0.0765
 1217ERGO    C215452   0.293   2.198   6.984 -0.0058  0.1109  0.1581
 1218ERGO   ROH15453   9.758   0.038  10.009 -0.1996 -0.0110 -0.1491
 1218ERGO    R115454  10.008   0.019   9.879 -0.2094 -0.2889 -0.1284
 1218ERGO    R215455  10.032  -0.008   9.605 -0.2194  0.0717 -0.1550
 1218ERGO    R315456  10.193   0.210   9.630  0.2050 -0.2594  0.1840
 1218ERGO    R415457  10.261   0.096   9.368 -0.4787  0.3067 -0.3104
 1218ERGO    R515458  10.400   0.142   9.530 -0.0792 -0.3824 -0.3932
 1218ERGO    C115459  10.545   0.361   9.253 -0.2313  0.1327 -0.0826
 1218ERGO    C215460  10.563   0.402   8.892  0.0046 -0.2000  0.0308
 1219ERGO   ROH15461  15.569   9.377  10.156 -0.0478  0.2130  0.0682
 1219ERGO    R115462  15.544   9.339   9.876 -0.0945  0.1281  0.0837
 1219ERGO    R215463  15.597   9.540   9.694 -0.0496  0.0484  0.0114
 1219ERGO    R315464  15.764   9.354   9.587 -0.1255 -0.0428  0.0496
 1219ERGO    R415465  15.658   9.502   9.356  0.0697  0.0797  0.0289
 1219ERGO    R515466  15.654   9.285   9.385 -0.0879  0.0722 -0.0137
 1219ERGO    C115467  15.850   9.305   9.058  0.0679  0.0123  0.0751
 1219ERGO    C215468  16.040   9.267   8.746  0.2316 -0.0950 -0.1391
 1220ERGO   ROH15469   2.542   5.411   6.020 -0.0824  0.0922 -0.2208
 1220ERGO    R115470   2.552   5.266   6.262  0.1551  0.1628 -0.1829
 1220ERGO    R215471   2.668   5.367   6.492 -0.1368  0.4792 -0.1566
 1220ERGO    R315472   2.426   5.308   6.601 -0.0607 -0.0260 -0.2392
 1220ERGO    R415473   2.607   5.329   6.830 -0.1376  0.0714 -0.1992
 1220ERGO    R515474   2.476   5.161   6.783  0.1508 -0.1062 -0.3660
 1220ERGO    C115475   2.345   5.252   7.129 -0.0666 -0.6404 -0.3015
 1220ERGO    C215476   2.200   5.151   7.435  0.1646 -0.0947 -0.1114
 1221ERGO   ROH15477  18.433  18.305   8.838  0.0039  0.2438 -0.0567
 1221ERGO    R115478  18.430  18.177   8.586  0.2136  0.0951  0.0121
 1221ERGO    R215479  18.210  18.182   8.418  0.1903 -0.3618  0.0022
 1221ERGO    R315480  18.390  18.277   8.239  0.0402 -0.1546 -0.0399
 1221ERGO    R415481  18.199  18.123   8.078  0.2056 -0.3846  0.0066
 1221ERGO    R515482  18.415  18.099   8.080  0.2283 -0.1232 -0.0363
 1221ERGO    C115483  18.362  18.179   7.711  0.0736 -0.2033 -0.0304
 1221ERGO    C215484  18.365  18.290   7.453 -0.2281  0.0456 -0.1251
 1222ERGO   ROH15485  14.450   9.969   6.871 -0.2880 -0.1272 -0.0302
 1222ERGO    R115486  14.451   9.823   7.113 -0.1517 -0.0248  0.0339
 1222ERGO    R215487  14.293   9.892   7.329 -0.1662 -0.0298  0.0314
 1222ERGO    R315488  14.209   9.634   7.309 -0.0030 -0.1002  0.1489
 1222ERGO    R415489  14.072   9.739   7.546 -0.0904 -0.0633  0.0843
 1222ERGO    R515490  14.194   9.559   7.536  0.0260  0.0026  0.1867
 1222ERGO    C115491  13.864   9.408   7.653  0.1070 -0.1488  0.2255
 1222ERGO    C215492  13.657   9.264   7.920  0.0056  0.1829  0.0208
 1223ERGO   ROH15493  13.986  12.154   9.774 -0.2388 -0.0522  0.0159
 1223ERGO    R115494  13.922  12.016   9.535 -0.4232 -0.0394  0.0567
 1223ERGO    R215495  13.696  12.072   9.387 -0.2933  0.3014 -0.0200
 1223ERGO    R315496  13.875  12.102   9.184 -0.1854 -0.0945  0.0091
 1223ERGO    R415497  13.625  12.028   9.051 -0.3563  0.5069 -0.0350
 1223ERGO    R515498  13.818  11.930   9.028 -0.5733  0.0493 -0.0186
 1223ERGO    C115499  13.752  12.031   8.666 -0.2917  0.2549 -0.0164
 1223ERGO    C215500  13.827  12.050   8.332 -0.0506  0.1987  0.1622
 1224ERGO   ROH15501  13.901   5.520   9.934 -0.2033  0.0514 -0.0015
 1224ERGO    R115502  13.814   5.576   9.670 -0.1693 -0.0845 -0.0424
 1224ERGO    R215503  13.989   5.647   9.468 -0.1711  0.0836  0.0131
 1224ERGO    R315504  13.872   5.439   9.338  0.1109 -0.0705 -0.0020
 1224ERGO    R415505  14.011   5.589   9.128  0.0154  0.0588  0.0284
 1224ERGO    R515506  13.801   5.532   9.129  0.0782 -0.1810 -0.0397
 1224ERGO    C115507  13.914   5.359   8.808  0.3886 -0.1002  0.0231
 1224ERGO    C215508  14.009   5.398   8.568  0.0436  0.0205  0.2412
 1225ERGO   ROH15509  14.711   6.005  10.033  0.0300  0.1556 -0.2060
 1225ERGO    R115510  14.837   6.117   9.805  0.0592  0.0247 -0.2562
 1225ERGO    R215511  14.933   5.962   9.598 -0.0983 -0.0846 -0.2540
 1225ERGO    R315512  14.776   6.124   9.447 -0.0195  0.0020 -0.2426
 1225ERGO    R415513  14.909   5.949   9.253  0.1067  0.1415 -0.2785
 1225ERGO    R515514  14.905   6.167   9.250  0.0929  0.1416 -0.1378
 1225ERGO    C115515  14.747   6.094   8.911  0.3001  0.3545 -0.2819
 1225ERGO    C215516  14.613   6.066   8.592  0.2070 -0.0985  0.2361
 1226ERGO   ROH15517   5.761   0.062   5.996  0.0761  0.0331 -0.0227
 1226ERGO    R115518   5.829  -0.022   6.258  0.0717  0.0282 -0.0233
 1226ERGO    R215519   5.650  -0.152   6.423  0.0562  0.0667 -0.0108
 1226ERGO    R315520   5.848  -0.338   6.437  0.0207  0.0314 -0.0134
 1226ERGO    R415521   5.722  -0.343   6.702 -0.0928 -0.0780 -0.0695
 1226ERGO    R515522   5.934  -0.316   6.660 -0.0718 -0.0890  0.0348
 1226ERGO    C115523   5.950  -0.628   6.878 -0.2129 -0.1955 -0.1062
 1226ERGO    C215524   5.879  -0.691   7.228  0.0000  0.0989  0.1223
 1227ERGO   ROH15525   6.179   5.148   9.998 -0.2103  0.0178  0.0498
 1227ERGO    R115526   6.078   5.182   9.735 -0.0745  0.3904  0.0391
 1227ERGO    R215527   6.180   5.371   9.560  0.5099  0.1700  0.1095
 1227ERGO    R315528   6.209   5.156   9.397 -0.0779  0.1141  0.0591
 1227ERGO    R415529   6.217   5.387   9.217  0.4898  0.1361  0.1067
 1227ERGO    R515530   6.086   5.214   9.200  0.0307  0.4716  0.0942
 1227ERGO    C115531   6.265   5.195   8.864 -0.0736  0.0640  0.0578
 1227ERGO    C215532   6.384   5.132   8.630  0.1336 -0.0418  0.0090
 1228ERGO   ROH15533   4.166   8.043   9.758 -0.0825 -0.2128 -0.1141
 1228ERGO    R115534   4.103   7.935   9.504 -0.1793 -0.1252 -0.1282
 1228ERGO    R215535   3.931   8.060   9.328 -0.1657 -0.0118 -0.0633
 1228ERGO    R315536   4.141   8.036   9.156 -0.2104 -0.0552 -0.1113
 1228ERGO    R415537   3.915   8.119   8.988 -0.1713  0.2573 -0.0184
 1228ERGO    R515538   4.044   7.945   8.957 -0.3165  0.1728 -0.1669
 1228ERGO    C115539   4.102   8.131   8.628 -0.2165  0.3734 -0.0372
 1228ERGO    C215540   4.114   8.056   8.285  0.1214  0.1854  0.1858
 1229ERGO   ROH15541   7.642  17.693   9.570  0.1770 -0.0195 -0.0419
 1229ERGO    R115542   7.812  17.807   9.374  0.3250 -0.1540  0.0042
 1229ERGO    R215543   7.955  17.654   9.194  0.0127 -0.2670 -0.1645
 1229ERGO    R315544   7.830  17.812   9.011  0.2244  0.1043  0.0025
 1229ERGO    R415545   8.017  17.650   8.854 -0.1485 -0.1278 -0.1964
 1229ERGO    R515546   8.002  17.867   8.853  0.2562 -0.0969 -0.0283
 1229ERGO    C115547   7.937  17.795   8.484 -0.0435  0.3019 -0.0583
 1229ERGO    C215548   8.034  17.628   8.196 -0.1616  0.1389 -0.1051
 1230ERGO   ROH15549  12.705  13.941   6.757  0.0082 -0.0911 -0.0297
 1230ERGO    R115550  12.777  13.801   6.993  0.0211 -0.0073  0.0175
 1230ERGO    R215551  12.853  13.930   7.225 -0.1048  0.0814  0.0166
 1230ERGO    R315552  12.655  13.779   7.335 -0.0584  0.0004 -0.0119
 1230ERGO    R415553  12.802  13.885   7.564  0.0129 -0.1575  0.0037
 1230ERGO    R515554  12.756  13.676   7.525  0.0074 -0.1271 -0.1204
 1230ERGO    C115555  12.587  13.717   7.864  0.1251 -0.3723 -0.0305
 1230ERGO    C215556  12.439  13.813   8.132 -0.0577 -0.1842 -0.3088
 1231ERGO   ROH15557   9.853  12.224   9.810  0.0479  0.0411  0.1204
 1231ERGO    R115558   9.904  12.248   9.532  0.4282  0.1437  0.1940
 1231ERGO    R215559  10.128  12.138   9.413  0.2475 -0.4310  0.3594
 1231ERGO    R315560   9.944  12.020   9.251  0.0508  0.2603  0.0378
 1231ERGO    R415561  10.175  12.070   9.077  0.5363 -0.4760  0.4065
 1231ERGO    R515562   9.970  12.132   9.040  0.7759  0.2704  0.1016
 1231ERGO    C115563  10.031  11.919   8.730  0.5197  0.1469  0.1321
 1231ERGO    C215564  10.021  11.692   8.400  0.1409  0.1524 -0.1507
 1232ERGO   ROH15565   0.842   9.793   9.771 -0.5043  0.2262  0.1210
 1232ERGO    R115566   0.910   9.959   9.552 -0.3720  0.2273  0.1612
 1232ERGO    R215567   0.934   9.863   9.294  0.0708  0.1696  0.2122
 1232ERGO    R315568   0.754  10.059   9.238 -0.0560 -0.0221 -0.0810
 1232ERGO    R415569   0.876   9.995   8.980  0.1022 -0.1991  0.0455
 1232ERGO    R515570   0.861  10.192   9.071 -0.0899 -0.1149 -0.1717
 1232ERGO    C115571   0.674  10.257   8.745  0.0014 -0.5937 -0.3267
 1232ERGO    C215572   0.427  10.395   8.434 -0.3653 -0.2837 -0.1432
 1233ERGO   ROH15573   1.323   7.714  10.037  0.0244 -0.0128  0.0115
 1233ERGO    R115574   1.352   7.920   9.844  0.0254 -0.0746 -0.0546
 1233ERGO    R215575   1.551   7.917   9.653  0.0358 -0.1284 -0.0428
 1233ERGO    R315576   1.342   7.945   9.481  0.0440 -0.1939 -0.0638
 1233ERGO    R415577   1.578   7.935   9.308  0.0899  0.1348 -0.0272
 1233ERGO    R515578   1.424   8.089   9.309 -0.0474  0.0007  0.0516
 1233ERGO    C115579   1.397   7.971   8.947  0.1291  0.2266 -0.0379
 1233ERGO    C215580   1.370   8.107   8.521 -0.1486 -0.1195 -0.2273
 1234ERGO   ROH15581   8.129   1.474   6.350 -0.0221 -0.1543 -0.0635
 1234ERGO    R115582   7.962   1.427   6.574 -0.0046 -0.0703 -0.0339
 1234ERGO    R215583   8.009   1.223   6.754  0.0150  0.0076  0.0397
 1234ERGO    R315584   8.000   1.425   6.936  0.0161  0.0761 -0.0316
 1234ERGO    R415585   8.030   1.180   7.096 -0.1966  0.0933  0.0656
 1234ERGO    R515586   7.876   1.333   7.119 -0.1397  0.1884 -0.0699
 1234ERGO    C115587   8.034   1.345   7.466 -0.3186  0.2075  0.0135
 1234ERGO    C215588   8.196   1.271   7.741 -0.3263  0.2645 -0.0785
 1235ERGO   ROH15589  14.452   3.928  10.293 -0.2046  0.1954 -0.1480
 1235ERGO    R115590  14.502   3.974  10.018 -0.0456  0.0279 -0.1486
 1235ERGO    R215591  14.725   3.873   9.888  0.0393 -0.0374  0.0452
 1235ERGO    R315592  14.539   3.770   9.719  0.1471 -0.1567 -0.0026
 1235ERGO    R415593  14.765   3.843   9.547  0.2441 -0.2493  0.0851
 1235ERGO    R515594  14.558   3.905   9.521  0.2538 -0.2785 -0.0775
 1235ERGO    C115595  14.614   3.729   9.188  0.4648 -0.4846  0.0634
 1235ERGO    C215596  14.607   3.613   8.903  0.0462 -0.1223  0.2665
 1236ERGO   ROH15597  10.946   3.172  10.036  0.1833  0.0775  0.0937
 1236ERGO    R115598  10.879   3.156   9.762  0.2344 -0.0234  0.0872
 1236ERGO    R215599  10.794   3.374   9.616  0.1058 -0.1107  0.0323
 1236ERGO    R315600  10.998   3.303   9.451  0.1788 -0.0039  0.0747
 1236ERGO    R415601  10.794   3.419   9.273  0.1105 -0.2003  0.0201
 1236ERGO    R515602  10.888   3.223   9.253  0.2590 -0.1380  0.0825
 1236ERGO    C115603  10.985   3.378   8.918  0.1817 -0.1522  0.0527
 1236ERGO    C215604  11.064   3.337   8.556 -0.0044  0.0744  0.2215
 1237ERGO   ROH15605  12.680  11.760   6.548 -0.0495  0.1042 -0.0133
 1237ERGO    R115606  12.716  11.694   6.821 -0.0087  0.1497 -0.0071
 1237ERGO    R215607  12.936  11.777   6.967 -0.0310  0.2510 -0.0281
 1237ERGO    R315608  12.746  11.875   7.135 -0.0600  0.1988 -0.0308
 1237ERGO    R415609  12.999  11.922   7.274 -0.0903  0.1087  0.0517
 1237ERGO    R515610  12.825  11.818   7.353 -0.1207  0.0942 -0.0365
 1237ERGO    C115611  12.858  12.098   7.611 -0.1521 -0.0232  0.0956
 1237ERGO    C215612  13.016  12.265   7.623 -0.0959 -0.2026  0.0686
 1238ERGO   ROH15613   1.849   1.387   5.828 -0.1251  0.0722 -0.0221
 1238ERGO    R115614   1.876   1.130   5.945  0.0047  0.0881 -0.0149
 1238ERGO    R215615   2.071   1.071   6.131 -0.0270  0.2200  0.0606
 1238ERGO    R315616   1.858   0.990   6.280 -0.0303  0.0725 -0.0230
 1238ERGO    R415617   2.080   0.821   6.369  0.0143  0.1093 -0.0570
 1238ERGO    R515618   1.886   0.753   6.298  0.0524  0.0722 -0.1311
 1238ERGO    C115619   1.887   0.598   6.647  0.0352 -0.0936 -0.2040
 1238ERGO    C215620   1.912   0.349   6.989  0.0929  0.3150 -0.0098
 1239ERGO   ROH15621   1.347  17.542   8.831  0.0692  0.0159  0.1097
 1239ERGO    R115622   1.289  17.407   8.589 -0.0978  0.0075  0.1517
 1239ERGO    R215623   1.112  17.507   8.402 -0.0043  0.1546  0.1318
 1239ERGO    R315624   1.323  17.478   8.233 -0.0415 -0.1286  0.1310
 1239ERGO    R415625   1.088  17.469   8.059 -0.0434  0.3035  0.1182
 1239ERGO    R515626   1.247  17.321   8.069 -0.2808  0.0460  0.0762
 1239ERGO    C115627   1.272  17.420   7.701 -0.1010  0.1241  0.1094
 1239ERGO    C215628   1.144  17.427   7.294 -0.2856  0.0954 -0.1822
 1240ERGO   ROH15629   6.722  11.928  10.082 -0.0996 -0.0814 -0.0050
 1240ERGO    R115630   6.782  12.012   9.819 -0.0612 -0.0610  0.0102
 1240ERGO    R215631   6.820  11.834   9.611 -0.1364 -0.0407 -0.0200
 1240ERGO    R315632   6.628  11.983   9.490 -0.0705  0.0636  0.0027
 1240ERGO    R415633   6.814  11.911   9.274 -0.0972  0.0135 -0.0084
 1240ERGO    R515634   6.748  12.112   9.327 -0.0095  0.0367  0.0236
 1240ERGO    C115635   6.629  12.097   8.965 -0.0124  0.1429  0.0197
 1240ERGO    C215636   6.689  12.204   8.665 -0.0754 -0.0478 -0.1430
 1241ERGO   ROH15637  18.443   7.655  10.012  0.0454 -0.2741 -0.2015
 1241ERGO    R115638  18.486   7.595   9.739 -0.0586 -0.2568 -0.2223
 1241ERGO    R215639  18.281   7.581   9.555 -0.1177 -0.1488 -0.1639
 1241ERGO    R315640  18.432   7.762   9.420 -0.0836 -0.1938 -0.1860
 1241ERGO    R415641  18.275   7.626   9.212 -0.2292 -0.0858 -0.1541
 1241ERGO    R515642  18.492   7.649   9.217 -0.2134 -0.1877 -0.2306
 1241ERGO    C115643  18.414   7.821   8.886 -0.2619 -0.0913 -0.1691
 1241ERGO    C215644  18.354   7.881   8.599 -0.3612  0.1080  0.1078
 1242ERGO   ROH15645  17.858  13.979   9.197  0.0616 -0.5021  0.0928
 1242ERGO    R115646  17.875  13.797   8.981  0.0676 -0.3116 -0.0675
 1242ERGO    R215647  17.723  13.825   8.751 -0.0288 -0.1888  0.0188
 1242ERGO    R315648  17.966  13.814   8.629 -0.0716  0.0239 -0.0940
 1242ERGO    R415649  17.775  13.732   8.422 -0.0922 -0.4227  0.0719
 1242ERGO    R515650  17.952  13.622   8.486  0.0976 -0.1362  0.0876
 1242ERGO    C115651  18.033  13.667   8.116 -0.1695 -0.3592 -0.0032
 1242ERGO    C215652  18.139  13.636   7.709 -0.2172  0.4384 -0.0646
 1243ERGO   ROH15653   6.390  10.334   9.845  0.0379 -0.1374  0.0575
 1243ERGO    R115654   6.438  10.495   9.617 -0.3583 -0.0191  0.0512
 1243ERGO    R215655   6.648  10.448   9.443 -0.0976  0.6130  0.1713
 1243ERGO    R315656   6.451  10.445   9.257 -0.0129 -0.0656  0.0665
 1243ERGO    R415657   6.695  10.498   9.105 -0.0644  0.4273  0.1467
 1243ERGO    R515658   6.513  10.616   9.102 -0.3786 -0.0373 -0.0560
 1243ERGO    C115659   6.537  10.524   8.732  0.0344 -0.3179  0.0340
 1243ERGO    C215660   6.472  10.523   8.327 -0.0633  0.0371  0.1876
 1244ERGO   ROH15661   3.726  15.938   8.783 -0.0444  0.0907 -0.1325
 1244ERGO    R115662   3.614  15.882   8.529  0.0192  0.1337 -0.1694
 1244ERGO    R215663   3.729  15.970   8.294  0.0980  0.1404 -0.1254
 1244ERGO    R315664   3.719  15.706   8.227  0.0765  0.1492 -0.1598
 1244ERGO    R415665   3.830  15.838   7.990  0.2868  0.1498 -0.0682
 1244ERGO    R515666   3.657  15.706   7.996  0.2443  0.1928 -0.2081
 1244ERGO    C115667   3.879  15.515   7.752  0.3766  0.1635 -0.0674
 1244ERGO    C215668   4.011  15.541   7.390 -0.1160 -0.1209 -0.0114
 1245ERGO   ROH15669   0.154   0.269   9.147 -0.0329 -0.0374  0.0671
 1245ERGO    R115670   0.116   0.297   8.868  0.1245 -0.0152  0.0471
 1245ERGO    R215671   0.325   0.297   8.688  0.2043 -0.3112  0.1395
 1245ERGO    R315672   0.182   0.098   8.570 -0.0088 -0.1368  0.0955
 1245ERGO    R415673   0.340   0.217   8.352  0.1357 -0.2532  0.1221
 1245ERGO    R515674   0.123   0.187   8.356  0.0951 -0.0218  0.1088
 1245ERGO    C115675   0.214  -0.017   8.046 -0.1044 -0.0557  0.0706
 1245ERGO    C215676   0.314  -0.069   7.688 -0.2076 -0.5624  0.1219
 1246ERGO   ROH15677   4.958  12.191   9.604  0.2320  0.0319 -0.0135
 1246ERGO    R115678   5.055  12.317   9.369 -0.0232  0.0875 -0.0906
 1246ERGO    R215679   5.276  12.224   9.232  0.0321  0.3251 -0.1494
 1246ERGO    R315680   5.104  12.224   9.021 -0.0524  0.0517 -0.0877
 1246ERGO    R415681   5.371  12.202   8.900 -0.0585  0.2514 -0.1726
 1246ERGO    R515682   5.218  12.351   8.852 -0.2289  0.0857 -0.1929
 1246ERGO    C115683   5.265  12.190   8.509 -0.1905 -0.0483 -0.1281
 1246ERGO    C215684   5.250  12.025   8.160  0.2285 -0.2071 -0.1686
 1247ERGO   ROH15685   8.006  11.213   9.777  0.0915 -0.0166 -0.0510
 1247ERGO    R115686   8.110  11.173   9.517  0.0593 -0.1901 -0.0388
 1247ERGO    R215687   8.005  10.988   9.342 -0.1949 -0.0586 -0.0335
 1247ERGO    R315688   7.988  11.202   9.176  0.1280 -0.0422 -0.0510
 1247ERGO    R415689   8.017  10.972   8.997 -0.1942 -0.0990 -0.0311
 1247ERGO    R515690   8.140  11.152   8.998  0.0687 -0.2755 -0.0367
 1247ERGO    C115691   8.008  11.164   8.640  0.1092 -0.1073 -0.0462
 1247ERGO    C215692   7.822  10.896   8.471 -0.3835 -0.0525 -0.2565
 1248ERGO   ROH15693   1.655   2.913   5.734  0.0077  0.1825 -0.0794
 1248ERGO    R115694   1.668   2.763   5.974 -0.3160  0.1537 -0.0759
 1248ERGO    R215695   1.881   2.780   6.150 -0.1804 -0.4272 -0.1608
 1248ERGO    R315696   1.685   2.835   6.330  0.0281  0.1382 -0.0870
 1248ERGO    R415697   1.926   2.795   6.492  0.0024 -0.4669 -0.1822
 1248ERGO    R515698   1.735   2.694   6.517 -0.2684  0.0410 -0.0787
 1248ERGO    C115699   1.769   2.855   6.861  0.3044  0.0408 -0.1254
 1248ERGO    C215700   1.782   3.061   7.079  0.1355  0.0357 -0.0586
 1249ERGO   ROH15701   6.382   1.537   9.388 -0.0531 -0.2842  0.0358
 1249ERGO    R115702   6.529   1.621   9.161 -0.0307 -0.2956  0.0454
 1249ERGO    R215703   6.614   1.446   8.966 -0.0367 -0.3026  0.0459
 1249ERGO    R315704   6.483   1.616   8.800 -0.0112 -0.2860  0.0436
 1249ERGO    R415705   6.705   1.513   8.639  0.0523 -0.2105  0.0893
 1249ERGO    R515706   6.657   1.722   8.674  0.0085 -0.2286  0.1218
 1249ERGO    C115707   6.634   1.712   8.293  0.1280 -0.1412  0.1124
 1249ERGO    C215708   6.801   1.601   7.898 -0.3403 -0.0086 -0.1404
 1250ERGO   ROH15709   3.544   3.023   9.419  0.0038  0.3619  0.0492
 1250ERGO    R115710   3.547   3.180   9.184  0.0117  0.2039 -0.0588
 1250ERGO    R215711   3.554   3.070   8.930 -0.0648  0.0301  0.0095
 1250ERGO    R315712   3.334   3.224   8.892 -0.0254  0.0700 -0.0512
 1250ERGO    R415713   3.450   3.192   8.625 -0.1182 -0.1837 -0.0589
 1250ERGO    R515714   3.400   3.380   8.723 -0.0277 -0.0888 -0.1979
 1250ERGO    C115715   3.183   3.409   8.410 -0.1122 -0.2708 -0.1558
 1250ERGO    C215716   3.082   3.340   8.095 -0.2731 -0.4996  0.0058
 1251ERGO   ROH15717  10.976   5.632  10.309  0.1247 -0.1155 -0.0596
 1251ERGO    R115718  11.022   5.722  10.044  0.0364  0.0292 -0.0270
 1251ERGO    R215719  11.233   5.631   9.891 -0.0313  0.0915 -0.1576
 1251ERGO    R315720  11.036   5.573   9.713 -0.1040  0.2153 -0.1187
 1251ERGO    R415721  11.263   5.656   9.548 -0.0784  0.0645 -0.1638
 1251ERGO    R515722  11.061   5.737   9.540 -0.0286  0.1965 -0.1268
 1251ERGO    C115723  11.096   5.616   9.180 -0.1738  0.1652 -0.1310
 1251ERGO    C215724  11.266   5.620   8.947  0.0695  0.1967  0.0581
 1252ERGO   ROH15725  12.257  10.162   9.706  0.0703  0.0627  0.0827
 1252ERGO    R115726  12.179  10.163   9.434  0.2373  0.0290  0.0324
 1252ERGO    R215727  12.138  10.396   9.292  0.2201  0.0175  0.0041
 1252ERGO    R315728  12.317  10.285   9.120  0.3814  0.0937  0.1221
 1252ERGO    R415729  12.169  10.479   8.958  0.2657 -0.1378 -0.0305
 1252ERGO    R515730  12.198  10.268   8.913  0.4768 -0.1284  0.0899
 1252ERGO    C115731  12.356  10.424   8.602  0.4437 -0.1567  0.0602
 1252ERGO    C215732  12.357  10.584   8.242  0.3016  0.0087  0.0895
 1253ERGO   ROH15733  16.348  15.716   9.236  0.0990 -0.2490  0.1369
 1253ERGO    R115734  16.168  15.702   9.018  0.0813 -0.2223  0.1506
 1253ERGO    R215735  16.224  15.814   8.771  0.0171 -0.1032  0.1924
 1253ERGO    R315736  16.169  15.563   8.682  0.0926 -0.0851  0.0922
 1253ERGO    R415737  16.210  15.722   8.438  0.2061 -0.0061  0.1558
 1253ERGO    R515738  16.037  15.598   8.485  0.1919 -0.0409  0.0293
 1253ERGO    C115739  16.151  15.433   8.161  0.3870  0.0675  0.0404
 1253ERGO    C215740  16.188  15.532   7.890  0.1132 -0.0444  0.2179
 1254ERGO   ROH15741   0.039  12.146   9.778 -0.0800 -0.0569 -0.1002
 1254ERGO    R115742   0.070  11.987   9.546 -0.1225  0.0121 -0.1537
 1254ERGO    R215743   0.075  11.710   9.554  0.2106  0.0132 -0.1947
 1254ERGO    R315744  -0.124  11.733   9.371 -0.0022 -0.1933  0.0054
 1254ERGO    R415745   0.038  11.508   9.276  0.2787  0.1151 -0.2786
 1254ERGO    R515746  -0.019  11.684   9.162 -0.1129  0.1001 -0.1246
 1254ERGO    C115747  -0.172  11.412   8.943  0.1186 -0.0194 -0.1397
 1254ERGO    C215748  -0.162  11.261   8.761 -0.2046 -0.1200 -0.0739
 1255ERGO   ROH15749   7.075   6.601  10.071  0.1615 -0.0792  0.1115
 1255ERGO    R115750   7.229   6.500   9.857  0.2035 -0.0844  0.1441
 1255ERGO    R215751   7.260   6.229   9.811  0.1479 -0.0855  0.1108
 1255ERGO    R315752   7.170   6.293   9.563  0.2430 -0.0216  0.0919
 1255ERGO    R415753   7.335   6.054   9.522 -0.1297 -0.2992  0.1636
 1255ERGO    R515754   7.354   6.245   9.418  0.1685 -0.3588  0.1019
 1255ERGO    C115755   7.293   6.013   9.121 -0.2020 -0.3636  0.1767
 1255ERGO    C215756   7.100   5.884   8.879  0.0355 -0.1888  0.0217
 1256ERGO   ROH15757  16.338   2.585   6.141  0.1228  0.2461  0.1147
 1256ERGO    R115758  16.287   2.371   6.319  0.0032  0.2524  0.0877
 1256ERGO    R215759  16.479   2.271   6.491 -0.0341  0.0812  0.0275
 1256ERGO    R315760  16.290   2.321   6.680  0.0432  0.1854  0.0791
 1256ERGO    R415761  16.492   2.159   6.818 -0.1436 -0.1815 -0.0553
 1256ERGO    R515762  16.278   2.118   6.807 -0.2031  0.0993 -0.0704
 1256ERGO    C115763  16.322   2.141   7.185 -0.1349 -0.2367 -0.0551
 1256ERGO    C215764  16.451   2.189   7.504 -0.0555 -0.0686  0.0476
 1257ERGO   ROH15765  15.128  17.400   9.548 -0.1805 -0.0118  0.1252
 1257ERGO    R115766  14.883  17.429   9.408 -0.1852  0.0184  0.1392
 1257ERGO    R215767  14.828  17.647   9.247 -0.1307 -0.0200  0.0677
 1257ERGO    R315768  14.778  17.456   9.061 -0.2107 -0.0697  0.1398
 1257ERGO    R415769  14.689  17.705   8.937 -0.0822 -0.0724  0.0362
 1257ERGO    R515770  14.572  17.523   8.960 -0.1724 -0.0081  0.1008
 1257ERGO    C115771  14.561  17.560   8.580 -0.1292 -0.1497  0.0856
 1257ERGO    C215772  14.486  17.568   8.194  0.0020  0.0879  0.1316
 1258ERGO   ROH15773  10.768   4.861   6.782  0.2051 -0.1756  0.0605
 1258ERGO    R115774  10.766   4.842   7.064  0.1653 -0.1305  0.0635
 1258ERGO    R215775  10.574   4.968   7.220  0.1845 -0.0449  0.0221
 1258ERGO    R315776  10.538   4.717   7.319  0.0946 -0.0192  0.0547
 1258ERGO    R415777  10.446   4.893   7.533  0.2735  0.0393  0.0791
 1258ERGO    R515778  10.593   4.734   7.550  0.1973 -0.0339  0.0297
 1258ERGO    C115779  10.338   4.614   7.807  0.2410  0.1125  0.1429
 1258ERGO    C215780  10.229   4.628   8.149  0.3232  0.0717  0.0208
 1259ERGO   ROH15781  11.683   7.912  10.064  0.3818  0.0122  0.0290
 1259ERGO    R115782  11.617   7.917   9.789  0.2661  0.1997  0.0587
 1259ERGO    R215783  11.807   7.890   9.590  0.1489  0.0518 -0.0332
 1259ERGO    R315784  11.644   7.689   9.506 -0.1291  0.2763 -0.0475
 1259ERGO    R415785  11.784   7.778   9.264  0.2912 -0.1464  0.0233
 1259ERGO    R515786  11.568   7.760   9.290  0.2220  0.2606 -0.1833
 1259ERGO    C115787  11.619   7.523   8.995  0.1132 -0.0510  0.0429
 1259ERGO    C215788  11.533   7.646   8.728 -0.0807 -0.1952  0.1383
 1260ERGO   ROH15789   9.222   1.708  10.062  0.0016  0.2131 -0.1178
 1260ERGO    R115790   9.167   1.763   9.790  0.0750  0.1776 -0.1421
 1260ERGO    R215791   9.357   1.867   9.618  0.1471  0.0992 -0.1282
 1260ERGO    R315792   9.292   1.650   9.467  0.1207  0.0810 -0.0875
 1260ERGO    R415793   9.316   1.871   9.275 -0.2842  0.1112 -0.0808
 1260ERGO    R515794   9.145   1.737   9.299 -0.1489 -0.0120  0.1063
 1260ERGO    C115795   9.232   1.670   8.933 -0.5602  0.1011 -0.0149
 1260ERGO    C215796   9.380   1.591   8.644  0.2653  0.1685  0.0087
 1261ERGO   ROH15797   6.815  13.587   9.756  0.0383  0.2554 -0.0488
 1261ERGO    R115798   6.869  13.547   9.481  0.1625  0.2092 -0.0181
 1261ERGO    R215799   6.670  13.543   9.289  0.2213 -0.0825 -0.0748
 1261ERGO    R315800   6.824  13.735   9.172  0.0454  0.0428 -0.1047
 1261ERGO    R415801   6.742  13.558   8.952  0.4987 -0.2889 -0.0284
 1261ERGO    R515802   6.946  13.617   9.003  0.3747  0.0614  0.1091
 1261ERGO    C115803   6.928  13.746   8.645  0.4949 -0.2915 -0.0294
 1261ERGO    C215804   6.798  13.790   8.390  0.0759  0.2259  0.3517
 1262ERGO   ROH15805  14.451   2.670   6.433 -0.1360 -0.1061 -0.0193
 1262ERGO    R115806  14.275   2.613   6.647  0.1954 -0.1044  0.2617
 1262ERGO    R215807  14.045   2.463   6.615 -0.2024  0.4328  0.4666
 1262ERGO    R315808  14.152   2.315   6.816 -0.0636 -0.1571 -0.0094
 1262ERGO    R415809  13.866   2.254   6.823 -0.1725  0.3295  0.3909
 1262ERGO    R515810  13.988   2.324   6.990  0.2685 -0.2033  0.3203
 1262ERGO    C115811  13.862   1.994   7.134 -0.0248 -0.2843 -0.1000
 1262ERGO    C215812  13.715   1.711   7.159  0.2888 -0.2026  0.1934
 1263ERGO   ROH15813  13.821   1.380   6.281 -0.0915 -0.0509 -0.1761
 1263ERGO    R115814  13.787   1.212   6.506  0.0013 -0.0473 -0.1606
 1263ERGO    R215815  13.957   1.217   6.724 -0.0137  0.0789 -0.1607
 1263ERGO    R315816  13.726   1.255   6.862 -0.0402 -0.0504 -0.1650
 1263ERGO    R415817  13.913   1.142   7.058  0.0833  0.1946 -0.1203
 1263ERGO    R515818  13.714   1.067   7.010  0.1355 -0.0003 -0.0753
 1263ERGO    C115819  13.672   1.134   7.383  0.1149  0.1405 -0.1009
 1263ERGO    C215820  13.746   0.993   7.618  0.4944  0.0853 -0.0758
 1264ERGO   ROH15821  16.915  10.458   9.930 -0.2392 -0.1717  0.1831
 1264ERGO    R115822  16.758  10.640   9.780 -0.3828 -0.1119  0.4005
 1264ERGO    R215823  16.755  10.642   9.503 -0.0613  0.4797  0.3830
 1264ERGO    R315824  16.487  10.618   9.539 -0.0725 -0.0738  0.0413
 1264ERGO    R415825  16.517  10.700   9.260  0.1052  0.4811  0.2172
 1264ERGO    R515826  16.393  10.796   9.411 -0.2468 -0.0081  0.2594
 1264ERGO    C115827  16.126  10.712   9.152  0.1917 -0.0376 -0.2001
 1264ERGO    C215828  15.803  10.460   9.073 -0.1295  0.0081 -0.0825
 1265ERGO   ROH15829  16.457   3.767   6.452  0.1975  0.0371 -0.1534
 1265ERGO    R115830  16.589   3.652   6.674  0.1341  0.0449 -0.1117
 1265ERGO    R215831  16.683   3.803   6.886  0.0282  0.0464 -0.0665
 1265ERGO    R315832  16.533   3.631   7.033  0.0037  0.0101 -0.1334
 1265ERGO    R415833  16.704   3.765   7.229  0.0116 -0.0754 -0.0786
 1265ERGO    R515834  16.682   3.550   7.201 -0.0102 -0.0649 -0.1556
 1265ERGO    C115835  16.576   3.580   7.566 -0.0211 -0.1804 -0.1485
 1265ERGO    C215836  16.616   3.339   7.836 -0.1019  0.0638  0.1239
 1266ERGO   ROH15837   2.034   8.888   9.721  0.2578  0.1684  0.0626
 1266ERGO    R115838   1.919   8.903   9.463  0.1349  0.2048  0.1190
 1266ERGO    R215839   1.987   9.099   9.280  0.2113  0.1008  0.0371
 1266ERGO    R315840   2.038   8.886   9.119 -0.0591  0.0162  0.0587
 1266ERGO    R415841   1.932   9.092   8.939  0.2919  0.1756  0.0221
 1266ERGO    R515842   1.859   8.888   8.960 -0.0187  0.2792  0.0102
 1266ERGO    C115843   1.948   8.889   8.589  0.0850  0.1398  0.0337
 1266ERGO    C215844   1.788   8.826   8.274 -0.0883 -0.0737  0.0830
 1267ERGO   ROH15845  10.393   4.712  10.381  0.0985  0.3587  0.1949
 1267ERGO    R115846  10.359   4.651  10.107  0.1937  0.0712  0.2444
 1267ERGO    R215847  10.208   4.808   9.937  0.0364 -0.2488  0.0853
 1267ERGO    R315848  10.436   4.811   9.789  0.0493 -0.1303  0.1047
 1267ERGO    R415849  10.220   4.785   9.592  0.0832 -0.4728  0.1000
 1267ERGO    R515850  10.394   4.655   9.612  0.2108 -0.2959  0.2057
 1267ERGO    C115851  10.441   4.774   9.253  0.1225 -0.4922  0.1267
 1267ERGO    C215852  10.405   4.740   8.949 -0.0214 -0.2582  0.2273
 1268ERGO   ROH15853   3.191   1.147   5.544 -0.0845 -0.2769 -0.1558
 1268ERGO    R115854   3.103   1.090   5.808 -0.0356 -0.0367 -0.0851
 1268ERGO    R215855   2.984   0.851   5.877 -0.2215  0.1056  0.1102
 1268ERGO    R315856   3.180   0.845   6.065 -0.1523  0.0536  0.0368
 1268ERGO    R415857   3.002   0.623   6.136 -0.1732  0.0927  0.0953
 1268ERGO    R515858   3.067   0.785   6.267 -0.0879  0.0715  0.0769
 1268ERGO    C115859   3.197   0.485   6.464 -0.0800  0.0363  0.0176
 1268ERGO    C215860   3.366   0.278   6.543 -0.1728  0.1158 -0.0971
 1269ERGO   ROH15861  15.960  16.774   9.340 -0.0283  0.1419 -0.1231
 1269ERGO    R115862  16.029  16.705   9.075  0.0002  0.0957 -0.1029
 1269ERGO    R215863  15.863  16.556   8.911 -0.0192  0.1460 -0.1222
 1269ERGO    R315864  15.896  16.766   8.742  0.0923  0.1182 -0.1375
 1269ERGO    R415865  15.812  16.544   8.570 -0.1261  0.1662 -0.1077
 1269ERGO    R515866  15.988  16.669   8.544 -0.0344  0.0351 -0.1613
 1269ERGO    C115867  15.812  16.734   8.212 -0.0837  0.1516 -0.1136
 1269ERGO    C215868  15.772  16.689   7.837  0.2155 -0.2024  0.0460
 1270ERGO   ROH15869   2.724  16.222   8.719  0.2216  0.3677  0.0119
 1270ERGO    R115870   2.693  16.152   8.446  0.0672  0.2006  0.0686
 1270ERGO    R215871   2.482  16.242   8.293  0.0001  0.1494  0.1125
 1270ERGO    R315872   2.681  16.328   8.128 -0.0589  0.0067 -0.0319
 1270ERGO    R415873   2.442  16.320   7.958 -0.1487  0.0842  0.1162
 1270ERGO    R515874   2.633  16.223   7.918 -0.2295 -0.0166  0.0256
 1270ERGO    C115875   2.605  16.445   7.609 -0.2907 -0.0875 -0.0173
 1270ERGO    C215876   2.515  16.583   7.296 -0.0512  0.0442  0.2345
 1271ERGO   ROH15877   4.606   6.291   9.767 -0.2698 -0.1764 -0.0791
 1271ERGO    R115878   4.702   6.470   9.570 -0.0468 -0.1789  0.0256
 1271ERGO    R215879   4.804   6.384   9.329 -0.0752 -0.1678  0.0149
 1271ERGO    R315880   4.619   6.554   9.226  0.1185  0.0651  0.0416
 1271ERGO    R415881   4.798   6.494   9.001 -0.1043 -0.3402 -0.0444
 1271ERGO    R515882   4.743   6.692   9.074  0.2455 -0.2067 -0.1132
 1271ERGO    C115883   4.621   6.718   8.714  0.0606 -0.2218 -0.0538
 1271ERGO    C215884   4.425   6.733   8.388 -0.1647 -0.0059 -0.0497
 1272ERGO   ROH15885  11.430   2.337  10.279 -0.3487  0.1964 -0.2052
 1272ERGO    R115886  11.581   2.430  10.059 -0.2214  0.1047 -0.1574
 1272ERGO    R215887  11.857   2.442  10.063 -0.2165 -0.0252 -0.0549
 1272ERGO    R315888  11.835   2.294   9.837 -0.2008 -0.0356 -0.0495
 1272ERGO    R415889  12.113   2.389   9.836 -0.1966 -0.0424 -0.0283
 1272ERGO    R515890  11.967   2.411   9.675 -0.1823 -0.0459 -0.0432
 1272ERGO    C115891  12.240   2.219   9.491 -0.1702 -0.0621 -0.0080
 1272ERGO    C215892  12.372   2.149   9.274 -0.1543 -0.2539  0.0433
 1273ERGO   ROH15893   8.321  12.252   9.598 -0.1369  0.0086  0.0937
 1273ERGO    R115894   8.366  12.095   9.367 -0.0699  0.0417  0.0828
 1273ERGO    R215895   8.207  12.112   9.141 -0.1281 -0.0679  0.1087
 1273ERGO    R315896   8.445  12.156   9.017 -0.1803  0.1042  0.0699
 1273ERGO    R415897   8.260  12.086   8.801 -0.1618 -0.0082  0.0998
 1273ERGO    R515898   8.452  11.992   8.842 -0.0929  0.1239  0.0595
 1273ERGO    C115899   8.513  12.112   8.485 -0.2304  0.1880  0.0581
 1273ERGO    C215900   8.721  12.179   8.220 -0.1564  0.1856  0.1028
 1274ERGO   ROH15901   9.098   9.999   7.008 -0.0317 -0.1463  0.1769
 1274ERGO    R115902   9.168   9.980   7.282  0.0805 -0.1090  0.1530
 1274ERGO    R215903   9.430   9.965   7.368  0.1297  0.0384  0.0596
 1274ERGO    R315904   9.358  10.179   7.520  0.0577  0.0001  0.0774
 1274ERGO    R415905   9.617  10.094   7.629  0.1326  0.1667 -0.0063
 1274ERGO    R515906   9.432  10.122   7.741  0.1616  0.0606  0.0514
 1274ERGO    C115907   9.658  10.369   7.924  0.0668  0.2054 -0.0280
 1274ERGO    C215908   9.744  10.611   8.263 -0.1015 -0.1692  0.1151
 1275ERGO   ROH15909  17.436   7.329   9.985 -0.0729  0.1176 -0.0229
 1275ERGO    R115910  17.455   7.215   9.727 -0.1647  0.0279  0.0098
 1275ERGO    R215911  17.261   7.252   9.534 -0.1302  0.1378 -0.0023
 1275ERGO    R315912  17.472   7.337   9.385 -0.0539 -0.0832 -0.0255
 1275ERGO    R415913  17.250   7.313   9.194 -0.1186  0.1974  0.0074
 1275ERGO    R515914  17.447   7.221   9.176 -0.2234 -0.0291 -0.0381
 1275ERGO    C115915  17.441   7.428   8.856 -0.0404  0.0247 -0.0086
 1275ERGO    C215916  17.324   7.618   8.497 -0.1012  0.1790 -0.3357
 1276ERGO   ROH15917   9.205   4.574  10.003 -0.0791  0.1256 -0.0066
 1276ERGO    R115918   9.230   4.568   9.722 -0.1160  0.1369 -0.0093
 1276ERGO    R215919   9.011   4.580   9.553 -0.1401  0.0848  0.0234
 1276ERGO    R315920   9.148   4.789   9.444 -0.2083  0.1208  0.0038
 1276ERGO    R415921   9.065   4.626   9.214 -0.1457  0.0614  0.0184
 1276ERGO    R515922   9.268   4.692   9.260 -0.1675  0.1381  0.0186
 1276ERGO    C115923   9.224   4.849   8.915 -0.2128  0.0816 -0.0029
 1276ERGO    C215924   9.291   4.970   8.606  0.1181 -0.0797  0.3589
 1277ERGO   ROH15925   9.162   3.651   6.720 -0.0019 -0.1453 -0.0382
 1277ERGO    R115926   8.929   3.677   6.879 -0.0439 -0.2340 -0.0847
 1277ERGO    R215927   8.870   3.504   7.085  0.0655 -0.1601  0.0082
 1277ERGO    R315928   8.853   3.734   7.230 -0.1340 -0.0861 -0.1268
 1277ERGO    R415929   8.667   3.548   7.362  0.0072 -0.1658 -0.0333
 1277ERGO    R515930   8.621   3.750   7.290 -0.1536 -0.2425 -0.1554
 1277ERGO    C115931   8.533   3.789   7.659 -0.2141 -0.0997 -0.1843
 1277ERGO    C215932   8.602   3.896   7.989  0.2232  0.0906  0.2191
 1278ERGO   ROH15933  18.012   1.770   6.041  0.0849  0.0201 -0.0367
 1278ERGO    R115934  18.080   1.600   6.257  0.0998  0.0615 -0.0089
 1278ERGO    R215935  18.280   1.661   6.436  0.0264  0.1596  0.0437
 1278ERGO    R315936  18.084   1.623   6.620 -0.0098  0.0854 -0.0099
 1278ERGO    R415937  18.333   1.577   6.767 -0.0346  0.3255  0.0970
 1278ERGO    R515938  18.162   1.441   6.755  0.0722  0.1969  0.0892
 1278ERGO    C115939  18.179   1.492   7.133 -0.1041  0.3524  0.0779
 1278ERGO    C215940  18.208   1.377   7.470  0.1789 -0.0513  0.1377
 1279ERGO   ROH15941  15.232   4.893   6.858  0.1444  0.2157 -0.0653
 1279ERGO    R115942  15.157   4.973   7.119  0.0602  0.2534 -0.0997
 1279ERGO    R215943  15.013   4.809   7.290 -0.1541  0.3419 -0.1826
 1279ERGO    R315944  15.220   4.858   7.459 -0.2030  0.1820 -0.0753
 1279ERGO    R415945  14.998   4.783   7.634 -0.2738  0.1534 -0.2008
 1279ERGO    R515946  15.119   4.963   7.648 -0.2288  0.1017 -0.0521
 1279ERGO    C115947  15.184   4.814   7.993 -0.3893 -0.1064 -0.1105
 1279ERGO    C215948  15.116   4.680   8.301 -0.1586 -0.2909  0.1284
 1280ERGO   ROH15949   2.660   7.039   9.788 -0.0115 -0.1357 -0.0460
 1280ERGO    R115950   2.503   7.226   9.644 -0.0195 -0.0896  0.0201
 1280ERGO    R215951   2.611   7.395   9.454 -0.0120  0.0397  0.1302
 1280ERGO    R315952   2.419   7.286   9.296  0.0468  0.0781  0.0342
 1280ERGO    R415953   2.553   7.482   9.125  0.1241  0.0834  0.1178
 1280ERGO    R515954   2.340   7.469   9.164  0.1132  0.0945  0.0253
 1280ERGO    C115955   2.339   7.431   8.784  0.2586  0.1449  0.0205
 1280ERGO    C215956   2.367   7.566   8.512 -0.1300  0.0901 -0.2225
 1281ERGO   ROH15957  17.071  16.400   5.900 -0.0756  0.0837 -0.0599
 1281ERGO    R115958  17.295  16.396   6.074 -0.0683 -0.0170 -0.0707
 1281ERGO    R215959  17.271  16.425   6.347 -0.0374  0.0546 -0.0747
 1281ERGO    R315960  17.411  16.191   6.351 -0.1798 -0.0307 -0.0341
 1281ERGO    R415961  17.314  16.225   6.626 -0.0342  0.1516 -0.0055
 1281ERGO    R515962  17.521  16.191   6.564 -0.0832 -0.0037 -0.0843
 1281ERGO    C115963  17.470  15.890   6.793 -0.1665  0.1281  0.0729
 1281ERGO    C215964  17.715  15.659   7.075 -0.2442 -0.0635 -0.2630
 1282ERGO   ROH15965  13.282   0.834   9.748 -0.0200 -0.0036 -0.1502
 1282ERGO    R115966  13.081   0.942   9.580  0.0570  0.0884 -0.1832
 1282ERGO    R215967  13.119   0.982   9.309  0.0430 -0.1541 -0.2220
 1282ERGO    R315968  12.894   0.832   9.288 -0.1282  0.0692 -0.0597
 1282ERGO    R415969  12.899   0.994   9.044 -0.0324 -0.0797 -0.1578
 1282ERGO    R515970  12.734   0.978   9.186 -0.0073  0.1799 -0.0941
 1282ERGO    C115971  12.559   0.859   8.869 -0.2369  0.1733  0.0318
 1282ERGO    C215972  12.589   0.778   8.563 -0.2251  0.0197  0.0628
 1283ERGO   ROH15973   0.715  15.051   9.123  0.0345 -0.0185 -0.0230
 1283ERGO    R115974   0.672  15.038   8.844  0.0272  0.0120 -0.0233
 1283ERGO    R215975   0.455  15.160   8.722 -0.0745 -0.1252  0.0185
 1283ERGO    R315976   0.648  15.276   8.569 -0.1718  0.0589  0.0321
 1283ERGO    R415977   0.438  15.202   8.379 -0.0806 -0.1657  0.0137
 1283ERGO    R515978   0.649  15.149   8.366 -0.0227  0.0437  0.0405
 1283ERGO    C115979   0.609  15.336   8.037 -0.1755 -0.0164  0.0238
 1283ERGO    C215980   0.377  15.609   7.806  0.0900  0.0024 -0.2689
 1284ERGO   ROH15981   2.240   4.608   9.188 -0.0967  0.2074  0.1835
 1284ERGO    R115982   2.067   4.775   9.039  0.0067  0.1060 -0.0518
 1284ERGO    R215983   2.129   4.864   8.785  0.0989 -0.2252 -0.1463
 1284ERGO    R315984   1.889   4.754   8.722  0.0618 -0.1934 -0.0673
 1284ERGO    R415985   1.930   4.961   8.519  0.0262 -0.1921 -0.0816
 1284ERGO    R515986   1.756   4.938   8.648  0.0626 -0.1702 -0.0208
 1284ERGO    C115987   1.589   4.914   8.305 -0.0510 -0.1430  0.0304
 1284ERGO    C215988   1.451   5.195   8.011  0.0995 -0.1488  0.0264
 1285ERGO   ROH15989   0.087  14.285   9.189  0.3262  0.1224  0.0498
 1285ERGO    R115990   0.273  14.243   8.980  0.2332  0.0236 -0.0135
 1285ERGO    R215991   0.358  13.991   8.905 -0.0457 -0.0299 -0.1473
 1285ERGO    R315992   0.276  14.072   8.659 -0.0191  0.1640 -0.0949
 1285ERGO    R415993   0.516  13.912   8.608 -0.1936 -0.0841 -0.2131
 1285ERGO    R515994   0.479  14.115   8.539  0.0090 -0.0068 -0.1202
 1285ERGO    C115995   0.531  13.942   8.204 -0.2548  0.0665 -0.2021
 1285ERGO    C215996   0.792  13.835   8.045  0.0625 -0.0615  0.3139
 1286ERGO   ROH15997   4.971   5.298   9.892  0.2758  0.0856  0.0021
 1286ERGO    R115998   5.064   5.305   9.625  0.0962 -0.0664 -0.0669
 1286ERGO    R215999   4.924   5.191   9.415 -0.1321 -0.0355  0.0650
 1286ERGO    R316000   4.946   5.440   9.308 -0.0296 -0.0847 -0.0287
 1286ERGO    R416001   5.060   5.260   9.105  0.0143 -0.1948  0.0923
 1286ERGO    R516002   5.156   5.436   9.192  0.0183 -0.1813  0.0602
 1286ERGO    C116003   5.160   5.534   8.824  0.1958 -0.3337  0.0201
 1286ERGO    C216004   5.309   5.595   8.479  0.0213 -0.2076 -0.2207
 1287ERGO   ROH16005  16.384  18.185   9.219  0.2136 -0.2495 -0.0056
 1287ERGO    R116006  16.392  18.037   8.978 -0.0732 -0.1244 -0.0976
 1287ERGO    R216007  16.190  18.049   8.789 -0.1110  0.2920 -0.0451
 1287ERGO    R316008  16.395  18.111   8.622 -0.0543  0.0829 -0.0546
 1287ERGO    R416009  16.161  18.093   8.448 -0.0163  0.0073 -0.0923
 1287ERGO    R516010  16.350  17.987   8.422 -0.0456 -0.0736  0.0412
 1287ERGO    C116011  16.337  18.177   8.092  0.0922 -0.3545 -0.1286
 1287ERGO    C216012  16.188  18.522   7.831 -0.1386  0.1788 -0.0010
 1288ERGO   ROH16013  18.125   5.212   6.327 -0.0426  0.2361 -0.0160
 1288ERGO    R116014  18.061   5.184   6.601  0.0963  0.0594  0.0003
 1288ERGO    R216015  18.112   4.952   6.743  0.2530 -0.0007 -0.1506
 1288ERGO    R316016  18.243   5.122   6.910  0.2659 -0.0424 -0.1182
 1288ERGO    R416017  18.170   4.893   7.078 -0.1291  0.1197 -0.0573
 1288ERGO    R516018  18.126   5.102   7.118  0.0437  0.1895 -0.2162
 1288ERGO    C116019  18.327   5.017   7.430 -0.3395  0.1509  0.0274
 1288ERGO    C216020  18.549   4.995   7.802  0.2482  0.3385  0.1221
 1289ERGO   ROH16021   6.333   6.189   9.984  0.3013  0.1801  0.1112
 1289ERGO    R116022   6.186   6.304   9.771  0.2177  0.0533  0.1011
 1289ERGO    R216023   6.113   6.570   9.768  0.0931  0.0127  0.0403
 1289ERGO    R316024   6.238   6.569   9.526  0.0555  0.0129  0.0193
 1289ERGO    R416025   6.077   6.814   9.526  0.2095  0.1270  0.1353
 1289ERGO    R516026   6.074   6.657   9.375  0.0816  0.1755  0.0766
 1289ERGO    C116027   6.173   6.955   9.158  0.2421  0.1938  0.1710
 1289ERGO    C216028   6.172   7.076   8.838 -0.2098 -0.0442  0.0472
 1290ERGO   ROH16029  10.928  12.572  10.033 -0.0558  0.2087  0.1348
 1290ERGO    R116030  10.831  12.757   9.841 -0.0562  0.1732  0.1009
 1290ERGO    R216031  10.994  12.873   9.651 -0.0711  0.0846  0.0354
 1290ERGO    R316032  10.808  12.775   9.479 -0.1258  0.0740  0.0995
 1290ERGO    R416033  10.977  12.950   9.314 -0.1253  0.0041  0.0193
 1290ERGO    R516034  10.759  12.958   9.332 -0.1222  0.0481  0.0634
 1290ERGO    C116035  10.792  12.901   8.957 -0.2082 -0.0528  0.0703
 1290ERGO    C216036  10.846  12.960   8.654 -0.1003  0.2020 -0.0725
 1291ERGO   ROH16037  17.121   4.826   6.424 -0.0394 -0.1710  0.0465
 1291ERGO    R116038  17.098   4.714   6.683  0.0094 -0.0087  0.1229
 1291ERGO    R216039  17.314   4.608   6.819  0.0000 -0.1055  0.0652
 1291ERGO    R316040  17.235   4.781   7.013  0.2422  0.0685  0.0127
 1291ERGO    R416041  17.382   4.570   7.155 -0.1358 -0.1523  0.0880
 1291ERGO    R516042  17.180   4.640   7.199 -0.0348  0.1941  0.0302
 1291ERGO    C116043  17.348   4.710   7.534  0.0123 -0.0162  0.0519
 1291ERGO    C216044  17.306   4.698   7.829  0.2033  0.0122  0.0015
 1292ERGO   ROH16045  10.864  11.411   6.052  0.2638  0.1564 -0.0833
 1292ERGO    R116046  10.805  11.415   6.329  0.3063  0.1273 -0.0736
 1292ERGO    R216047  10.803  11.648   6.478  0.0768  0.1478 -0.1031
 1292ERGO    R316048  10.553  11.565   6.543  0.1751 -0.1194 -0.0520
 1292ERGO    R416049  10.673  11.646   6.798  0.1244  0.0524 -0.0840
 1292ERGO    R516050  10.580  11.454   6.754  0.3285 -0.0586 -0.0396
 1292ERGO    C116051  10.362  11.568   7.046  0.2443 -0.2540 -0.0249
 1292ERGO    C216052  10.219  11.480   7.309 -0.0216  0.2876 -0.2147
 1293ERGO   ROH16053  11.017  13.382   6.223 -0.0040 -0.2795  0.0641
 1293ERGO    R116054  11.164  13.372   6.465  0.0073 -0.0941  0.0668
 1293ERGO    R216055  11.332  13.576   6.545 -0.0436  0.0024 -0.0597
 1293ERGO    R316056  11.182  13.568   6.772 -0.0360  0.0969 -0.0514
 1293ERGO    R416057  11.424  13.715   6.848  0.1101 -0.1506 -0.0351
 1293ERGO    R516058  11.342  13.539   6.948 -0.0507 -0.0939 -0.0688
 1293ERGO    C116059  11.336  13.787   7.237  0.2069 -0.1510 -0.0131
 1293ERGO    C216060  11.324  14.172   7.296 -0.2214 -0.1461  0.1060
 1294ERGO   ROH16061   1.168   2.856   6.094  0.1511  0.0861 -0.0052
 1294ERGO    R116062   1.139   2.905   6.371  0.0371  0.1044 -0.0190
 1294ERGO    R216063   1.293   2.777   6.562 -0.1604 -0.0165  0.0669
 1294ERGO    R316064   1.349   3.031   6.640 -0.0109 -0.0577  0.0947
 1294ERGO    R416065   1.274   2.892   6.887 -0.2518  0.0021  0.0543
 1294ERGO    R516066   1.188   3.077   6.811 -0.0695  0.0663  0.0052
 1294ERGO    C116067   1.315   3.198   7.150 -0.1646 -0.0258  0.0730
 1294ERGO    C216068   1.321   3.288   7.512  0.4102 -0.2437 -0.3222
 1295ERGO   ROH16069   2.031  15.343   9.093  0.0453 -0.0819 -0.1889
 1295ERGO    R116070   1.890  15.386   8.852 -0.0228 -0.0797 -0.1502
 1295ERGO    R216071   2.005  15.503   8.630 -0.0993 -0.0191 -0.1688
 1295ERGO    R316072   1.919  15.277   8.506 -0.0754 -0.0268 -0.1684
 1295ERGO    R416073   2.020  15.447   8.290  0.0779 -0.1184 -0.1451
 1295ERGO    R516074   1.823  15.355   8.301  0.0612 -0.0679 -0.2395
 1295ERGO    C116075   1.948  15.202   7.974  0.2034 -0.1836 -0.1309
 1295ERGO    C216076   1.856  15.274   7.573 -0.1759  0.0648  0.1795
 1296ERGO   ROH16077   4.476   4.344   9.704 -0.0237  0.0622 -0.0054
 1296ERGO    R116078   4.565   4.383   9.439  0.0030  0.1619  0.0175
 1296ERGO    R216079   4.546   4.187   9.245  0.0793  0.2115 -0.0437
 1296ERGO    R316080   4.416   4.381   9.107  0.0478  0.2192 -0.0026
 1296ERGO    R416081   4.563   4.231   8.902 -0.0588  0.1889 -0.0536
 1296ERGO    R516082   4.570   4.446   8.935 -0.0166  0.1883 -0.0710
 1296ERGO    C116083   4.450   4.439   8.573 -0.1689  0.1830 -0.0206
 1296ERGO    C216084   4.524   4.589   8.294 -0.1664 -0.0907 -0.0829
 1297ERGO   ROH16085  15.476   0.207   9.053  0.0411  0.0916 -0.2315
 1297ERGO    R116086  15.606   0.376   8.867  0.1286  0.1686 -0.1019
 1297ERGO    R216087  15.812   0.546   8.939  0.2258 -0.0008  0.0281
 1297ERGO    R316088  15.945   0.418   8.739  0.1481  0.0829 -0.0784
 1297ERGO    R416089  16.127   0.631   8.825  0.2272 -0.0219  0.0165
 1297ERGO    R516090  16.059   0.593   8.621  0.1746  0.1230  0.0060
 1297ERGO    C116091  16.435   0.559   8.571  0.1551  0.0444 -0.0903
 1297ERGO    C216092  16.778   0.417   8.615 -0.1426 -0.1921 -0.0615
 1298ERGO   ROH16093  16.841   6.592  10.273 -0.3226  0.1295  0.0105
 1298ERGO    R116094  16.769   6.486  10.021 -0.2564  0.2803 -0.0738
 1298ERGO    R216095  16.811   6.623   9.785  0.1377  0.2767 -0.0186
 1298ERGO    R316096  16.942   6.396   9.713 -0.1128  0.1060  0.0576
 1298ERGO    R416097  16.844   6.509   9.460  0.2798  0.2912 -0.0093
 1298ERGO    R516098  16.810   6.306   9.534 -0.0717  0.3240 -0.0797
 1298ERGO    C116099  16.985   6.229   9.204  0.1274  0.1395  0.0678
 1298ERGO    C216100  16.918   6.005   8.866 -0.1612  0.2646 -0.3074
 1299ERGO   ROH16101   2.656  11.118   6.514  0.2083  0.0743 -0.0702
 1299ERGO    R116102   2.703  11.203   6.780  0.0873  0.0417 -0.0377
 1299ERGO    R216103   2.679  11.033   6.997  0.0200  0.0061 -0.0726
 1299ERGO    R316104   2.933  11.115   7.049 -0.0115  0.0328  0.0439
 1299ERGO    R416105   2.837  11.003   7.302 -0.1038 -0.0014 -0.0083
 1299ERGO    R516106   2.923  11.201   7.272 -0.1156  0.0109  0.0472
 1299ERGO    C116107   3.167  11.061   7.529 -0.2055  0.0192  0.1383
 1299ERGO    C216108   3.209  11.137   7.841  0.1563 -0.1977  0.1887
 1300ERGO   ROH16109   0.480   6.615   6.483  0.0208  0.0008 -0.0872
 1300ERGO    R116110   0.401   6.391   6.637 -0.1306  0.0252 -0.1268
 1300ERGO    R216111   0.581   6.207   6.736 -0.2558 -0.1441 -0.1983
 1300ERGO    R316112   0.463   6.266   6.974 -0.1711 -0.1008 -0.1669
 1300ERGO    R416113   0.573   5.996   7.010 -0.0292 -0.0268 -0.0990
 1300ERGO    R516114   0.367   6.058   7.045 -0.0389 -0.1124 -0.0286
 1300ERGO    C116115   0.457   5.929   7.392  0.1822  0.0820 -0.0116
 1300ERGO    C216116   0.701   5.760   7.617 -0.1228  0.2879  0.3101
 1301ERGO   ROH16117   1.340  14.262   9.282  0.1970 -0.0535 -0.0779
 1301ERGO    R116118   1.302  14.364   9.021  0.1629 -0.1013 -0.0916
 1301ERGO    R216119   1.509  14.463   8.868  0.1244 -0.0173 -0.0904
 1301ERGO    R316120   1.418  14.283   8.686  0.2226 -0.0825 -0.0757
 1301ERGO    R416121   1.589  14.464   8.532 -0.0690  0.1477 -0.1378
 1301ERGO    R516122   1.382  14.412   8.487 -0.0384 -0.0773 -0.0287
 1301ERGO    C116123   1.550  14.296   8.165 -0.0894  0.1825 -0.1513
 1301ERGO    C216124   1.665  14.097   7.891 -0.0604 -0.2615 -0.1290
 1302ERGO   ROH16125  17.423  14.274   5.791 -0.0160 -0.0406  0.0335
 1302ERGO    R116126  17.531  14.197   6.041  0.2077 -0.1280 -0.0878
 1302ERGO    R216127  17.782  14.275   6.125  0.0563  0.3381 -0.0401
 1302ERGO    R316128  17.646  14.364   6.343 -0.1186 -0.2514  0.1105
 1302ERGO    R416129  17.924  14.330   6.435  0.0528  0.4898 -0.0648
 1302ERGO    R516130  17.744  14.244   6.526  0.3367 -0.1337 -0.0427
 1302ERGO    C116131  17.879  14.446   6.821 -0.1134  0.0247  0.0622
 1302ERGO    C216132  18.165  14.404   6.996 -0.3063 -0.2734 -0.0723
 1303ERGO   ROH16133  10.553  15.094   9.566  0.0125 -0.1740  0.0960
 1303ERGO    R116134  10.480  15.143   9.296  0.0271 -0.0403  0.1161
 1303ERGO    R216135  10.623  15.040   9.083  0.0224  0.0428  0.0734
 1303ERGO    R316136  10.380  14.943   9.009  0.0135  0.1049  0.0189
 1303ERGO    R416137  10.520  14.995   8.756  0.1905 -0.1982  0.0515
 1303ERGO    R516138  10.323  15.069   8.813  0.1950 -0.0404 -0.1307
 1303ERGO    C116139  10.232  14.877   8.496  0.2802 -0.2802 -0.0125
 1303ERGO    C216140  10.314  14.787   8.282  0.2915 -0.3787  0.1159
 1304ERGO   ROH16141  15.554   3.109   6.397  0.3759  0.0544  0.0226
 1304ERGO    R116142  15.703   3.047   6.629  0.1585 -0.1016  0.1232
 1304ERGO    R216143  15.683   3.192   6.863  0.1292 -0.1029  0.1176
 1304ERGO    R316144  15.630   2.949   6.972 -0.1680 -0.0646  0.0690
 1304ERGO    R416145  15.750   3.105   7.190  0.2363 -0.3044  0.0437
 1304ERGO    R516146  15.815   2.909   7.119 -0.1116 -0.3925 -0.0741
 1304ERGO    C116147  15.739   2.825   7.484  0.0196 -0.3859 -0.0449
 1304ERGO    C216148  15.806   2.680   7.822  0.0020 -0.1844 -0.3163
 1305ERGO   ROH16149  16.105   5.496   6.566  0.2776  0.3880 -0.1984
 1305ERGO    R116150  16.099   5.562   6.841  0.1096  0.3636 -0.1955
 1305ERGO    R216151  16.313   5.516   7.010 -0.1282 -0.0155  0.0178
 1305ERGO    R316152  16.285   5.780   7.065  0.2554  0.0314  0.0156
 1305ERGO    R416153  16.344   5.655   7.324 -0.1578 -0.0895  0.0542
 1305ERGO    R516154  16.174   5.785   7.278  0.0862  0.1923 -0.0743
 1305ERGO    C116155  16.335   5.985   7.560  0.1851 -0.0886  0.0734
 1305ERGO    C216156  16.528   6.050   7.803 -0.0315 -0.1890 -0.1827
 1306ERGO   ROH16157  12.024   4.003  10.072  0.2474  0.0915 -0.1123
 1306ERGO    R116158  12.127   3.910   9.825  0.2235  0.1833 -0.1546
 1306ERGO    R216159  11.968   3.794   9.632  0.2747 -0.1477  0.0127
 1306ERGO    R316160  12.078   3.984   9.472 -0.1611 -0.0177 -0.1526
 1306ERGO    R416161  12.061   3.745   9.303  0.0957 -0.1406 -0.0425
 1306ERGO    R516162  12.239   3.865   9.341 -0.0573  0.1809 -0.2263
 1306ERGO    C116163  12.219   3.895   8.961 -0.4178 -0.0143 -0.2298
 1306ERGO    C216164  11.994   3.993   8.641 -0.0282 -0.0209 -0.1298
 1307ERGO   ROH16165  17.970  13.620   9.445  0.0848  0.3811 -0.0901
 1307ERGO    R116166  18.040  13.427   9.250 -0.0786  0.2882 -0.0595
 1307ERGO    R216167  17.869  13.353   9.045 -0.1071  0.4726 -0.1078
 1307ERGO    R316168  18.081  13.420   8.888  0.0186  0.2251 -0.0469
 1307ERGO    R416169  17.932  13.224   8.731 -0.0077  0.1957  0.0239
 1307ERGO    R516170  18.143  13.215   8.781 -0.0422  0.1077  0.1435
 1307ERGO    C116171  18.167  13.211   8.401  0.1682 -0.1979  0.1577
 1307ERGO    C216172  18.418  13.358   8.189 -0.0511  0.0231 -0.1462
 1308ERGO   ROH16173   5.541  15.469   9.287 -0.0192 -0.3076  0.1171
 1308ERGO    R116174   5.646  15.426   9.028  0.0369 -0.4222  0.1585
 1308ERGO    R216175   5.620  15.186   8.895 -0.3423 -0.3379  0.0735
 1308ERGO    R316176   5.514  15.343   8.699  0.0455 -0.0760  0.0624
 1308ERGO    R416177   5.595  15.096   8.562 -0.4436 -0.2473  0.0561
 1308ERGO    R516178   5.652  15.300   8.508  0.0145 -0.3520  0.0959
 1308ERGO    C116179   5.481  15.191   8.185 -0.1386  0.0513  0.0355
 1308ERGO    C216180   5.336  14.896   7.912 -0.3768 -0.0446  0.0918
 1309ERGO   ROH16181   2.904   1.220   8.934 -0.0575  0.1642 -0.1700
 1309ERGO    R116182   2.941   1.351   8.687 -0.1289  0.0111 -0.2641
 1309ERGO    R216183   3.191   1.385   8.572 -0.1324  0.1666 -0.2306
 1309ERGO    R316184   3.073   1.265   8.359  0.0328 -0.1160 -0.1667
 1309ERGO    R416185   3.295   1.418   8.245 -0.2089  0.1778 -0.2537
 1309ERGO    R516186   3.086   1.427   8.184 -0.2334 -0.1729 -0.2432
 1309ERGO    C116187   3.246   1.324   7.853 -0.0984 -0.0811 -0.2072
 1309ERGO    C216188   3.232   1.460   7.406 -0.0692  0.1226  0.0012
 1310ERGO   ROH16189  16.845   3.458   6.312 -0.2353 -0.1327  0.0216
 1310ERGO    R116190  17.019   3.399   6.527 -0.1309  0.0022 -0.0238
 1310ERGO    R216191  17.159   3.593   6.664 -0.1544  0.1002 -0.1373
 1310ERGO    R316192  17.040   3.481   6.881 -0.0300  0.1216 -0.0570
 1310ERGO    R416193  17.272   3.625   6.989  0.0887  0.0487 -0.2150
 1310ERGO    R516194  17.223   3.414   7.021  0.0520  0.0612 -0.1920
 1310ERGO    C116195  17.227   3.537   7.382  0.3468  0.0388 -0.1849
 1310ERGO    C216196  17.091   3.489   7.663 -0.1912  0.3277  0.0823
 1311ERGO   ROH16197  11.861  14.420   6.344 -0.0649 -0.2017  0.1155
 1311ERGO    R116198  11.958  14.573   6.562 -0.1040 -0.0713  0.0446
 1311ERGO    R216199  11.792  14.672   6.759 -0.1163 -0.1408  0.0811
 1311ERGO    R316200  11.964  14.541   6.924  0.0385  0.0224  0.0484
 1311ERGO    R416201  11.855  14.759   7.088 -0.2568 -0.1931  0.1212
 1311ERGO    R516202  12.066  14.716   7.054 -0.2014  0.0984  0.1272
 1311ERGO    C116203  12.053  14.687   7.434 -0.1934 -0.0702  0.1139
 1311ERGO    C216204  12.281  14.761   7.646  0.0249 -0.4069 -0.1295
 1312ERGO   ROH16205  15.891   0.399   6.085  0.0094  0.0412  0.0239
 1312ERGO    R116206  15.951   0.321   6.350  0.0207 -0.0088  0.0067
 1312ERGO    R216207  16.200   0.358   6.464  0.0618 -0.1447 -0.0387
 1312ERGO    R316208  16.057   0.486   6.657  0.1647 -0.0854 -0.0008
 1312ERGO    R416209  16.265   0.340   6.802  0.1153 -0.2148 -0.0526
 1312ERGO    R516210  16.050   0.330   6.838  0.1140 -0.1022 -0.0152
 1312ERGO    C116211  16.169   0.449   7.181  0.2429 -0.2001 -0.0251
 1312ERGO    C216212  16.146   0.487   7.505  0.3588  0.3402 -0.1417
 1313ERGO   ROH16213   8.500   2.513   6.381 -0.5912 -0.2101  0.1456
 1313ERGO    R116214   8.617   2.496   6.638 -0.3332 -0.0153  0.0478
 1313ERGO    R216215   8.508   2.620   6.860 -0.1865  0.0493  0.0953
 1313ERGO    R316216   8.519   2.370   6.965  0.0383  0.1057  0.2085
 1313ERGO    R416217   8.499   2.548   7.197 -0.1983  0.1747  0.1211
 1313ERGO    R516218   8.651   2.395   7.164 -0.0407  0.3160  0.2293
 1313ERGO    C116219   8.504   2.271   7.493  0.0059  0.3008  0.2424
 1313ERGO    C216220   8.755   2.288   7.817  0.2201  0.0519  0.2481
 1314ERGO   ROH16221   3.150   9.173   6.662  0.0435  0.1161  0.0427
 1314ERGO    R116222   2.915   9.175   6.819  0.0315  0.2473  0.0232
 1314ERGO    R216223   2.919   9.158   7.095 -0.0073  0.0547  0.0088
 1314ERGO    R316224   2.773   9.386   7.079  0.2191  0.2158  0.1560
 1314ERGO    R416225   2.717   9.282   7.346 -0.1248 -0.0907 -0.0135
 1314ERGO    R516226   2.570   9.335   7.195  0.0587  0.2405 -0.0947
 1314ERGO    C116227   2.460   9.567   7.477  0.0192 -0.0243  0.1119
 1314ERGO    C216228   2.408   9.685   7.770 -0.0424 -0.2647 -0.1501
 1315ERGO   ROH16229  14.291  16.066   9.563  0.1313 -0.0220 -0.2203
 1315ERGO    R116230  14.295  16.052   9.280  0.0602 -0.1260 -0.2173
 1315ERGO    R216231  14.064  16.033   9.129  0.0083  0.0220 -0.1619
 1315ERGO    R316232  14.166  16.252   9.004  0.1757 -0.1089 -0.2595
 1315ERGO    R416233  14.026  16.106   8.793 -0.3223  0.1210 -0.1065
 1315ERGO    R516234  14.233  16.173   8.789 -0.2196 -0.1844 -0.3637
 1315ERGO    C116235  14.100  16.354   8.481 -0.3576  0.0556 -0.1660
 1315ERGO    C216236  14.138  16.408   8.096 -0.0919  0.0988  0.3180
 1316ERGO   ROH16237  11.451  16.089   6.292  0.1076 -0.0141  0.0293
 1316ERGO    R116238  11.497  16.038   6.566 -0.0599 -0.1495  0.0338
 1316ERGO    R216239  11.482  15.785   6.676  0.2102 -0.2566 -0.1702
 1316ERGO    R316240  11.733  15.843   6.763  0.0552  0.0453  0.0922
 1316ERGO    R416241  11.618  15.675   6.974  0.0266 -0.0747 -0.0159
 1316ERGO    R516242  11.708  15.871   7.000 -0.2291  0.0366  0.0680
 1316ERGO    C116243  11.933  15.666   7.229 -0.2257  0.3147  0.3203
 1316ERGO    C216244  12.080  15.749   7.483 -0.0885 -0.0916  0.1722
 1317ERGO   ROH16245   5.900  11.736   9.390 -0.0601  0.2426  0.0970
 1317ERGO    R116246   5.857  11.705   9.112 -0.1150  0.0019  0.1283
 1317ERGO    R216247   5.621  11.781   8.988 -0.0159  0.2266  0.0511
 1317ERGO    R316248   5.789  11.924   8.829  0.2058 -0.1951 -0.1042
 1317ERGO    R416249   5.562  11.861   8.657 -0.0039  0.1987  0.0439
 1317ERGO    R516250   5.771  11.821   8.614 -0.1099 -0.2556 -0.0444
 1317ERGO    C116251   5.685  12.042   8.316  0.2111 -0.2133 -0.1062
 1317ERGO    C216252   5.605  12.408   8.128 -0.2089  0.2645  0.1560
 1318ERGO   ROH16253   3.659  14.262   5.944  0.2003 -0.0346  0.0573
 1318ERGO    R116254   3.520  14.363   6.169  0.1330  0.1338 -0.0584
 1318ERGO    R216255   3.558  14.264   6.424 -0.1258  0.1548 -0.0119
 1318ERGO    R316256   3.607  14.524   6.483  0.0581  0.1265 -0.0330
 1318ERGO    R416257   3.532  14.403   6.739 -0.2757  0.2481 -0.0637
 1318ERGO    R516258   3.443  14.580   6.648 -0.0403  0.3111 -0.1861
 1318ERGO    C116259   3.564  14.729   6.978 -0.1903  0.2759 -0.1137
 1318ERGO    C216260   3.593  15.047   7.136  0.0093  0.3705  0.1974
 1319ERGO   ROH16261   3.434  15.058   9.261 -0.2879  0.2554 -0.0764
 1319ERGO    R116262   3.364  14.898   9.039 -0.0786  0.1648 -0.0795
 1319ERGO    R216263   3.272  15.005   8.801  0.0075  0.0609 -0.1620
 1319ERGO    R316264   3.476  14.860   8.695  0.1432  0.1341 -0.0054
 1319ERGO    R416265   3.307  14.930   8.466  0.1729 -0.1161 -0.1068
 1319ERGO    R516266   3.373  14.729   8.522  0.2900 -0.0392  0.0347
 1319ERGO    C116267   3.518  14.750   8.170  0.3966 -0.1505  0.0725
 1319ERGO    C216268   3.668  14.729   7.807 -0.0568  0.1913  0.0460
 1320ERGO   ROH16269   4.037   6.024   6.372 -0.0251  0.0232 -0.1039
 1320ERGO    R116270   3.961   6.131   6.622  0.1663  0.0482 -0.0516
 1320ERGO    R216271   3.794   5.998   6.797 -0.1316  0.2789 -0.1283
 1320ERGO    R316272   3.998   6.038   6.972 -0.0446 -0.2247 -0.1036
 1320ERGO    R416273   3.759   6.019   7.140 -0.1059  0.4280 -0.1365
 1320ERGO    R516274   3.905   6.181   7.140  0.3145  0.0449 -0.1390
 1320ERGO    C116275   3.930   6.070   7.504 -0.0093  0.0420 -0.1181
 1320ERGO    C216276   3.896   5.929   7.860 -0.0587 -0.0356 -0.2321
 1321ERGO   ROH16277  12.390   9.125   6.419  0.1765  0.1455 -0.0507
 1321ERGO    R116278  12.574   9.247   6.596  0.1032  0.1320  0.0350
 1321ERGO    R216279  12.494   9.386   6.820  0.0114  0.0821  0.0329
 1321ERGO    R316280  12.665   9.216   6.947 -0.0139  0.0763  0.0606
 1321ERGO    R416281  12.627   9.439   7.135 -0.1583 -0.0012  0.1204
 1321ERGO    R516282  12.817   9.361   7.062 -0.1040  0.0687  0.1901
 1321ERGO    C116283  12.864   9.310   7.437 -0.2809 -0.0551  0.1973
 1321ERGO    C216284  12.957   9.466   7.725  0.0320 -0.2104 -0.2965
 1322ERGO   ROH16285   4.257  12.767   9.541 -0.0073  0.0256 -0.0564
 1322ERGO    R116286   4.305  12.919   9.308 -0.0690  0.0030 -0.0841
 1322ERGO    R216287   4.487  12.843   9.115 -0.0041  0.0656 -0.0463
 1322ERGO    R316288   4.274  12.870   8.949 -0.0010 -0.0921 -0.0779
 1322ERGO    R416289   4.509  12.872   8.771  0.0340  0.1226 -0.0391
 1322ERGO    R516290   4.351  13.022   8.780 -0.0952 -0.0070 -0.0471
 1322ERGO    C116291   4.321  12.915   8.415  0.0592  0.0078 -0.0645
 1322ERGO    C216292   4.228  13.036   8.143  0.3127 -0.3125  0.0649
 1323ERGO   ROH16293   4.472   3.327   9.074  0.0776  0.1697  0.0617
 1323ERGO    R116294   4.545   3.277   8.805  0.0512  0.0936  0.0688
 1323ERGO    R216295   4.359   3.259   8.602  0.0244 -0.0459  0.1053
 1323ERGO    R316296   4.514   3.450   8.486 -0.0587 -0.0356  0.0080
 1323ERGO    R416297   4.499   3.235   8.287  0.0840 -0.1707  0.1401
 1323ERGO    R516298   4.680   3.326   8.366  0.0250 -0.0245  0.1109
 1323ERGO    C116299   4.726   3.401   7.995  0.0407 -0.2337  0.0691
 1323ERGO    C216300   4.819   3.469   7.655  0.1746 -0.1243  0.1271
 1324ERGO   ROH16301  15.581   8.219  10.099 -0.1520 -0.1257  0.0271
 1324ERGO    R116302  15.618   8.016   9.906 -0.1691 -0.0895 -0.0146
 1324ERGO    R216303  15.407   7.890   9.779 -0.1797 -0.0370 -0.0504
 1324ERGO    R316304  15.539   7.967   9.554 -0.1608 -0.0050 -0.0283
 1324ERGO    R416305  15.282   7.864   9.458 -0.0625 -0.2015 -0.0838
 1324ERGO    R516306  15.480   7.802   9.391  0.0007 -0.0859 -0.0064
 1324ERGO    C116307  15.332   7.921   9.060  0.0235 -0.2674 -0.0825
 1324ERGO    C216308  15.354   7.710   8.806  0.1052 -0.0400 -0.1995
 1325ERGO   ROH16309  12.879   5.660   6.750 -0.1044  0.0915 -0.3067
 1325ERGO    R116310  12.784   5.797   6.978 -0.0471 -0.0422 -0.2014
 1325ERGO    R216311  12.575   5.702   7.132  0.0072 -0.1438 -0.1914
 1325ERGO    R316312  12.755   5.729   7.334  0.0650 -0.2416 -0.2288
 1325ERGO    R416313  12.499   5.677   7.468  0.0535 -0.0513 -0.1734
 1325ERGO    R516314  12.634   5.844   7.506  0.1755 -0.1376 -0.2190
 1325ERGO    C116315  12.623   5.688   7.854  0.1347 -0.0892 -0.1980
 1325ERGO    C216316  12.722   5.738   8.154  0.1006  0.2143 -0.1408
 1326ERGO   ROH16317   3.053  11.141   6.117 -0.1602 -0.0558 -0.1732
 1326ERGO    R116318   3.173  11.209   6.364 -0.1150 -0.1056 -0.1812
 1326ERGO    R216319   3.263  11.464   6.420 -0.0108 -0.1417 -0.1848
 1326ERGO    R316320   3.102  11.439   6.638 -0.0048 -0.0809 -0.1729
 1326ERGO    R416321   3.368  11.491   6.748 -0.0142  0.0217 -0.1959
 1326ERGO    R516322   3.237  11.324   6.799  0.0199  0.0158 -0.1236
 1326ERGO    C116323   3.278  11.482   7.144 -0.0105  0.1737 -0.1912
 1326ERGO    C216324   3.512  11.508   7.500  0.0840  0.0327  0.0658
 1327ERGO   ROH16325   7.055   3.962   6.383  0.2898 -0.0554  0.0924
 1327ERGO    R116326   6.979   3.848   6.630  0.3486 -0.0593  0.1083
 1327ERGO    R216327   7.145   3.847   6.852  0.2205  0.3714  0.2124
 1327ERGO    R316328   6.931   3.964   6.972 -0.0760  0.0490  0.0179
 1327ERGO    R416329   7.096   3.866   7.193 -0.1953  0.1786  0.1704
 1327ERGO    R516330   6.885   3.824   7.161 -0.1111 -0.0864 -0.0880
 1327ERGO    C116331   6.867   3.986   7.505 -0.7158 -0.2364 -0.0366
 1327ERGO    C216332   6.708   4.024   7.859  0.3201 -0.0252  0.3242
 1328ERGO   ROH16333  14.607  14.818   9.563 -0.0008  0.3011  0.1410
 1328ERGO    R116334  14.462  14.826   9.319  0.0718  0.0825  0.0907
 1328ERGO    R216335  14.305  15.041   9.246 -0.1410 -0.1140 -0.0097
 1328ERGO    R316336  14.458  15.035   9.021 -0.0649  0.0067  0.0353
 1328ERGO    R416337  14.223  15.193   8.946 -0.2805 -0.3281 -0.0828
 1328ERGO    R516338  14.300  15.017   8.842 -0.0096 -0.2755 -0.0015
 1328ERGO    C116339  14.318  15.274   8.561 -0.2903 -0.3394 -0.0831
 1328ERGO    C216340  14.379  15.468   8.315 -0.2511 -0.0851  0.0555
 1329ERGO   ROH16341  11.011   8.312   7.089  0.2160 -0.0205 -0.1203
 1329ERGO    R116342  11.152   8.241   7.324  0.0749 -0.1694 -0.0787
 1329ERGO    R216343  11.186   8.416   7.535  0.2954 -0.1627 -0.1186
 1329ERGO    R316344  11.077   8.213   7.679 -0.0290  0.0300 -0.0831
 1329ERGO    R416345  11.256   8.350   7.867  0.3514 -0.3358 -0.1637
 1329ERGO    R516346  11.256   8.137   7.819 -0.0935 -0.3387 -0.1897
 1329ERGO    C116347  11.194   8.121   8.195  0.0796 -0.2558 -0.1566
 1329ERGO    C216348  11.218   7.969   8.472 -0.1030 -0.1331 -0.1763
 1330ERGO   ROH16349   9.033  16.792   9.715  0.2112  0.1490 -0.2008
 1330ERGO    R116350   9.052  16.672   9.460  0.7092  0.0368 -0.1200
 1330ERGO    R216351   8.886  16.740   9.250  0.3051 -0.8589 -0.1371
 1330ERGO    R316352   9.121  16.782   9.120  0.1321  0.1468 -0.2120
 1330ERGO    R416353   8.923  16.758   8.906  0.1366 -0.7664 -0.1524
 1330ERGO    R516354   9.107  16.644   8.925  0.6724  0.0192 -0.1758
 1330ERGO    C116355   9.165  16.808   8.585 -0.1239  0.2317 -0.2316
 1330ERGO    C216356   9.157  16.683   8.238  0.0471 -0.1178  0.1484
 1331ERGO   ROH16357   0.970  15.876   5.737 -0.1175 -0.2373  0.0898
 1331ERGO    R116358   0.985  15.828   6.016 -0.2355 -0.1545  0.1112
 1331ERGO    R216359   1.209  15.890   6.165 -0.2073 -0.3264  0.1459
 1331ERGO    R316360   1.030  16.029   6.316 -0.1085 -0.0909  0.0501
 1331ERGO    R416361   1.265  15.999   6.489 -0.1199 -0.1072  0.0584
 1331ERGO    R516362   1.060  15.943   6.538 -0.1521  0.0646  0.1160
 1331ERGO    C116363   1.130  16.192   6.818  0.0237  0.2415 -0.0825
 1331ERGO    C216364   1.097  16.388   7.051  0.0380 -0.0137 -0.1408
 1332ERGO   ROH16365  13.452  15.539   9.305 -0.1399  0.0763  0.0108
 1332ERGO    R116366  13.387  15.360   9.096 -0.1808  0.0339  0.0611
 1332ERGO    R216367  13.268  15.442   8.861 -0.0302  0.0186 -0.0149
 1332ERGO    R316368  13.480  15.317   8.746 -0.0741 -0.1789  0.1122
 1332ERGO    R416369  13.277  15.327   8.535  0.2256  0.4955 -0.1873
 1332ERGO    R516370  13.382  15.149   8.606 -0.1807  0.1929 -0.2869
 1332ERGO    C116371  13.481  15.142   8.238  0.3333  0.5877 -0.1685
 1332ERGO    C216372  13.699  15.081   8.034  0.0264 -0.2046 -0.0813
 1333ERGO   ROH16373   9.795   5.048   6.776  0.1168 -0.1762 -0.1438
 1333ERGO    R116374   9.843   4.866   6.988  0.0193 -0.1129 -0.0673
 1333ERGO    R216375   9.692   4.864   7.219 -0.0809 -0.0384 -0.1356
 1333ERGO    R316376   9.659   4.602   7.156 -0.0596 -0.0586 -0.0655
 1333ERGO    R416377   9.565   4.625   7.434 -0.1325  0.0290 -0.0900
 1333ERGO    R516378   9.715   4.485   7.358 -0.1073  0.0062 -0.0108
 1333ERGO    C116379   9.459   4.240   7.500 -0.1425  0.0494  0.0023
 1333ERGO    C216380   9.402   4.167   7.776 -0.0499 -0.0739  0.0591
 1334ERGO   ROH16381   3.875  11.435   9.806  0.1682  0.1002  0.0574
 1334ERGO    R116382   3.911  11.609   9.585 -0.0628  0.2062  0.0997
 1334ERGO    R216383   3.983  11.518   9.334  0.1156  0.3662  0.0898
 1334ERGO    R316384   3.761  11.654   9.257 -0.0861  0.0465  0.0873
 1334ERGO    R416385   3.897  11.586   9.007  0.0359  0.2641  0.0895
 1334ERGO    R516386   3.833  11.784   9.070 -0.2638  0.1704  0.1016
 1334ERGO    C116387   3.638  11.753   8.743 -0.2000 -0.0954  0.0869
 1334ERGO    C216388   3.412  11.852   8.475 -0.2357  0.3981  0.4823
 1335ERGO   ROH16389  10.164   1.825   6.515  0.0248  0.3934 -0.1338
 1335ERGO    R116390  10.280   1.806   6.773 -0.0355  0.2583 -0.1175
 1335ERGO    R216391  10.452   1.998   6.873  0.0289  0.1431 -0.0259
 1335ERGO    R316392  10.275   2.002   7.080 -0.0036  0.1609 -0.0516
 1335ERGO    R416393  10.529   2.086   7.199  0.0507 -0.0772  0.0313
 1335ERGO    R516394  10.401   1.924   7.268 -0.0793 -0.0293 -0.0709
 1335ERGO    C116395  10.408   2.140   7.582  0.0329 -0.1887  0.0405
 1335ERGO    C216396  10.339   2.213   7.856  0.2439  0.0334  0.0455
 1336ERGO   ROH16397  11.981  17.154   6.187 -0.1034 -0.1073 -0.0763
 1336ERGO    R116398  11.938  17.028   6.436 -0.0288 -0.0738 -0.0471
 1336ERGO    R216399  12.129  17.023   6.635 -0.0082  0.0404 -0.0682
 1336ERGO    R316400  11.929  17.128   6.786 -0.0330 -0.0090 -0.0648
 1336ERGO    R416401  12.107  16.999   6.980  0.0515  0.1028 -0.0592
 1336ERGO    R516402  11.893  16.966   6.959  0.0583  0.0090 -0.0245
 1336ERGO    C116403  11.907  17.084   7.321  0.0630  0.0929 -0.0506
 1336ERGO    C216404  11.948  17.269   7.672 -0.4055  0.0607 -0.0658
 1337ERGO   ROH16405   3.413  18.429   8.834  0.0288 -0.1319  0.0312
 1337ERGO    R116406   3.380  18.479   8.557 -0.0695 -0.0774  0.0531
 1337ERGO    R216407   3.569  18.614   8.407 -0.1873  0.0686  0.0434
 1337ERGO    R316408   3.556  18.392   8.250 -0.0984  0.1048 -0.0179
 1337ERGO    R416409   3.659  18.603   8.074  0.2691  0.0894  0.1587
 1337ERGO    R516410   3.486  18.475   8.036  0.2400  0.1919 -0.1044
 1337ERGO    C116411   3.700  18.389   7.732  0.6183  0.1354  0.1683
 1337ERGO    C216412   3.660  18.353   7.381  0.0627  0.2841  0.2232
 1338ERGO   ROH16413  16.936   3.889   9.997  0.2069  0.3834  0.1218
 1338ERGO    R116414  16.823   4.070   9.812 -0.0269  0.1941  0.0756
 1338ERGO    R216415  16.959   4.290   9.717 -0.2796  0.3046 -0.0383
 1338ERGO    R316416  16.896   4.184   9.474 -0.2212  0.1442  0.0153
 1338ERGO    R416417  17.008   4.448   9.413 -0.0013  0.0146 -0.1499
 1338ERGO    R516418  16.815   4.370   9.347 -0.0208  0.0956 -0.1884
 1338ERGO    C116419  16.978   4.440   9.009  0.2156 -0.3049 -0.1644
 1338ERGO    C216420  16.956   4.685   8.709 -0.3466  0.1754  0.0009
 1339ERGO   ROH16421  10.146  15.393   6.400 -0.2743 -0.2003 -0.2973
 1339ERGO    R116422  10.140  15.199   6.607 -0.1743  0.0011 -0.1010
 1339ERGO    R216423  10.188  15.262   6.872 -0.2633  0.3032 -0.1523
 1339ERGO    R316424   9.947  15.142   6.910 -0.1873  0.1731 -0.0764
 1339ERGO    R416425  10.113  15.047   7.131 -0.0777  0.2826 -0.1143
 1339ERGO    R516426  10.001  14.924   6.990 -0.0473  0.2100 -0.0721
 1339ERGO    C116427   9.843  14.808   7.318  0.1016  0.1485 -0.0209
 1339ERGO    C216428   9.652  14.942   7.696  0.3145  0.3149 -0.0445
 1340ERGO   ROH16429  10.507   2.223  10.060 -0.1281  0.0918  0.0450
 1340ERGO    R116430  10.552   2.093   9.812 -0.0092  0.1387  0.0428
 1340ERGO    R216431  10.471   2.201   9.571  0.0315  0.1410  0.0382
 1340ERGO    R316432  10.732   2.166   9.504  0.0627  0.2328  0.1039
 1340ERGO    R416433  10.593   2.194   9.247  0.0607 -0.0865  0.0517
 1340ERGO    R516434  10.725   2.031   9.306  0.1563  0.0386  0.2230
 1340ERGO    C116435  10.909   2.156   8.996  0.1070 -0.1328  0.1213
 1340ERGO    C216436  10.879   2.328   8.701 -0.2822 -0.1525 -0.0614
 1341ERGO   ROH16437  17.544  13.357   6.367 -0.0026  0.0327 -0.1068
 1341ERGO    R116438  17.635  13.288   6.626 -0.0365 -0.2083 -0.1558
 1341ERGO    R216439  17.784  13.060   6.676  0.2151 -0.1085 -0.3977
 1341ERGO    R316440  17.957  13.237   6.789 -0.0448 -0.0432 -0.0893
 1341ERGO    R416441  18.019  12.981   6.917  0.1677 -0.1202 -0.3562
 1341ERGO    R516442  17.972  13.169   7.018 -0.0983 -0.2911 -0.1614
 1341ERGO    C116443  18.318  13.102   7.163 -0.1040 -0.0657 -0.0425
 1341ERGO    C216444  18.692  13.036   7.172 -0.1387  0.0609 -0.2484
 1342ERGO   ROH16445   4.509  16.563   8.880 -0.3139 -0.0095  0.0599
 1342ERGO    R116446   4.555  16.473   8.615 -0.3170  0.2352 -0.0266
 1342ERGO    R216447   4.568  16.205   8.549  0.3023  0.2791 -0.1638
 1342ERGO    R316448   4.377  16.274   8.369 -0.0455 -0.1021  0.0436
 1342ERGO    R416449   4.542  16.075   8.230  0.2302  0.2695 -0.1543
 1342ERGO    R516450   4.491  16.275   8.158 -0.2733  0.1733 -0.0805
 1342ERGO    C116451   4.348  16.064   7.875 -0.1383 -0.0941  0.0461
 1342ERGO    C216452   4.290  15.796   7.762  0.1658 -0.0494 -0.0629
 1343ERGO   ROH16453  17.095   8.398   9.901  0.2794 -0.0265 -0.1521
 1343ERGO    R116454  17.097   8.349   9.622  0.1134  0.0955 -0.1748
 1343ERGO    R216455  16.919   8.175   9.500  0.1343  0.0481 -0.1202
 1343ERGO    R316456  16.865   8.391   9.345 -0.1050  0.0789 -0.0008
 1343ERGO    R416457  16.800   8.161   9.176  0.0680  0.0822 -0.0987
 1343ERGO    R516458  16.933   8.326   9.125 -0.0904  0.2396 -0.0529
 1343ERGO    C116459  16.680   8.356   8.842 -0.1951  0.1311  0.0261
 1343ERGO    C216460  16.632   8.267   8.493 -0.0571 -0.1698  0.2239
 1344ERGO   ROH16461   7.884   7.202  10.519 -0.2383 -0.0135  0.0015
 1344ERGO    R116462   8.009   7.164  10.268 -0.0965  0.0805  0.0566
 1344ERGO    R216463   7.973   6.935  10.117  0.1153  0.0670  0.0228
 1344ERGO    R316464   7.901   7.113   9.924  0.0949  0.0366  0.0021
 1344ERGO    R416465   7.981   6.872   9.777 -0.2204 -0.0922  0.0400
 1344ERGO    R516466   8.057   7.074   9.746 -0.0844 -0.1662 -0.1143
 1344ERGO    C116467   7.918   7.002   9.399 -0.4351 -0.2132  0.0306
 1344ERGO    C216468   8.021   6.991   9.083  0.3055  0.1920 -0.1344
 1345ERGO   ROH16469  17.011  12.999   9.512  0.0093  0.0978 -0.1173
 1345ERGO    R116470  16.926  12.785   9.347 -0.0147  0.0645 -0.0643
 1345ERGO    R216471  16.834  12.824   9.090 -0.0601  0.0152 -0.0633
 1345ERGO    R316472  17.026  12.642   9.028 -0.0619  0.0119 -0.0528
 1345ERGO    R416473  16.917  12.725   8.769  0.0543  0.0970 -0.0589
 1345ERGO    R516474  16.936  12.521   8.843  0.0014  0.0799 -0.1202
 1345ERGO    C116475  17.145  12.496   8.525  0.1192  0.1416 -0.0464
 1345ERGO    C216476  17.380  12.537   8.253 -0.1273  0.1151  0.1594
 1346W        W16477   2.296  10.297  14.695 -0.1619 -0.2037 -0.1655
 1347W        W16478   8.250   8.449   1.991 -0.1648 -0.1433 -0.1286
 1348W        W16479   2.850  18.232  11.225  0.0477 -0.1690  0.0662
 1349W        W16480  11.883   2.213   1.207  0.0869  0.0266 -0.0999
 1350W        W16481  13.435   7.635  16.030 -0.1154 -0.2102 -0.2664
 1351W        W16482  12.537  15.225   9.650 -0.0972  0.3095 -0.0083
 1352W        W16483   3.918  11.211   4.755 -0.1510  0.2123  0.4040
 1353W        W16484  10.872   5.491   2.835 -0.4442 -0.3246  0.1838
 1354W        W16485   6.042   4.166   3.236  0.2259  0.3507  0.0017
 1355W        W16486   5.515   9.253   3.009  0.0579 -0.1284  0.1422
 1356W        W16487   7.712  16.063  15.289  0.3975  0.3494 -0.1329
 1357W        W16488  12.968   0.654  13.409  0.2946 -0.0397 -0.1787
 1358W        W16489   5.685   4.398   3.615  0.0446 -0.2340 -0.0663
 1359W        W16490   8.375   0.893   2.150 -0.0441 -0.2554 -0.0677
 1360W        W16491   7.673  15.645  12.337  0.4037 -0.2317 -0.3586
 1361W        W16492   8.272   4.877   3.725 -0.0517 -0.2503  0.0331
 1362W        W16493   4.991  17.234   2.446 -0.0650  0.1372  0.1905
 1363W        W16494  15.735   4.025   2.023 -0.0620  0.0418  0.1607
 1364W        W16495  10.128  16.464  16.046 -0.2364 -0.0375 -0.1946
 1365W        W16496  16.631  14.510   1.622 -0.0991 -0.0565  0.0079
 1366W        W16497  15.088   8.012   2.314 -0.0095  0.3204 -0.1707
 1367W        W16498  18.042   2.020  12.043 -0.3419  0.0859  0.1271
 1368W        W16499  15.032   9.041   5.145 -0.1016  0.2010 -0.1044
 1369W        W16500   4.763   2.404  14.206 -0.3803 -0.1233 -0.0252
 1370W        W16501   0.617  14.538  11.277  0.1972  0.1082  0.3512
 1371W        W16502  12.717   0.042   3.799  0.1322 -0.0864 -0.0652
 1372W        W16503   9.051  16.047   1.072 -0.0355  0.2253  0.0949
 1373W        W16504   9.011  14.807   2.835  0.0104  0.0002 -0.1371
 1374W        W16505   3.428   5.657  14.896 -0.1484 -0.0718  0.1801
 1375W        W16506   8.640   6.912   1.812  0.1832  0.0198  0.3449
 1376W        W16507  10.413  13.344   4.143 -0.0144 -0.1148 -0.1380
 1377W        W16508  16.051   6.817   3.864  0.1806  0.2116  0.1444
 1378W        W16509   3.038   2.452  14.588  0.3793  0.0892 -0.2235
 1379W        W16510   1.007   5.096   4.214 -0.2210 -0.0885  0.1382
 1380W        W16511  18.284  12.852   4.466 -0.2362 -0.2308 -0.1550
 1381W        W16512  14.277  15.828  13.241 -0.1697 -0.1621  0.0599
 1382W        W16513  16.207  13.659  14.345 -0.0780 -0.0497  0.1462
 1383W        W16514   9.185   8.668   4.479 -0.1099 -0.0639  0.1057
 1384W        W16515   5.829  13.513   1.865 -0.1078  0.2790  0.2614
 1385W        W16516  18.376   5.768  12.839  0.1116 -0.0589  0.3401
 1386W        W16517  10.054   1.651   0.335 -0.1351  0.0890 -0.1746
 1387W        W16518   2.036   8.152  10.982  0.0501 -0.2060  0.2995
 1388W        W16519  16.471   4.661  13.655  0.0349  0.0882  0.1981
 1389W        W16520  17.180   2.278   5.138  0.3038  0.1058  0.2311
 1390W        W16521   0.318   3.809   5.195 -0.3625  0.3357  0.0955
 1391W        W16522   4.153   5.706   4.831 -0.1415  0.0347  0.1531
 1392W        W16523   3.310  17.158   1.039 -0.2918  0.0358  0.1938
 1393W        W16524  16.949  18.331   2.687 -0.0401 -0.0920 -0.3883
 1394W        W16525  10.795  12.407  11.938 -0.1529  0.1100  0.0372
 1395W        W16526   4.659  16.004  13.729  0.2439  0.0309 -0.1937
 1396W        W16527  14.309   2.027  13.373  0.0930  0.3072 -0.0830
 1397W        W16528   5.901  15.794  10.564 -0.0953  0.0489  0.0024
 1398W        W16529  13.946  11.734   3.820 -0.1519 -0.0634 -0.3210
 1399W        W16530  13.070   0.797  13.964  0.0799 -0.0308 -0.1166
 1400W        W16531   9.898   4.141   5.437 -0.0356  0.0333 -0.3466
 1401W        W16532   6.517  17.819  11.218 -0.0935 -0.1337  0.1573
 1402W        W16533  17.041   0.828   4.788 -0.0132  0.1421 -0.1199
 1403W        W16534  17.421   8.816  14.902  0.2499  0.0895 -0.0294
 1404W        W16535  16.990  11.386  15.064  0.3807  0.2313 -0.2907
 1405W        W16536   0.257   1.750  14.029  0.2147 -0.1131  0.0099
 1406W        W16537  16.237   2.053  15.592  0.1298  0.3423  0.1702
 1407W        W16538  10.168  10.877   3.295 -0.3673 -0.0101  0.1855
 1408W        W16539  14.642  10.979  11.435  0.0266 -0.1720  0.0535
 1409W        W16540   8.420   9.983   3.410 -0.0530 -0.2470 -0.0625
 1410W        W16541   3.808  12.049   5.089 -0.2522  0.3136 -0.0684
 1411W        W16542  12.393  14.589   2.704  0.3062  0.0649  0.1667
 1412W        W16543   8.003  13.636  12.176  0.0833 -0.1708  0.1058
 1413W        W16544  11.042  10.895  11.688 -0.3447 -0.0532  0.2021
 1414W        W16545   1.691  15.090   5.440  0.0968 -0.0211  0.2838
 1415W        W16546   3.504   9.194   1.385 -0.1408  0.2591 -0.0782
 1416W        W16547  13.788   1.208  15.942  0.0992 -0.2216  0.1689
 1417W        W16548  15.467  11.610  13.579  0.1187  0.4911  0.0257
 1418W        W16549   9.113   2.418  13.550 -0.0875 -0.2845  0.0941
 1419W        W16550  14.230   5.608   1.518  0.1455 -0.3081 -0.0828
 1420W        W16551   5.278  11.642   5.033  0.1212 -0.4516  0.0533
 1421W        W16552  15.218  11.912  11.980 -0.1826 -0.2368  0.2231
 1422W        W16553  12.861   6.290  13.948  0.0662  0.2547  0.1723
 1423W        W16554   9.824   5.577   3.802  0.0073 -0.3270 -0.0623
 1424W        W16555  13.004   0.011  14.935 -0.3765  0.0049 -0.1563
 1425W        W16556   0.906   0.804  14.497  0.2827 -0.1042  0.1501
 1426W        W16557   8.121  17.223   4.340 -0.0947  0.0309  0.0096
 1427W        W16558   6.192   5.236  12.364 -0.1684 -0.1113 -0.1491
 1428W        W16559   4.789  13.400   1.084  0.1008 -0.0675  0.0791
 1429W        W16560   3.354   6.687  12.794 -0.0835  0.1965 -0.1011
 1430W        W16561   7.627  14.672   0.584  0.2095  0.0645  0.1680
 1431W        W16562  18.412   5.725  11.047 -0.1881  0.0475 -0.2737
 1432W        W16563   4.002  17.767  15.805 -0.0780  0.1851  0.0706
 1433W        W16564   2.117  12.103  11.169  0.1894  0.0943 -0.2110
 1434W        W16565   7.843  13.043   2.820  0.0126  0.0138 -0.0340
 1435W        W16566  13.542  17.768   1.326 -0.3052  0.0217  0.1025
 1436W        W16567   7.887  13.238  12.455 -0.1761 -0.0407 -0.1788
 1437W        W16568   7.617  12.909   4.821  0.4489  0.0949 -0.0870
 1438W        W16569  18.060  17.181  14.054 -0.1062  0.3793  0.1513
 1439W        W16570   6.271  12.482  13.290  0.2058  0.1890 -0.2024
 1440W        W16571   2.928   3.799   0.864  0.0096  0.0310  0.1045
 1441W        W16572   9.621  12.806  12.948 -0.1389  0.1566 -0.0559
 1442W        W16573   5.623  16.268   2.885  0.1172  0.3172  0.0191
 1443W        W16574   5.483  18.175   2.665  0.0899 -0.1249  0.1659
 1444W        W16575  10.188  17.353  11.339 -0.2743  0.1111 -0.3636
 1445W        W16576   2.094   8.504   0.187  0.0433  0.1647  0.3117
 1446W        W16577   5.288  16.559  14.154 -0.1096 -0.1085 -0.1097
 1447W        W16578   7.546   4.662  10.931 -0.1537 -0.1083 -0.0233
 1448W        W16579  14.389   4.650  11.253  0.1204  0.4932 -0.0366
 1449W        W16580   3.464   6.256   5.203  0.1975  0.2563 -0.4229
 1450W        W16581   9.405  18.354  14.496  0.1451 -0.1187 -0.0481
 1451W        W16582   1.759   6.255  11.898  0.1259  0.1713 -0.0273
 1452W        W16583  11.498  17.320   2.555 -0.0952 -0.0706  0.1503
 1453W        W16584   9.202   5.903  15.485 -0.2217 -0.0728 -0.1082
 1454W        W16585   0.398  15.701   4.091 -0.3166 -0.1701  0.1696
 1455W        W16586   4.396   8.700   0.917  0.2122  0.0704 -0.1280
 1456W        W16587  13.415   8.557   1.903  0.1921  0.4197  0.2565
 1457W        W16588  11.098   8.645   5.766 -0.0166  0.2516 -0.4639
 1458W        W16589   4.844   9.350  15.892  0.0599  0.2470  0.3036
 1459W        W16590   6.643  15.366   0.144 -0.1029  0.4238  0.0909
 1460W        W16591  17.257   4.966   5.271  0.0257  0.2333  0.1856
 1461W        W16592  16.860  17.071  12.174  0.0603  0.1568 -0.3702
 1462W        W16593  15.827   3.525  11.185  0.1291 -0.0280  0.1026
 1463W        W16594  14.049   8.592  14.039 -0.0881  0.0211  0.1674
 1464W        W16595  14.178  16.570  12.513  0.0238  0.0822  0.0896
 1465W        W16596   3.375   3.987   4.291  0.1112 -0.2692  0.0205
 1466W        W16597   6.687  18.321   2.765 -0.2113 -0.0540  0.2575
 1467W        W16598  15.848   1.072  13.675 -0.1421 -0.1266  0.0590
 1468W        W16599  13.698   7.982   5.549  0.1001 -0.0708  0.0394
 1469W        W16600  17.049  12.666   1.469  0.2622 -0.1865  0.2061
 1470W        W16601   9.313   1.913   0.937 -0.1646 -0.1453 -0.1987
 1471W        W16602   2.417  17.944   0.005  0.0588  0.1369  0.2146
 1472W        W16603  17.648   4.008  12.237 -0.2370 -0.1402  0.1514
 1473W        W16604   3.285  15.089   3.793 -0.1257 -0.0645  0.2917
 1474W        W16605  11.461  16.335   1.685  0.0053  0.3751  0.0117
 1475W        W16606   0.362   9.697  11.641 -0.0150 -0.1816 -0.0635
 1476W        W16607  12.194  13.202  15.374 -0.3339  0.2888 -0.1292
 1477W        W16608   1.794  16.555   0.213  0.1399  0.2143  0.1771
 1478W        W16609  11.896  12.342  13.856  0.1750 -0.2583  0.0823
 1479W        W16610  12.859   3.671  13.261  0.0793  0.2695 -0.0401
 1480W        W16611   1.224  11.563  13.317  0.0769 -0.0188  0.3004
 1481W        W16612  14.582  14.305   2.548  0.0502 -0.0786  0.1994
 1482W        W16613   9.799   4.476  11.052  0.1328  0.0772 -0.2019
 1483W        W16614  16.676  18.316   2.253  0.2851 -0.1622 -0.1138
 1484W        W16615   4.402  18.161  15.895 -0.2298  0.0022 -0.3501
 1485W        W16616   0.001   2.882  11.046  0.1235  0.5402 -0.0318
 1486W        W16617   5.616   6.877   4.142  0.1268  0.0878 -0.2716
 1487W        W16618   0.258  11.954  11.933 -0.1404 -0.1011 -0.2839
 1488W        W16619  17.436   2.259  12.829  0.0792 -0.2742  0.0368
 1489W        W16620   0.843   8.268  11.884  0.1431  0.2778  0.0208
 1490W        W16621   0.585   0.595   9.266 -0.2001 -0.1583  0.1287
 1491W        W16622  13.668  15.916   4.967  0.2518  0.0589  0.0044
 1492W        W16623   6.928  16.553  14.947 -0.0951  0.0836  0.3424
 1493W        W16624   0.432  18.291  15.757  0.0278 -0.0064  0.1471
 1494W        W16625   5.297  12.682   0.546  0.0563 -0.1599 -0.1863
 1495W        W16626   0.203   8.645   4.825 -0.0163 -0.2952 -0.0462
 1496W        W16627   4.802   4.368   3.895 -0.0328  0.1367 -0.0733
 1497W        W16628  17.132  13.819  11.636  0.0306 -0.1220 -0.0667
 1498W        W16629   5.933  10.222  15.958  0.2810 -0.0793 -0.0334
 1499W        W16630   8.983   0.146   1.304  0.0182  0.1890  0.0735
 1500W        W16631  13.679   4.572   3.354  0.0656 -0.0717  0.2288
 1501W        W16632  16.259  16.633  11.251  0.0643 -0.1160  0.0644
 1502W        W16633   9.001   3.807   1.925  0.4044 -0.4362 -0.1115
 1503W        W16634  16.848   2.767   1.934 -0.1216 -0.1106  0.0255
 1504W        W16635  18.252   8.674   0.920  0.0591  0.0316  0.1734
 1505W        W16636   4.161   1.412   1.385 -0.0969  0.2642  0.1130
 1506W        W16637   9.597   0.650  14.902  0.1206  0.0405 -0.4464
 1507W        W16638  10.247   9.295   2.408 -0.0089  0.1347 -0.0377
 1508W        W16639  16.909   7.090   5.909 -0.4468 -0.7038  0.2440
 1509W        W16640  10.146   4.807  11.260  0.1239  0.1306  0.1068
 1510W        W16641  17.196   7.649  15.005  0.1874 -0.2571  0.1568
 1511W        W16642   2.013  15.457  13.404  0.1865  0.0677  0.1774
 1512W        W16643  12.539   9.190  11.820  0.3081  0.0010  0.4077
 1513W        W16644  14.550  15.253  13.100 -0.0930  0.1624  0.1686
 1514W        W16645  16.732  10.897  13.370  0.3779 -0.0269 -0.2317
 1515W        W16646  12.453   4.014   2.254  0.2836  0.0751 -0.3816
 1516W        W16647   3.359  13.949  14.535 -0.2574 -0.1812  0.0398
 1517W        W16648   6.534  15.478   1.388  0.2911 -0.0351 -0.0704
 1518W        W16649   3.867  14.654  11.452 -0.2595 -0.0947 -0.0486
 1519W        W16650   5.322  10.048   4.845  0.1005  0.3989 -0.0723
 1520W        W16651  15.341  17.554   3.344 -0.1301  0.1102 -0.1547
 1521W        W16652   9.867   4.870  13.535 -0.2588 -0.0562 -0.1226
 1522W        W16653   4.172   6.082   2.779 -0.1748  0.0320  0.1379
 1523W        W16654  17.884  15.295   4.973 -0.3871  0.1431 -0.0555
 1524W        W16655   1.935   4.036   5.627 -0.0120 -0.1713 -0.0831
 1525W        W16656   4.397   5.902  13.706 -0.2401  0.0645  0.4416
 1526W        W16657  15.435   5.504  13.191  0.4733 -0.0896 -0.0633
 1527W        W16658  13.609   4.345  15.404 -0.2678 -0.1815 -0.1451
 1528W        W16659   8.562   9.125   3.138  0.1067 -0.4395 -0.1578
 1529W        W16660  14.546   4.416   3.367 -0.3217  0.3597 -0.0572
 1530W        W16661  14.630   5.271  11.990  0.1648 -0.2023  0.5075
 1531W        W16662   8.521   3.166   5.093 -0.1174 -0.0617 -0.1577
 1532W        W16663  13.367  18.406  15.284  0.0504  0.0046 -0.0567
 1533W        W16664   5.916  16.854   3.486  0.1595 -0.1154  0.0099
 1534W        W16665   4.501  14.323  10.337 -0.0389 -0.0972 -0.2593
 1535W        W16666   9.388  16.177  12.923  0.0162  0.1431 -0.2974
 1536W        W16667   9.510   1.693  11.424 -0.0017 -0.3658 -0.0491
 1537W        W16668  16.192  15.447   3.110 -0.3758 -0.4203 -0.3753
 1538W        W16669   8.285  13.548   4.760  0.1600  0.2317  0.1743
 1539W        W16670   1.015  15.974  11.097 -0.0198 -0.1081 -0.0557
 1540W        W16671   1.079   3.385  15.940  0.3138  0.2030 -0.1821
 1541W        W16672   6.121   6.658   3.856  0.0541 -0.1265 -0.1872
 1542W        W16673   9.543   5.683   1.272 -0.1851 -0.1290  0.0501
 1543W        W16674  15.890   7.191  14.912  0.1408 -0.0203 -0.0911
 1544W        W16675  13.057   3.436   1.684 -0.3700  0.1169  0.0846
 1545W        W16676   8.002  14.735  15.379  0.1254 -0.1377 -0.1412
 1546W        W16677   9.815   5.270  11.521 -0.3824  0.0802 -0.2800
 1547W        W16678  10.600   1.668   3.447  0.2666  0.0457 -0.0947
 1548W        W16679  16.702   8.880  12.609  0.1081  0.1296 -0.0736
 1549W        W16680  12.908  13.649   4.409  0.3599 -0.2840  0.2696
 1550W        W16681  10.907   4.568  15.540  0.0448  0.2475 -0.2416
 1551W        W16682   2.820  15.888  11.982 -0.1128  0.2108 -0.1985
 1552W        W16683   9.766  18.318   1.357  0.2752 -0.0901  0.0121
 1553W        W16684   0.969  14.464   2.286  0.1532  0.1255  0.5661
 1554W        W16685   4.721   5.800  12.115 -0.0174  0.0950  0.1064
 1555W        W16686  10.044   1.528   5.220  0.4199 -0.0703 -0.1440
 1556W        W16687   7.071   8.091   0.040  0.1863  0.2424  0.2358
 1557W        W16688   3.068  13.443   4.520  0.3538 -0.4818  0.0863
 1558W        W16689   2.530   6.198  15.687 -0.2029 -0.0388 -0.2959
 1559W        W16690  15.434  12.229  12.449  0.2323 -0.1513 -0.0743
 1560W        W16691   6.387   8.528  15.680  0.1361  0.1306 -0.0761
 1561W        W16692  13.313   6.753  12.170  0.1568 -0.0563  0.3204
 1562W        W16693  13.767   4.441   5.076  0.0815  0.2319 -0.0948
 1563W        W16694  15.266   7.904  10.268  0.2716  0.0487 -0.0881
 1564W        W16695  13.840  16.215  14.072 -0.2318  0.0575  0.1995
 1565W        W16696   4.031   8.094   3.893  0.2652  0.1128  0.0299
 1566W        W16697  10.159   3.322   3.008 -0.1780 -0.0854 -0.1017
 1567W        W16698  13.740   4.459   2.323 -0.0979  0.0466 -0.0781
 1568W        W16699   8.894  13.069  10.981  0.2888  0.0443  0.3352
 1569W        W16700  15.201   2.996  13.002 -0.0566  0.0534  0.0008
 1570W        W16701   3.597  17.964   2.374  0.1206  0.3307  0.0142
 1571W        W16702  17.824  13.198   0.264  0.1560  0.1039 -0.2214
 1572W        W16703   2.784  16.463  13.230  0.0528 -0.3683  0.0586
 1573W        W16704   5.549  13.365  14.037  0.1262 -0.1209  0.0587
 1574W        W16705   8.191   1.776  14.751  0.1386  0.2999  0.0456
 1575W        W16706   7.756   7.838   3.023 -0.1007  0.0163  0.0288
 1576W        W16707   1.547   5.762   4.390 -0.3544  0.3020  0.3387
 1577W        W16708  16.567  12.434   6.050 -0.2530  0.1715 -0.1996
 1578W        W16709   5.431   2.369  10.325  0.0797  0.0965 -0.1661
 1579W        W16710  16.194   4.455  15.604 -0.3893 -0.0908  0.0139
 1580W        W16711  16.947   2.567   0.616 -0.5685 -0.1495  0.3367
 1581W        W16712   4.817  10.720  15.580 -0.0999 -0.2149  0.1098
 1582W        W16713  17.521  12.903  12.475  0.3413 -0.1702 -0.2233
 1583W        W16714   1.440   4.640  15.074 -0.2173 -0.0108 -0.0205
 1584W        W16715  16.322  17.199  11.532  0.2798 -0.0564 -0.3593
 1585W        W16716  15.479  15.327   2.847  0.2574  0.3402  0.1177
 1586W        W16717  12.546  17.088  11.718 -0.2732  0.1306  0.3607
 1587W        W16718   7.344  16.720   4.693 -0.0142 -0.0895 -0.0076
 1588W        W16719   3.029  14.797  15.712  0.0293 -0.2406 -0.0563
 1589W        W16720   9.333  11.082   6.023 -0.2336 -0.0265 -0.4709
 1590W        W16721  16.108   8.578  12.599  0.0473 -0.0107 -0.0926
 1591W        W16722  10.164  14.519  14.098  0.0385  0.1917 -0.1297
 1592W        W16723  17.016  15.718   2.499 -0.4345  0.0273  0.3244
 1593W        W16724   1.232  16.442  14.395 -0.1375  0.1665  0.0551
 1594W        W16725   0.940  17.348   9.531 -0.2399 -0.3277  0.1374
 1595W        W16726   9.096   6.975  13.645  0.1867 -0.1062  0.1840
 1596W        W16727   5.738  16.778  12.219 -0.1439 -0.0915 -0.0640
 1597W        W16728   3.558   6.920   2.057  0.1209 -0.2198  0.1043
 1598W        W16729   0.213  10.266   1.717  0.1049 -0.0914  0.0295
 1599W        W16730  11.555  18.327  15.334  0.2366 -0.3172 -0.5267
 1600W        W16731  18.126  18.267  13.824  0.0202  0.0087 -0.0585
 1601W        W16732  10.960  12.876   0.924  0.0584  0.1648 -0.0958
 1602W        W16733  17.738  16.529   1.040  0.0076  0.1266 -0.2767
 1603W        W16734   7.326  13.648  13.360 -0.0509  0.1307 -0.1539
 1604W        W16735  11.712  13.583   5.477  0.0882  0.1319 -0.2968
 1605W        W16736  16.403   8.634  10.943 -0.2126 -0.2548 -0.0110
 1606W        W16737  15.592  11.201   4.174  0.3298 -0.0618 -0.3615
 1607W        W16738   0.752  15.866   3.116  0.0365  0.1267  0.1994
 1608W        W16739   6.644  17.747  12.854 -0.1102 -0.1242 -0.0544
 1609W        W16740  12.466  16.476  10.705  0.2273  0.2074 -0.3543
 1610W        W16741  10.889  15.263  10.909 -0.0240  0.4110 -0.1347
 1611W        W16742  16.479   2.216  16.001 -0.0660 -0.0264 -0.5163
 1612W        W16743  16.015   6.874   2.145 -0.4067 -0.0811 -0.1598
 1613W        W16744   7.059   7.815   1.850  0.0060  0.2356 -0.1802
 1614W        W16745   1.614   1.655   2.910 -0.3608  0.0354  0.0704
 1615W        W16746  12.919   7.013   4.477 -0.0795  0.2843 -0.0744
 1616W        W16747   6.419  17.357  10.765  0.0649  0.1574 -0.0599
 1617W        W16748   2.695   0.322  13.768  0.1743 -0.2884  0.3941
 1618W        W16749   4.688   4.237   3.432 -0.0393 -0.0670  0.0732
 1619W        W16750   0.619   9.908   6.343  0.1108 -0.1092 -0.0021
 1620W        W16751  17.278  17.979   2.872 -0.0348 -0.3859  0.0384
 1621W        W16752   1.826   0.107   5.198  0.3048  0.0934 -0.3047
 1622W        W16753   3.396   0.786  14.893 -0.2809  0.1455 -0.1965
 1623W        W16754  14.540   0.387  15.595  0.1145 -0.0214 -0.0760
 1624W        W16755   5.084   2.990   2.057 -0.1590 -0.3311 -0.3647
 1625W        W16756  14.622  16.209   0.154 -0.2028  0.0409  0.0161
 1626W        W16757  10.047  11.462   1.229  0.4287 -0.1130 -0.2116
 1627W        W16758  14.235   0.810   3.830 -0.0586 -0.3421 -0.0090
 1628W        W16759  10.898   1.513   0.110  0.0966 -0.0327 -0.1627
 1629W        W16760  15.741   8.831   4.032  0.1665 -0.0361  0.0262
 1630W        W16761   1.128   4.555  10.662 -0.1726  0.2668  0.1352
 1631W        W16762   4.312   4.709  10.580 -0.1161 -0.2294  0.3544
 1632W        W16763   3.160  10.576   1.776 -0.2479 -0.0534 -0.2322
 1633W        W16764   1.486   5.964   0.862 -0.0380  0.3193  0.0600
 1634W        W16765  16.995   7.805  13.458  0.3814 -0.1179 -0.4158
 1635W        W16766  16.740  17.283   1.682 -0.0136 -0.0518 -0.0683
 1636W        W16767   1.647   9.964   1.851  0.2336  0.0589 -0.0216
 1637W        W16768  15.826  17.025   4.955 -0.1675 -0.1023  0.0685
 1638W        W16769   6.610  16.785   0.969  0.0933  0.0462  0.0457
 1639W        W16770  11.802   3.677  14.238 -0.1420  0.0516 -0.2904
 1640W        W16771   4.589  13.714   4.485  0.1243 -0.0983 -0.2657
 1641W        W16772  18.101   7.476   2.977  0.1013  0.1476 -0.3240
 1642W        W16773  11.385   9.619   5.457 -0.1126  0.0905  0.2598
 1643W        W16774  13.701   7.198   1.244 -0.1219  0.0070 -0.0177
 1644W        W16775   3.470  15.512   1.713 -0.1577 -0.0940 -0.2383
 1645W        W16776  14.309  15.074  15.110 -0.3278  0.0752 -0.2086
 1646W        W16777  18.001  14.567   2.097  0.1856 -0.0938  0.0574
 1647W        W16778   6.452  15.413   5.280  0.2601 -0.3268 -0.0571
 1648W        W16779  17.740  13.856   3.887  0.1472  0.2868  0.3093
 1649W        W16780   9.626  10.167  15.896  0.0726  0.1465 -0.2184
 1650W        W16781   7.466   0.035   1.920 -0.1314 -0.1760 -0.2762
 1651W        W16782  11.936   6.127   3.105 -0.4491  0.1208 -0.0316
 1652W        W16783  12.644  15.231   1.511  0.2647  0.0265 -0.0983
 1653W        W16784   6.365   1.267  14.530 -0.1240 -0.5373 -0.2009
 1654W        W16785   1.026  13.642   5.016 -0.0517 -0.0226  0.0401
 1655W        W16786   2.866  18.049  12.473 -0.0856  0.0378  0.4293
 1656W        W16787  11.788   5.201  11.913 -0.1724  0.0104 -0.2444
 1657W        W16788   2.562   5.505   1.349 -0.1346 -0.2260 -0.1859
 1658W        W16789   1.947  14.247  11.503 -0.1532  0.1964  0.0316
 1659W        W16790   2.899   4.961   0.187 -0.0188  0.0570  0.1625
 1660W        W16791  12.673  15.671  12.252 -0.0276  0.0650  0.2111
 1661W        W16792   1.031  12.122   5.017  0.0094  0.3521 -0.1313
 1662W        W16793  10.658  16.067   2.682  0.1802 -0.3372  0.0794
 1663W        W16794   2.487  14.669   2.749 -0.1378 -0.1842 -0.0761
 1664W        W16795   3.102  16.856  13.461  0.2115 -0.2919 -0.0685
 1665W        W16796  18.377   3.656  15.761 -0.2580 -0.0404  0.0486
 1666W        W16797  12.292  10.051  12.845  0.1632 -0.1186  0.0470
 1667W        W16798  14.930   7.452  14.149  0.1299  0.3903  0.3711
 1668W        W16799   8.601  11.961  14.474 -0.0715 -0.3347  0.1006
 1669W        W16800   3.242   5.617  10.663 -0.0468 -0.0191 -0.0994
 1670W        W16801  13.949   3.293  15.620 -0.2128  0.1335 -0.1483
 1671W        W16802   7.898   7.523   5.505  0.3924 -0.1961  0.0904
 1672W        W16803   3.911   9.259  10.643 -0.2092  0.1620  0.1027
 1673W        W16804   6.652   1.158   0.394  0.1720  0.1493  0.0611
 1674W        W16805  16.437   4.965   2.208  0.0153 -0.1665  0.3647
 1675W        W16806  12.354  18.285   2.470 -0.1737 -0.1315 -0.4559
 1676W        W16807  17.686   7.924   2.262 -0.2464 -0.0642 -0.2379
 1677W        W16808   8.333  10.108  14.970  0.2985  0.1423  0.0877
 1678W        W16809  14.488  13.531  13.759  0.0133 -0.4819  0.0281
 1679W        W16810  10.164  17.147  15.183 -0.0811 -0.0281  0.1860
 1680W        W16811   6.717  13.586   6.070 -0.1285 -0.0764  0.0379
 1681W        W16812  15.804   0.641  11.261 -0.2792  0.1704 -0.2817
 1682W        W16813  12.186   4.609   4.176 -0.2954 -0.0738 -0.0486
 1683W        W16814  10.469  16.185   0.695 -0.0024  0.3029  0.0113
 1684W        W16815  15.611  14.552   4.088 -0.1472 -0.1194 -0.1275
 1685W        W16816  12.792   8.803   0.550 -0.0774  0.2333 -0.2565
 1686W        W16817   9.078  15.446   4.949 -0.2522  0.0605  0.2606
 1687W        W16818   5.638   4.843  10.977  0.0265 -0.0640  0.2297
 1688W        W16819  14.078  15.234   3.206 -0.2181 -0.1411  0.3466
 1689W        W16820   1.790   9.071   4.575 -0.2391 -0.0577  0.1821
 1690W        W16821   7.195   9.137   4.901 -0.4447  0.0678  0.2564
 1691W        W16822   9.250   1.811  13.833 -0.0577 -0.0247 -0.0470
 1692W        W16823  11.405   6.878  13.539 -0.0049 -0.1074  0.1279
 1693W        W16824   0.850  16.712  16.099  0.0151  0.0251  0.3623
 1694W        W16825   1.861   3.473  11.522  0.2121 -0.1530  0.0018
 1695W        W16826  15.144  17.855  13.119  0.1840 -0.1098  0.2356
 1696W        W16827   0.112   1.322   4.318 -0.1814  0.2450 -0.2051
 1697W        W16828   0.886  10.394  11.220  0.3451 -0.0625 -0.1946
 1698W        W16829   8.207   9.427  12.535  0.0535  0.1011  0.1688
 1699W        W16830  17.747  14.591  13.521  0.0378  0.0500 -0.1975
 1700W        W16831   8.546   0.260   5.632  0.1728 -0.0547 -0.0341
 1701W        W16832   4.358  15.419   1.318  0.0020 -0.1648 -0.0358
 1702W        W16833  18.411  18.299  12.862 -0.1818 -0.1472  0.3000
 1703W        W16834  11.926  12.414  14.816 -0.0756  0.1945  0.0867
 1704W        W16835  11.614  18.047   3.681 -0.1206  0.0079 -0.0776
 1705W        W16836   7.074   8.987   2.553 -0.0169  0.0038  0.0831
 1706W        W16837  15.065  11.203  14.246  0.0724 -0.0665  0.2436
 1707W        W16838   2.400  13.898  14.611 -0.2613 -0.1647  0.2328
 1708W        W16839  10.903   4.973  12.700 -0.1530  0.0057 -0.0751
 1709W        W16840  11.128   5.693   1.408  0.2764  0.3184  0.0282
 1710W        W16841   0.410  13.827   2.100  0.1394 -0.2808 -0.1495
 1711W        W16842   7.099   9.494   3.366 -0.2315  0.0132  0.1863
 1712W        W16843  15.403  10.235   2.048  0.1871  0.5081  0.1377
 1713W        W16844  14.895  17.578   4.212 -0.3640 -0.2226 -0.0900
 1714W        W16845  18.335   1.990   0.328 -0.0193  0.2468 -0.3288
 1715W        W16846  13.306  10.107   3.848 -0.0685  0.1513  0.1149
 1716W        W16847   7.215  17.933   1.967 -0.2256  0.0545 -0.2803
 1717W        W16848  11.321  14.335   2.201 -0.1937 -0.1817  0.2186
 1718W        W16849  13.209  11.460   3.176  0.3320  0.1314 -0.1586
 1719W        W16850  16.360   8.436   5.416  0.0257  0.0318  0.0131
 1720W        W16851  14.312   7.177   4.023 -0.1953 -0.0026  0.0628
 1721W        W16852  15.248   0.720   3.820 -0.2614  0.0101  0.3034
 1722W        W16853   4.059  18.202  15.103 -0.2073  0.0568  0.3736
 1723W        W16854  17.041   3.713  13.123 -0.1303 -0.0747 -0.2601
 1724W        W16855   9.213  11.622   4.288  0.1941 -0.2517 -0.1787
 1725W        W16856  13.174  16.537  13.954  0.0416  0.0966 -0.3241
 1726W        W16857   7.247   0.778   2.341  0.1892 -0.0036 -0.1031
 1727W        W16858   3.181   3.190   3.354 -0.1105  0.0162 -0.0855
 1728W        W16859   1.683  14.750  10.107  0.1853  0.1250  0.3165
 1729W        W16860   0.657  14.383   4.466  0.1501  0.1862 -0.1053
 1730W        W16861  15.596   0.724  10.742  0.0091  0.3765  0.1751
 1731W        W16862  14.481   1.556   4.308  0.0851 -0.4902 -0.0585
 1732W        W16863   5.400   3.565   0.792 -0.0070 -0.1249  0.0075
 1733W        W16864   6.368   5.382   1.217  0.1580  0.1013  0.2755
 1734W        W16865  14.031  10.659   5.545  0.1937 -0.0827 -0.2569
 1735W        W16866  15.270   9.490   0.763  0.2020  0.0248 -0.3045
 1736W        W16867  13.749   7.705  13.538 -0.0793 -0.1514  0.0002
 1737W        W16868  16.630  10.377   5.392 -0.1644  0.2574  0.3548
 1738W        W16869  17.322   9.007   4.236 -0.3205 -0.1550  0.1424
 1739W        W16870  16.817   2.637   4.176 -0.1826 -0.3104 -0.1340
 1740W        W16871  18.358   8.335  14.924  0.1822  0.1614  0.1330
 1741W        W16872   5.414   6.188  12.329  0.1977 -0.0636 -0.3247
 1742W        W16873   8.019  15.703   4.683  0.0421  0.1526  0.0521
 1743W        W16874   5.209   4.394  10.876 -0.1781  0.0510 -0.2935
 1744W        W16875   4.095  15.505  11.101 -0.1607  0.1121  0.2483
 1745W        W16876  14.152   9.914   3.966  0.0650  0.2783 -0.1755
 1746W        W16877  13.138   9.742   2.940  0.1721 -0.0521  0.2133
 1747W        W16878   0.795  15.822  10.629 -0.1039  0.0039 -0.2003
 1748W        W16879  12.214   1.940  13.914 -0.0282 -0.0109  0.1883
 1749W        W16880   5.443   1.842  13.318  0.2886  0.2067 -0.2221
 1750W        W16881   6.146   7.485   2.465 -0.0777  0.0645 -0.0501
 1751W        W16882   5.310   9.444   1.339  0.0269  0.2281 -0.0251
 1752W        W16883  12.097   8.150   2.739 -0.0178  0.0182  0.1370
 1753W        W16884  17.404  11.803  11.428 -0.2513  0.0331  0.2176
 1754W        W16885   9.636  15.006   9.564 -0.1211 -0.1514  0.3053
 1755W        W16886   3.848  15.196  12.607 -0.3286 -0.3566  0.1114
 1756W        W16887   2.754   0.090  15.708 -0.1133 -0.2374 -0.1144
 1757W        W16888  18.296  17.815   0.270 -0.0609 -0.0313  0.2062
 1758W        W16889   7.451   5.699  12.716 -0.1060  0.1577  0.0680
 1759W        W16890  11.411   4.170   2.453 -0.0861 -0.1677  0.0543
 1760W        W16891   1.885  13.928  15.501 -0.3869 -0.1027 -0.1216
 1761W        W16892   1.874   4.315   3.500 -0.0443 -0.2862 -0.1081
 1762W        W16893  16.345   3.518   3.509  0.5865 -0.1089  0.0652
 1763W        W16894   2.885   1.042  13.754 -0.1430  0.2605  0.0301
 1764W        W16895  16.530   8.357   4.048  0.1670 -0.2240  0.2027
 1765W        W16896  12.968  13.354   3.431 -0.0433  0.1335 -0.2664
 1766W        W16897   5.981   2.130  11.603  0.2181 -0.0239 -0.3140
 1767W        W16898   5.091   9.265  14.956 -0.1589 -0.0896  0.0785
 1768W        W16899  10.478  18.204  14.110 -0.1521  0.2697 -0.2881
 1769W        W16900   0.851   6.413   5.023 -0.1224 -0.1762 -0.4063
 1770W        W16901   4.675  17.396  11.110  0.2877  0.2966 -0.0899
 1771W        W16902   8.425  17.144  12.568 -0.1170 -0.3215  0.1632
 1772W        W16903  11.133   3.587   6.599 -0.0613 -0.0072 -0.0683
 1773W        W16904   1.974   8.470  13.374  0.0517 -0.0965  0.1263
 1774W        W16905  13.828   2.633   1.402  0.0390  0.0160  0.2265
 1775W        W16906  15.579   5.203   3.279  0.1603  0.2760 -0.1885
 1776W        W16907   6.179   0.673  13.432 -0.2026  0.3292  0.0837
 1777W        W16908   7.538  18.348   3.419  0.0620 -0.0493  0.4590
 1778W        W16909  18.335   3.420   2.738 -0.0851  0.0067 -0.3452
 1779W        W16910   6.579  15.831  14.309  0.0787  0.1340  0.1807
 1780W        W16911   8.898  12.115  12.704 -0.0526  0.0279 -0.2799
 1781W        W16912  11.368  15.745  15.021 -0.1799 -0.0684  0.1168
 1782W        W16913   5.474  18.145   0.361  0.0001  0.0468  0.0698
 1783W        W16914   2.626   2.304   5.294 -0.0621  0.1929 -0.2345
 1784W        W16915  12.971  14.006   0.229  0.0947 -0.0433 -0.0845
 1785W        W16916   6.587  16.357  13.453 -0.1477  0.0957  0.4691
 1786W        W16917   9.456   8.854  11.179 -0.1148 -0.1708 -0.0251
 1787W        W16918  14.179   3.693  14.311 -0.3245  0.2382 -0.0345
 1788W        W16919  10.706  15.727   0.764 -0.0777  0.1809  0.1561
 1789W        W16920   4.882   7.928   5.950 -0.0546  0.0463 -0.2039
 1790W        W16921   1.837   0.465   0.779  0.1641 -0.0725  0.2490
 1791W        W16922   7.562   8.329  14.276 -0.4427 -0.0389 -0.2315
 1792W        W16923   6.028  14.858  11.933 -0.1038 -0.0954 -0.0436
 1793W        W16924  17.872  16.022   0.916 -0.1650 -0.0152 -0.0190
 1794W        W16925  16.676  11.694   1.975 -0.0470 -0.3439  0.1787
 1795W        W16926   6.527   6.051   3.168 -0.2033  0.1342 -0.1604
 1796W        W16927  10.718   3.257  15.428  0.1080  0.1235  0.0972
 1797W        W16928   1.684   2.645  12.078  0.2132 -0.0022  0.3832
 1798W        W16929   3.211   7.212  11.785 -0.2466  0.1043  0.3663
 1799W        W16930  14.694   2.747  15.977 -0.3352 -0.1143 -0.1183
 1800W        W16931   7.616  14.038  15.190  0.0455 -0.2097  0.1145
 1801W        W16932  18.429   9.626   0.512  0.0069 -0.3147 -0.0487
 1802W        W16933   0.416   0.193  10.389  0.2509  0.0773  0.0746
 1803W        W16934   7.120   2.594   0.261  0.0613  0.0677  0.1530
 1804W        W16935   0.132  12.547   1.254  0.2442  0.2419 -0.1167
 1805W        W16936   5.936   7.658   1.157  0.1176  0.2436  0.0951
 1806W        W16937   5.642   7.704   0.157  0.2560  0.1284 -0.2661
 1807W        W16938  14.525  11.191  15.929  0.2993  0.0270 -0.0060
 1808W        W16939   9.691  13.567   2.613  0.0387 -0.1688 -0.2804
 1809W        W16940   0.851  16.877  12.406 -0.3435  0.4607  0.0230
 1810W        W16941  10.027   0.041   4.123 -0.4004  0.3801 -0.0886
 1811W        W16942   0.966   7.223   2.864  0.5315  0.0630  0.0043
 1812W        W16943   7.513   7.528  15.755 -0.0207  0.1987 -0.0709
 1813W        W16944   4.059   6.806  13.626 -0.1230  0.2926  0.1771
 1814W        W16945  16.541   6.889   2.312  0.1578  0.5322  0.1984
 1815W        W16946  12.210   6.277  15.827 -0.0841  0.4005  0.1403
 1816W        W16947   7.701   9.094  13.460  0.1597  0.0939  0.1279
 1817W        W16948  17.154  14.725  10.743  0.0070 -0.2109  0.0648
 1818W        W16949  17.547  12.947   2.183  0.0617  0.0789 -0.1536
 1819W        W16950   6.380   3.409  15.407  0.0228 -0.1851 -0.1815
 1820W        W16951   3.839   2.482   4.583  0.0153  0.1595  0.2954
 1821W        W16952   7.110  13.880  12.264  0.0627 -0.0976  0.1111
 1822W        W16953   0.038  10.570   4.548  0.3349  0.2486  0.3049
 1823W        W16954  15.559   5.577  12.217  0.2735  0.3914 -0.1768
 1824W        W16955  16.808  18.176   1.387  0.1024  0.2368 -0.1925
 1825W        W16956   2.136  17.217  13.888  0.2237 -0.1904 -0.1544
 1826W        W16957  15.327  12.703  12.452 -0.0025  0.2301  0.1883
 1827W        W16958  12.684   5.356   3.322 -0.2474 -0.3314  0.2421
 1828W        W16959  12.803   6.523   1.920 -0.1283 -0.1321  0.0152
 1829W        W16960  18.409   3.901  14.835 -0.2966  0.2127 -0.0149
 1830W        W16961   5.524   8.267  12.184 -0.0727 -0.0794 -0.1813
 1831W        W16962  17.991   3.414  12.758 -0.2157 -0.0094  0.2292
 1832W        W16963   1.744   3.257   0.032 -0.1848 -0.1247  0.0897
 1833W        W16964   3.270  15.758  12.119  0.2914 -0.1067 -0.2764
 1834W        W16965  17.876   5.131   1.673  0.2866 -0.0484  0.0144
 1835W        W16966  16.849   1.112   4.432 -0.1915  0.5882 -0.0821
 1836W        W16967   6.130   8.781   2.421 -0.1680 -0.2621 -0.3006
 1837W        W16968  17.101   1.582   2.077  0.1662  0.0485  0.2808
 1838W        W16969  18.307   2.055  13.498  0.4677 -0.0711  0.0611
 1839W        W16970   1.889  13.289   4.837 -0.1707 -0.1870 -0.1082
 1840W        W16971  11.285  13.104   0.118 -0.1743 -0.2100  0.0117
 1841W        W16972   0.019   2.475   1.790 -0.2816  0.2287  0.0986
 1842W        W16973  12.453   3.991  11.387 -0.2172 -0.3354  0.0488
 1843W        W16974  14.907   9.647   1.772  0.3389 -0.0065 -0.2247
 1844W        W16975   6.540  16.766   2.865  0.3560 -0.2133  0.0610
 1845W        W16976  16.062   6.260  12.746 -0.1249 -0.2521 -0.0324
 1846W        W16977  17.144   5.924  13.265 -0.2277 -0.1328 -0.0694
 1847W        W16978  16.796  18.440   4.390  0.1821  0.1775  0.0356
 1848W        W16979   8.661   3.490   2.073  0.0868  0.1394  0.1987
 1849W        W16980   1.046  15.722  15.501  0.2324  0.1232 -0.0912
 1850W        W16981  14.288   9.608  13.506  0.1545  0.1947  0.0558
 1851W        W16982  11.081   8.797   1.889 -0.1052 -0.0798 -0.1203
 1852W        W16983  16.613   6.633   5.850 -0.2935 -0.0535 -0.0507
 1853W        W16984   2.968  13.891   4.814  0.3433  0.1684 -0.1638
 1854W        W16985  16.985   8.470   6.153 -0.1404 -0.1830  0.0620
 1855W        W16986   5.235   3.028   2.618  0.1430 -0.3169  0.2630
 1856W        W16987   7.555  17.482  11.015 -0.0558  0.2836 -0.1873
 1857W        W16988   1.886   5.308  10.731 -0.0602  0.0597  0.1494
 1858W        W16989   1.464   8.748   1.989 -0.0180 -0.1632 -0.1008
 1859W        W16990   9.344  17.024   3.200 -0.0970 -0.0338  0.1425
 1860W        W16991   8.144   9.559   5.959  0.0798 -0.0502  0.1618
 1861W        W16992  14.657   9.794   0.442 -0.2232 -0.1049  0.0660
 1862W        W16993   2.162  12.164   4.139  0.1015  0.2356  0.0501
 1863W        W16994   7.217  13.118   0.270 -0.1710  0.0958 -0.0908
 1864W        W16995   0.829  18.084  12.667 -0.1729  0.1770 -0.0884
 1865W        W16996   2.826  12.464   2.951 -0.2017 -0.1896 -0.1116
 1866W        W16997   7.547  16.327  13.209 -0.1711  0.2428 -0.0459
 1867W        W16998  10.881   6.865   2.977  0.1533 -0.1086 -0.1595
 1868W        W16999   4.603  12.388   5.921  0.1039 -0.0893  0.1406
 1869W        W17000   3.396   5.537   5.931  0.2567  0.0655  0.0877
 1870W        W17001   1.555  13.013  14.383  0.2246  0.1195 -0.0618
 1871W        W17002   9.254  16.924   4.839 -0.1881 -0.0840 -0.1041
 1872W        W17003   1.157  10.794  12.002  0.2361  0.1027 -0.2416
 1873W        W17004   5.567  16.153   3.376  0.3262 -0.0839  0.1159
 1874W        W17005  14.022  13.471  11.782  0.3271 -0.3392 -0.1071
 1875W        W17006   8.785   7.326   5.682 -0.0076 -0.0127 -0.0354
 1876W        W17007   6.003   6.168  12.416 -0.3513 -0.1126  0.1307
 1877W        W17008  13.656   2.331   4.306  0.0448 -0.0993 -0.2170
 1878W        W17009  17.712   5.067   5.377 -0.1139 -0.0373  0.3144
 1879W        W17010  18.139   0.787   4.267  0.1773  0.4101 -0.1771
 1880W        W17011   0.820  16.480   2.046  0.4856 -0.1231  0.0430
 1881W        W17012  10.623   0.662  11.981 -0.2719  0.0853  0.0973
 1882W        W17013   5.448   9.816  14.260  0.0723  0.3566  0.0974
 1883W        W17014  16.298   8.113   3.678 -0.1120 -0.0880 -0.2495
 1884W        W17015   9.773  14.664  14.381 -0.2166  0.1783  0.2918
 1885W        W17016   2.838   6.040  12.248  0.1515 -0.3579  0.3700
 1886W        W17017  12.368   4.153   5.259 -0.1425 -0.3054 -0.3334
 1887W        W17018  14.627   2.449   1.482  0.1912 -0.0396  0.0565
 1888W        W17019  14.548   9.552  12.139 -0.2419  0.0197  0.2727
 1889W        W17020  11.574  11.643  13.346 -0.0804 -0.0989  0.1628
 1890W        W17021  16.521  17.185  12.598  0.0544 -0.0362  0.0727
 1891W        W17022   2.235  11.297   0.417  0.2146 -0.2107  0.2053
 1892W        W17023   4.019   6.971   1.833  0.5021 -0.0152  0.0353
 1893W        W17024  15.626   7.423  13.243  0.3698 -0.2622  0.0473
 1894W        W17025   6.707  10.749   5.063  0.0198  0.1509 -0.1614
 1895W        W17026  15.183  13.297   6.052 -0.3215 -0.2747  0.3779
 1896W        W17027   8.409   5.816   0.148 -0.1607 -0.4871 -0.4811
 1897W        W17028   8.090  13.704   3.869  0.0881 -0.1106 -0.0825
 1898W        W17029   2.260   5.938   4.223  0.0033  0.0006  0.1076
 1899W        W17030  15.899  10.407   4.182  0.1748 -0.1481  0.2422
 1900W        W17031   9.893  11.338  14.394 -0.1398 -0.0207  0.0863
 1901W        W17032   4.257   8.673  11.983 -0.0541 -0.2035 -0.0353
 1902W        W17033  11.208   4.932   1.962 -0.1168  0.0242 -0.0394
 1903W        W17034   5.263   6.986   1.277  0.0566  0.0268  0.1102
 1904W        W17035  15.005   9.687  10.719 -0.0917  0.0946 -0.0316
 1905W        W17036  17.957   5.379  14.656 -0.0597 -0.0348 -0.1025
 1906W        W17037   6.194  16.177  15.178  0.3693  0.1523  0.0939
 1907W        W17038   9.423   2.861  13.618 -0.2193 -0.2709  0.0657
 1908W        W17039  17.524  13.336   4.736 -0.1877  0.4290 -0.0074
 1909W        W17040   4.147   8.581   6.559  0.0281  0.1922  0.0315
 1910W        W17041  11.015  15.826   2.491  0.2204 -0.1635 -0.0593
 1911W        W17042   5.572   5.544   6.128  0.0187  0.3563 -0.1071
 1912W        W17043   2.101   7.250  14.915 -0.0941  0.4016 -0.1351
 1913W        W17044  11.032   3.930   0.953 -0.1830 -0.0216 -0.1050
 1914W        W17045   0.246   6.742  14.479  0.2207  0.1692 -0.2250
 1915W        W17046   6.342   9.678  11.533 -0.0257  0.1459 -0.0490
 1916W        W17047  10.128  14.572  12.767 -0.1571 -0.0733  0.0591
 1917W        W17048   9.029  11.921   1.136 -0.2304  0.2767 -0.0413
 1918W        W17049   2.644   1.330  12.113  0.1964  0.2382 -0.2266
 1919W        W17050  17.349   9.081   0.689 -0.1580 -0.0832 -0.3732
 1920W        W17051   5.908   9.744  12.239 -0.1293  0.0130 -0.1891
 1921W        W17052   2.149   1.058  12.133 -0.1242 -0.0325  0.2276
 1922W        W17053   1.496  15.886   2.908 -0.0892 -0.0357  0.2210
 1923W        W17054   2.188   0.106   1.142  0.0098 -0.1970  0.0108
 1924W        W17055   2.024  16.224   1.409 -0.0495 -0.2666  0.0685
 1925W        W17056  12.886   4.250   2.086  0.0016  0.3416  0.0950
 1926W        W17057  15.283  15.892  11.108 -0.1217 -0.4321  0.0714
 1927W        W17058  17.883   7.593  13.661  0.0170  0.0647  0.0398
 1928W        W17059  14.369   0.079   5.100 -0.0355  0.3321 -0.0811
 1929W        W17060   0.706   5.211  13.517  0.0220 -0.1382  0.0501
 1930W        W17061   6.898  14.613   4.132 -0.1134 -0.1334  0.0419
 1931W        W17062   6.181  15.884  13.633  0.0257 -0.0409 -0.1567
 1932W        W17063  17.579   5.303  12.965  0.2083 -0.0918  0.0576
 1933W        W17064  11.764  18.323  14.691 -0.0747 -0.2170 -0.0735
 1934W        W17065   0.699  11.360   1.622  0.0571 -0.0092 -0.4098
 1935W        W17066  15.469  13.163  13.252  0.1310 -0.0109  0.1117
 1936W        W17067  14.790   7.065   4.013 -0.0759 -0.0453 -0.1476
 1937W        W17068   7.705   9.608   2.541 -0.3345  0.0185 -0.3283
 1938W        W17069   1.102  16.210  10.494  0.1630  0.1747 -0.0824
 1939W        W17070   4.742  16.715  12.299 -0.1264  0.0657 -0.1696
 1940W        W17071  15.708   2.395   2.859  0.1120  0.1184 -0.1439
 1941W        W17072  12.544   8.889  15.409 -0.0238  0.1546 -0.0058
 1942W        W17073   4.093   9.830   3.950  0.0716 -0.2089 -0.1580
 1943W        W17074   2.904   4.080   3.388  0.1041 -0.3074 -0.0150
 1944W        W17075   2.849   0.057  14.650  0.1915 -0.1380 -0.1159
 1945W        W17076  16.267  13.354   0.011 -0.0968 -0.2748  0.1164
 1946W        W17077   9.685  14.471   5.303  0.1937  0.1229  0.1298
 1947W        W17078   4.464  11.248   0.332  0.1796 -0.0534  0.0657
 1948W        W17079  12.608   5.617   5.365 -0.0662  0.1989 -0.1003
 1949W        W17080   4.913  10.976   2.181  0.3905  0.0123  0.2373
 1950W        W17081   8.371  12.187   0.007 -0.1586 -0.1168  0.0349
 1951W        W17082   8.552   9.872   1.396  0.0123  0.0995 -0.1542
 1952W        W17083  17.993   2.184  13.032 -0.0839  0.0314  0.1883
 1953W        W17084   8.381  17.963   1.434 -0.2003 -0.2099  0.0577
 1954W        W17085  11.445  10.485   5.075  0.0133 -0.1431  0.1283
 1955W        W17086  13.552  16.767   4.113 -0.1465 -0.0119  0.0163
 1956W        W17087  15.479  15.133   4.951 -0.1382 -0.1944 -0.0142
 1957W        W17088  16.884  14.969  11.138 -0.0070  0.2325  0.3389
 1958W        W17089   9.480  10.757   1.903 -0.0347 -0.1100 -0.1470
 1959W        W17090   7.066   1.204  15.783 -0.0340 -0.3276  0.0337
 1960W        W17091   2.707   7.038   5.121 -0.0105  0.1782 -0.0070
 1961W        W17092   1.341  14.045   1.123 -0.1198 -0.3891 -0.1202
 1962W        W17093   7.253   2.742  10.725  0.1047 -0.5087  0.2377
 1963W        W17094  16.515   8.900   0.545 -0.1560  0.2369  0.0223
 1964W        W17095   2.485  10.155  12.650 -0.3728 -0.0521  0.2667
 1965W        W17096   4.481   6.900   5.619 -0.2778  0.0706  0.1031
 1966W        W17097  16.042   4.494   0.572  0.1031 -0.1265 -0.3381
 1967W        W17098   1.016  11.061   5.515  0.1499  0.1399 -0.0025
 1968W        W17099  11.953   2.675   3.531  0.0952 -0.5188 -0.0033
 1969W        W17100   9.338   3.685   4.062 -0.0349 -0.1741  0.1992
 1970W        W17101   2.376  11.161   0.909 -0.3398 -0.2017  0.0120
 1971W        W17102   3.142  16.221   0.166 -0.4031 -0.1922  0.0803
 1972W        W17103  13.290   5.147  14.507  0.0741  0.1101  0.1460
 1973W        W17104  15.029   5.884   4.311 -0.2177 -0.0212 -0.1153
 1974W        W17105   8.806  13.248   0.797  0.0777 -0.3679 -0.0738
 1975W        W17106   8.176   6.688  14.843 -0.3211  0.0745  0.1719
 1976W        W17107   1.415  17.843  16.075 -0.2722 -0.1418 -0.2887
 1977W        W17108   5.936  10.118   0.654 -0.0317 -0.0676 -0.2086
 1978W        W17109   4.921   0.741  11.283  0.2150  0.0877  0.1371
 1979W        W17110   3.244  12.338  12.920  0.1026 -0.2182  0.0772
 1980W        W17111  16.665   9.384   1.361 -0.2927 -0.1801 -0.0085
 1981W        W17112   3.770   6.896  12.538 -0.1161  0.1670  0.3030
 1982W        W17113  16.572  11.646   3.820 -0.2811  0.1338  0.0867
 1983W        W17114   7.316   3.870  15.971 -0.2059 -0.1392  0.1756
 1984W        W17115   7.343   2.574  14.063 -0.1060  0.2834 -0.1754
 1985W        W17116   1.285   2.581   4.714 -0.2598 -0.1910  0.0912
 1986W        W17117  16.758   3.887   3.420 -0.1111 -0.2068 -0.0894
 1987W        W17118  12.347  11.000   1.486 -0.1191 -0.2435  0.3955
 1988W        W17119   7.431  13.393  11.479 -0.1433  0.1723 -0.0529
 1989W        W17120   6.569   5.462   2.850 -0.1657 -0.0947  0.3108
 1990W        W17121  10.718   1.330   1.481  0.0754 -0.0752 -0.1897
 1991W        W17122   3.708   3.748   0.610 -0.2100 -0.2476 -0.2755
 1992W        W17123   7.288  12.793  14.714 -0.2443 -0.2279  0.1617
 1993W        W17124  15.129  11.909   3.325 -0.3602  0.1250  0.1930
 1994W        W17125   7.223   3.424  11.530  0.1509 -0.1225 -0.0052
 1995W        W17126  10.731   8.414   4.826  0.1454 -0.2034 -0.3699
 1996W        W17127   3.658   0.147  15.407 -0.0159 -0.1762  0.1579
 1997W        W17128   3.806  10.050   4.311 -0.1618  0.1003  0.1761
 1998W        W17129  11.856   7.359   0.898  0.0731 -0.0548  0.1774
 1999W        W17130   9.527   4.486   4.534 -0.3055 -0.0981 -0.0613
 2000W        W17131   2.598   3.318  12.932  0.1817 -0.5176  0.3172
 2001W        W17132   0.535  17.712  12.470 -0.2242 -0.4251 -0.2052
 2002W        W17133   2.940   8.602   3.010 -0.0577 -0.2151 -0.0268
 2003W        W17134   8.077  12.048  14.460  0.3598 -0.3481 -0.1226
 2004W        W17135  10.664   5.479   0.514 -0.1382 -0.2699  0.2706
 2005W        W17136  18.430   9.710  11.846  0.3217  0.0930 -0.0630
 2006W        W17137  13.953   4.198   1.996  0.0907  0.0036  0.1060
 2007W        W17138  14.895  18.421  15.686 -0.1724  0.0904  0.4219
 2008W        W17139   4.591  16.556  16.031  0.4192  0.1173 -0.1363
 2009W        W17140   1.858  17.911   3.323  0.3094 -0.2159  0.3447
 2010W        W17141   9.671   1.593  13.257  0.3071 -0.2000  0.3762
 2011W        W17142   3.435   5.051   4.880  0.0476 -0.0726  0.0135
 2012W        W17143  16.454   0.615   1.292 -0.0480  0.4168  0.0020
 2013W        W17144   2.562   6.984   3.330  0.0824 -0.2153  0.0488
 2014W        W17145   3.799  15.898   4.433  0.1718  0.1089  0.1750
 2015W        W17146   5.925   3.219  13.748 -0.2462  0.0558  0.1666
 2016W        W17147   6.259  13.270   6.240  0.3452  0.1143 -0.2782
 2017W        W17148   0.798  11.487  12.360  0.0649  0.1473 -0.4093
 2018W        W17149   1.006  11.425  15.196  0.1138 -0.0491 -0.0497
 2019W        W17150  10.483   7.406  13.864 -0.0399 -0.2049 -0.0089
 2020W        W17151   5.691   1.873  12.458 -0.2747  0.1840  0.0350
 2021W        W17152   5.575  13.164   3.671  0.1528 -0.4639  0.2240
 2022W        W17153   3.568   2.945  10.493  0.0271  0.6229  0.0894
 2023W        W17154   6.558   0.523   0.321 -0.0527 -0.1357  0.2190
 2024W        W17155  11.588   1.632   2.737  0.1113 -0.2992 -0.0589
 2025W        W17156   1.873  12.249   2.044 -0.2454 -0.2248  0.1496
 2026W        W17157  16.401   5.778   2.578  0.2007  0.2595  0.0669
 2027W        W17158   5.930  10.892   5.371  0.0311 -0.0121  0.3492
 2028W        W17159  17.831  15.881   1.857 -0.0023 -0.2340  0.0382
 2029W        W17160   8.101   8.809  11.744  0.1181 -0.5206  0.1428
 2030W        W17161   6.084  14.834   0.066  0.1741 -0.0870 -0.1406
 2031W        W17162  12.171  14.739   4.207  0.0404  0.3326  0.0965
 2032W        W17163   6.693   1.742   2.421  0.0734  0.1345  0.2708
 2033W        W17164   9.118  11.748  10.869  0.0492 -0.1083 -0.1548
 2034W        W17165   5.633   5.175  13.407 -0.1575 -0.0278  0.0173
 2035W        W17166   2.527  14.828  14.323  0.1975  0.1761  0.0131
 2036W        W17167  14.994  10.212  15.522 -0.1367 -0.1298  0.0675
 2037W        W17168  10.610  14.252   4.767 -0.0041 -0.0149  0.0534
 2038W        W17169   8.819   9.947   0.266 -0.1777 -0.1808 -0.2848
 2039W        W17170  17.668   7.239   0.323 -0.2670 -0.0064  0.0715
 2040W        W17171  15.178   2.518  13.140 -0.0837  0.1085  0.1716
 2041W        W17172   1.923  13.953  10.593  0.1022 -0.0414 -0.0931
 2042W        W17173  11.655   1.010   0.484  0.2202 -0.0731 -0.3827
 2043W        W17174  15.944  18.032  12.643 -0.4072  0.1521 -0.2011
 2044W        W17175  17.443   3.751  13.519 -0.2738 -0.2659  0.0665
 2045W        W17176  12.985   4.448   2.974  0.5433  0.0173 -0.1156
 2046W        W17177   5.567  12.588  10.916  0.2120  0.3528 -0.0527
 2047W        W17178  10.198   5.108   1.369  0.1103  0.4453  0.0271
 2048W        W17179  16.547   9.210   2.861 -0.4691 -0.1216 -0.4824
 2049W        W17180  18.135  17.146  15.825  0.2919 -0.3445  0.1339
 2050W        W17181   9.335  13.372  10.428  0.1457 -0.2607  0.0371
 2051W        W17182  12.028  16.046   1.643 -0.1060  0.0254 -0.0807
 2052W        W17183   1.673  12.178   2.560 -0.0789 -0.0499 -0.0334
 2053W        W17184  12.156   3.040   5.360  0.0402  0.1053  0.0966
 2054W        W17185  12.068  14.101   2.619  0.1964  0.2633 -0.0872
 2055W        W17186  12.894   1.187   3.281 -0.1739  0.0444  0.3118
 2056W        W17187   6.185   0.470   5.018 -0.1596  0.1065  0.1037
 2057W        W17188  17.789   7.160   4.015 -0.1021  0.1784 -0.1533
 2058W        W17189  10.333   5.541  14.688  0.1042 -0.0964 -0.1023
 2059W        W17190  14.007   9.717   3.407  0.0078  0.1118  0.0396
 2060W        W17191  14.345  12.442   1.560  0.1553  0.1908  0.0726
 2061W        W17192  16.190   2.895  12.218 -0.1031  0.0317 -0.1373
 2062W        W17193  15.518  14.958  14.756 -0.3621  0.1595  0.0186
 2063W        W17194  15.225   3.368   0.048  0.1645  0.0681  0.1837
 2064W        W17195   1.954  15.771   4.864  0.2204 -0.1072  0.0210
 2065W        W17196  13.465   3.688   3.551 -0.0026 -0.0007  0.0094
 2066W        W17197  18.398  14.925  15.895  0.0619 -0.0147 -0.1044
 2067W        W17198  14.511   9.326   0.159 -0.1925 -0.2598  0.1548
 2068W        W17199   7.339   5.842  13.999 -0.2464 -0.1842 -0.0204
 2069W        W17200   3.282  10.958  13.674 -0.2571 -0.0191  0.0880
 2070W        W17201   5.011  13.299  15.630 -0.0395 -0.1839 -0.2550
 2071W        W17202   9.299   3.645   2.714  0.1950  0.0056  0.1696
 2072W        W17203   3.480   3.042  15.959  0.2874 -0.0916 -0.1491
 2073W        W17204  18.380   9.970   5.608  0.2930  0.0055 -0.1457
 2074W        W17205  12.135   7.600   3.407  0.0503 -0.0802  0.1953
 2075W        W17206   1.318  11.534  13.848 -0.3124 -0.0605 -0.1409
 2076W        W17207   1.761  12.962   3.933 -0.2333 -0.2686 -0.0562
 2077W        W17208  10.187   9.210  13.318 -0.0745  0.1052  0.0845
 2078W        W17209   4.543  16.658   1.803 -0.3633  0.0362 -0.0572
 2079W        W17210   2.635  16.289  14.370 -0.0102 -0.3764  0.3238
 2080W        W17211   5.170   5.326   1.834  0.0976  0.0521 -0.0709
 2081W        W17212   3.768   7.595  11.099 -0.1223  0.0845 -0.0946
 2082W        W17213  14.630  13.700   0.130  0.1449 -0.3998 -0.2092
 2083W        W17214   3.834  10.817  11.633  0.2977 -0.5746  0.4577
 2084W        W17215   9.377   5.531   2.943 -0.2430 -0.1363  0.2236
 2085W        W17216  11.090   3.388   3.956  0.1020 -0.3273  0.0403
 2086W        W17217   8.013  11.297  11.048 -0.0080  0.1868 -0.1232
 2087W        W17218   9.905  11.247  12.847  0.4166  0.2289 -0.0029
 2088W        W17219  14.926  15.882   2.900  0.0436  0.1014 -0.1667
 2089W        W17220  14.318  12.694  14.544 -0.1344  0.0576  0.2297
 2090W        W17221  10.702   1.985  16.066  0.0807  0.2688  0.2359
 2091W        W17222  17.042   7.199  14.718 -0.0155 -0.1741  0.0519
 2092W        W17223  15.302  17.734   6.210  0.0130  0.1585  0.3251
 2093W        W17224   4.881  17.473   4.247 -0.0024 -0.0342 -0.0839
 2094W        W17225   3.105   7.358  11.199  0.0219  0.0037  0.1496
 2095W        W17226   4.510   5.869   1.946  0.1101  0.2610  0.1377
 2096W        W17227   6.811   5.134   2.492  0.0938 -0.3316 -0.1812
 2097W        W17228  12.612   0.731   3.482  0.1363 -0.1284 -0.0182
 2098W        W17229  16.027  17.370  10.531  0.1528  0.0158 -0.5072
 2099W        W17230  17.016  17.482  10.942 -0.0039  0.1120  0.3757
 2100W        W17231  11.996  14.826  14.292  0.1286  0.0944 -0.0074
 2101W        W17232   0.032   5.930  14.153 -0.0121  0.1701  0.0644
 2102W        W17233   8.812   9.062   0.375  0.1443 -0.0774 -0.4625
 2103W        W17234   8.526  12.706   0.094 -0.7017  0.0339  0.2763
 2104W        W17235  13.121  13.465  12.018  0.0230 -0.0638  0.0446
 2105W        W17236  14.758   7.763  11.578 -0.3242 -0.1202  0.2618
 2106W        W17237  16.412   6.474  15.793 -0.1231 -0.0964 -0.2074
 2107W        W17238   1.818   0.465  10.744 -0.1825  0.2440 -0.3136
 2108W        W17239  16.093  16.651  12.132 -0.3980  0.0563  0.1227
 2109W        W17240  13.288   8.812  11.600  0.0295 -0.1746  0.1933
 2110W        W17241   9.154  10.614   4.588 -0.1305 -0.1183  0.2093
 2111W        W17242  14.526  10.443  15.145  0.2589  0.2462 -0.3215
 2112W        W17243   4.672   2.531  12.749 -0.0716 -0.1967  0.2015
 2113W        W17244   8.722   4.134   4.773 -0.1415 -0.1043  0.1124
 2114W        W17245  15.087   5.222   2.975  0.1371  0.0080 -0.1376
 2115W        W17246   8.687   3.585  11.977 -0.2883 -0.0155  0.0345
 2116W        W17247   3.438   3.912   2.799  0.1503 -0.0478  0.4529
 2117W        W17248  16.778  14.437  11.081  0.0759  0.0912  0.1472
 2118W        W17249  14.830   9.059   5.624 -0.1262 -0.1995  0.3588
 2119W        W17250   0.794  10.996   0.456  0.0307  0.0836 -0.0021
 2120W        W17251  15.945  15.224  14.305  0.1295  0.2815 -0.2991
 2121W        W17252   3.480  16.703  11.821  0.2208  0.0901  0.2209
 2122W        W17253  10.004   1.208   2.787 -0.1573  0.0038  0.1914
 2123W        W17254  17.222   8.998  14.518  0.0737  0.0345  0.2045
 2124W        W17255  15.229   5.958  12.241  0.1224  0.0396  0.1003
 2125W        W17256  16.321  10.434   3.599  0.1977  0.1156 -0.3980
 2126W        W17257   0.649  12.244   3.000 -0.0173  0.0266 -0.2005
 2127W        W17258  13.148   5.769  14.681  0.1146  0.0662  0.3006
 2128W        W17259   5.913   9.699   1.913  0.1623 -0.0327 -0.1201
 2129W        W17260   9.439   9.093  14.169  0.0908 -0.4169 -0.4655
 2130W        W17261   6.159  10.428  14.041  0.1369 -0.2066 -0.1908
 2131W        W17262   6.723  11.354   2.097  0.1372  0.2393  0.0036
 2132W        W17263  16.403   4.490   2.357  0.2817 -0.0555 -0.0618
 2133W        W17264   7.903   4.989   5.027  0.0599  0.2087 -0.0586
 2134W        W17265   4.233   8.360   2.246  0.2339  0.1353 -0.0452
 2135W        W17266   3.098   0.912   4.400 -0.1468  0.0203 -0.1305
 2136W        W17267   3.651  10.807  15.307 -0.3033  0.0736 -0.0420
 2137W        W17268   9.645   7.674  14.733 -0.2865 -0.0392 -0.3599
 2138W        W17269  15.402  12.599  13.364  0.0424 -0.1424 -0.1359
 2139W        W17270   3.786  13.715   3.820 -0.4749  0.0964  0.2236
 2140W        W17271   7.325  18.134   3.889  0.0220 -0.0539  0.3444
 2141W        W17272   5.634   9.188   0.677 -0.0645  0.1792  0.2412
 2142W        W17273   2.844   7.589  10.841  0.1164 -0.0486 -0.1399
 2143W        W17274  12.767  13.620  13.843  0.0810 -0.0799  0.0255
 2144W        W17275  11.056  16.661  11.041 -0.0096  0.1518 -0.1167
 2145W        W17276  11.295  18.427   2.626 -0.3420  0.0636  0.0575
 2146W        W17277  12.182   8.779  12.504 -0.2095 -0.1955 -0.2122
 2147W        W17278   1.602  17.675   1.486  0.1170 -0.0049 -0.1500
 2148W        W17279   0.881   2.826   3.967  0.0597 -0.1613  0.1230
 2149W        W17280   6.937  12.118   2.898  0.1573 -0.0235  0.0716
 2150W        W17281   2.479  11.206  15.673  0.1808  0.2828  0.0948
 2151W        W17282   2.364   9.887  15.523 -0.1224 -0.2006 -0.3221
 2152W        W17283   2.381   1.103   0.101  0.0273  0.3742  0.2943
 2153W        W17284   7.275   7.294   4.717 -0.0000  0.4847  0.1055
 2154W        W17285  16.312  18.250   4.338 -0.0303  0.3416  0.1670
 2155W        W17286  16.339   4.656   6.008  0.1054 -0.2517 -0.3559
 2156W        W17287   6.326   3.376  11.955  0.1820  0.0131 -0.0684
 2157W        W17288  13.457   3.450  13.937 -0.1492 -0.2514  0.2886
 2158W        W17289   4.970  13.571   3.048  0.3992  0.2263 -0.1358
 2159W        W17290   3.143  11.404  13.664  0.1142 -0.3906 -0.3901
 2160W        W17291  14.263  10.705  10.321  0.1153 -0.0656 -0.1580
 2161W        W17292  12.201  14.393  15.158 -0.2027  0.3903  0.2662
 2162W        W17293  16.491   3.913  11.563  0.0795  0.2004  0.0849
 2163W        W17294   6.403   5.771  15.615  0.1913  0.4240  0.2792
 2164W        W17295  17.024  14.356  11.558  0.0717  0.0065  0.3635
 2165W        W17296  16.197  10.559   0.974  0.1329  0.1751 -0.1857
 2166W        W17297   1.688   5.936  14.431  0.0578 -0.2433 -0.1101
 2167W        W17298  17.164   4.899  14.690  0.2406  0.3927 -0.3214
 2168W        W17299  13.029  10.204   2.763 -0.1132 -0.0208 -0.3185
 2169W        W17300   7.091   3.022  11.131 -0.0175 -0.2188  0.0763
 2170W        W17301  14.455   2.074   3.503 -0.2466  0.1861 -0.0831
 2171W        W17302  12.998   4.644  13.214 -0.0600 -0.2079 -0.0394
 2172W        W17303   2.918  12.451  11.543 -0.0444 -0.0382  0.3849
 2173W        W17304  14.174   9.733  15.801 -0.2308 -0.0511  0.0376
 2174W        W17305  10.143   1.054  11.188  0.1457  0.1512 -0.2226
 2175W        W17306  17.821   8.971   0.734  0.1613  0.3508  0.2419
 2176W        W17307   8.978  14.686   0.160  0.1038  0.0737 -0.2645
 2177W        W17308  18.062  13.379  14.159 -0.1411 -0.1214 -0.2232
 2178W        W17309   1.474  15.590   4.875  0.2663  0.3202 -0.1835
 2179W        W17310  12.457   8.039  13.523  0.1478  0.0384 -0.3158
 2180W        W17311   0.751  15.432   9.952  0.1218  0.0020 -0.2941
 2181W        W17312   3.858   0.900  11.222 -0.0636  0.0135 -0.2263
 2182W        W17313   5.826  17.443  13.617 -0.3967  0.0112 -0.0706
 2183W        W17314   0.101   8.542   0.555 -0.0678 -0.0709  0.0455
 2184W        W17315  17.852   7.896  14.314 -0.2289  0.2180 -0.2707
 2185W        W17316   9.580  11.000   1.276 -0.0861  0.0908 -0.0586
 2186W        W17317  17.312  12.393  15.374  0.0699  0.0809 -0.1813
 2187W        W17318   7.318  10.301   4.385 -0.1077  0.0593  0.0957
 2188W        W17319   0.171   3.443  12.903  0.2447 -0.2031  0.1472
 2189W        W17320  14.748  10.964   5.314  0.1417  0.0842  0.0103
 2190W        W17321   8.411  17.169   2.133 -0.0935 -0.3759  0.0793
 2191W        W17322  10.082   7.942   4.382  0.2942  0.3210  0.1882
 2192W        W17323  17.854  10.655   5.000  0.2844 -0.2525 -0.2324
 2193W        W17324   8.890   9.371   2.870  0.3202 -0.0687 -0.1497
 2194W        W17325  12.058   1.372   6.209 -0.2019 -0.2880 -0.5545
 2195W        W17326   7.579  12.945  15.914 -0.0075 -0.1541 -0.1544
 2196W        W17327  15.948   5.930   4.070 -0.0262 -0.3523  0.1812
 2197W        W17328   2.152  13.979   4.084 -0.1946  0.1449  0.2566
 2198W        W17329   6.098   5.509   4.103 -0.2815  0.2393 -0.2579
 2199W        W17330   3.250  13.326   0.174  0.0059 -0.1673 -0.0839
 2200W        W17331   6.806  17.908   1.656 -0.2051  0.0044 -0.1270
 2201W        W17332   3.751   9.113   4.483  0.1398  0.0622  0.0903
 2202W        W17333   6.796   7.917   2.326  0.1964  0.1992 -0.1645
 2203W        W17334  12.986   9.220  12.997 -0.1482 -0.0154 -0.2966
 2204W        W17335   0.687  12.652   3.633  0.3720 -0.2637 -0.0729
 2205W        W17336  11.409   4.397  12.123  0.2554  0.2028 -0.1238
 2206W        W17337  11.473  15.266  15.187  0.2623  0.2487  0.2086
 2207W        W17338  15.435   0.415   3.271 -0.1712 -0.1386  0.1470
 2208W        W17339   9.716   5.278   1.452 -0.0531  0.0112 -0.1329
 2209W        W17340   6.004   3.466   1.566 -0.3635 -0.0719  0.2823
 2210W        W17341   8.418  15.470   2.590 -0.0082 -0.2165 -0.1873
 2211W        W17342   7.441   9.557   4.748 -0.0580 -0.0405 -0.0917
 2212W        W17343   6.464   9.373  15.712  0.2282 -0.1951  0.0610
 2213W        W17344   6.136   7.425   1.878 -0.0765 -0.1185  0.0185
 2214W        W17345   0.140   5.158  13.678 -0.1689  0.1367  0.0209
 2215W        W17346   3.467   3.684  10.964  0.1410 -0.0229 -0.2475
 2216W        W17347   6.243  15.598  14.023 -0.0895 -0.2825  0.3871
 2217W        W17348   4.801   6.437   4.633 -0.0570  0.0635 -0.0481
 2218W        W17349  12.675   2.220   5.522  0.1791  0.2743  0.1466
 2219W        W17350  10.917   2.271   1.809 -0.0404  0.1152 -0.0954
 2220W        W17351  13.286   5.422  15.519  0.1197  0.3641  0.2828
 2221W        W17352   6.156   3.327  14.624  0.0859  0.1946  0.0328
 2222W        W17353  14.070  14.611  12.691 -0.1240  0.1514  0.2718
 2223W        W17354   8.121  18.148  15.801 -0.2211  0.1582  0.0448
 2224W        W17355   2.899   5.468   0.174  0.1873 -0.1085 -0.1267
 2225W        W17356   0.362  17.522   4.327 -0.1153  0.1478 -0.0927
 2226W        W17357  15.629  10.986  12.802  0.1039  0.1033 -0.1777
 2227W        W17358   5.984   1.544  10.394  0.3596 -0.2429 -0.1197
 2228W        W17359  18.372   9.128  13.086 -0.1041  0.0543  0.1785
 2229W        W17360   5.495   2.116   3.451 -0.1082 -0.0118 -0.1551
 2230W        W17361   7.129  10.352  15.619  0.1730  0.0232 -0.0216
 2231W        W17362  18.443   0.632   1.964  0.1071 -0.2468  0.0799
 2232W        W17363   4.343  18.281  10.875 -0.0330  0.0661  0.3501
 2233W        W17364   0.050   7.566   2.241 -0.0319 -0.2011 -0.0957
 2234W        W17365  14.662  16.913   3.492 -0.1633 -0.1571 -0.0743
 2235W        W17366  13.559   6.211   4.095 -0.0354 -0.0471 -0.1597
 2236W        W17367  11.035  11.901  12.353  0.0486  0.0921 -0.5261
 2237W        W17368  10.636   4.598   3.105 -0.0252  0.1118 -0.0433
 2238W        W17369   8.962   3.453   2.965  0.1011 -0.0258 -0.1532
 2239W        W17370   1.130  12.903   0.008  0.2212  0.2609  0.2855
 2240W        W17371   8.910  17.125  11.763  0.0986 -0.1672 -0.1416
 2241W        W17372  14.589   3.881  14.466 -0.3702  0.2246 -0.0079
 2242W        W17373  16.475   2.237  12.855  0.3098 -0.0292 -0.1079
 2243W        W17374   3.998   1.217  12.289  0.2126  0.1119  0.0449
 2244W        W17375  12.802  11.947  15.727 -0.0305 -0.1159 -0.1179
 2245W        W17376  10.077   7.701  11.237  0.3048  0.0064  0.1174
 2246W        W17377  16.857   7.377   0.264  0.0628  0.1214  0.1840
 2247W        W17378  10.227   8.105  13.305  0.0221  0.0602 -0.0994
 2248W        W17379  17.702   5.304  10.965  0.1313  0.0590  0.1246
 2249W        W17380   0.862   4.242   0.554  0.1352  0.2263  0.2932
 2250W        W17381  15.994   6.419  14.266 -0.0472  0.1396  0.0761
 2251W        W17382   5.467  15.753   2.475 -0.0539 -0.2594  0.0359
 2252W        W17383   9.468   9.769   4.723 -0.0839 -0.1172 -0.1334
 2253W        W17384   2.712  15.508  15.309  0.1603  0.0330 -0.0436
 2254W        W17385  18.052  18.433  15.229 -0.1399 -0.0152 -0.1446
 2255W        W17386   3.326   9.686  15.948 -0.0223  0.3961 -0.1880
 2256W        W17387   9.585   0.082   1.939  0.0641  0.0856  0.1674
 2257W        W17388  10.859  10.087  13.692  0.0265 -0.2341  0.2067
 2258W        W17389   9.135  14.595   1.369  0.2485  0.1249  0.1012
 2259W        W17390   0.377  10.676   1.535 -0.0985  0.4932 -0.0209
 2260W        W17391   6.025   8.553   5.343 -0.1244 -0.2943  0.2617
 2261W        W17392   1.901   4.466  11.233 -0.1740  0.1159 -0.2644
 2262W        W17393   7.971   1.207  15.986 -0.0810  0.1045  0.6028
 2263W        W17394   6.299   9.344  13.065 -0.0610 -0.0648 -0.2482
 2264W        W17395   2.211  18.279  12.936  0.0565 -0.2409 -0.0758
 2265W        W17396   8.401   7.739  12.821  0.0958  0.2048 -0.0625
 2266W        W17397  13.052   7.362   2.509 -0.1745  0.1620  0.0508
 2267W        W17398  15.170   1.188  12.815 -0.1791 -0.1751  0.1347
 2268W        W17399   0.837   5.571  12.699 -0.3270 -0.0916  0.1797
 2269W        W17400   6.007   3.567   3.864  0.5316 -0.3331 -0.1194
 2270W        W17401   1.231   1.422   5.157 -0.2267  0.0070 -0.0867
 2271W        W17402  15.709  16.339  10.376 -0.3010  0.0110 -0.2111
 2272W        W17403   4.295  12.131  15.931  0.4203 -0.0030  0.1606
 2273W        W17404   7.305  11.762  15.110  0.3776 -0.1032  0.0158
 2274W        W17405   0.634   5.073   3.928  0.1284  0.1197 -0.2392
 2275W        W17406   6.514   8.358   2.301 -0.3222  0.1233  0.2302
 2276W        W17407   1.192  11.864  15.074 -0.3830  0.1833  0.0451
 2277W        W17408   8.533   4.682   0.957  0.1890 -0.0374 -0.1758
 2278W        W17409   4.942   6.126  12.434  0.3848 -0.2443 -0.2309
 2279W        W17410  12.326   2.268   1.468 -0.0827  0.1351 -0.4210
 2280W        W17411   8.737   8.179  11.575  0.0583 -0.0264  0.1716
 2281W        W17412  17.751  16.610   4.597 -0.0473 -0.2625 -0.3157
 2282W        W17413  12.310   6.005   0.524  0.3129 -0.0940 -0.0012
 2283W        W17414   7.825  14.995   5.181 -0.0647 -0.2277  0.2079
 2284W        W17415  14.803   4.811   2.185 -0.1228 -0.0255 -0.2589
 2285W        W17416   5.070   2.417   0.246 -0.3644 -0.0505  0.0484
 2286W        W17417   4.419   6.405   5.492 -0.1312  0.1725 -0.0432
 2287W        W17418   9.952   9.520   3.743 -0.0009  0.1252  0.3125
 2288W        W17419  16.712  12.736  14.194 -0.0736  0.2115 -0.0690
 2289W        W17420  12.315   8.539  14.436  0.0500  0.2746  0.3037
 2290W        W17421  14.003   2.781  15.627  0.0076 -0.1407  0.2444
 2291W        W17422   9.267  11.107   0.911  0.0393 -0.0206 -0.1901
 2292W        W17423  17.291  16.163   2.791 -0.0555  0.0809 -0.3065
 2293W        W17424   7.816   3.360  12.397 -0.2268  0.0616  0.1088
 2294W        W17425  16.448   3.214  12.585 -0.0252  0.1249  0.1505
 2295W        W17426  11.929   5.358   2.019  0.0136 -0.0884  0.3592
 2296W        W17427  17.960  12.480   4.418 -0.3147  0.0500 -0.0746
 2297W        W17428  11.464   5.501   0.084 -0.1806  0.2588 -0.1002
 2298W        W17429  13.483   5.037   4.174 -0.1910  0.0654 -0.0148
 2299W        W17430  13.965   9.698  11.636  0.0173 -0.0368  0.1289
 2300W        W17431   3.903   1.848   0.737  0.2899 -0.2969 -0.0211
 2301W        W17432  14.938   5.048   6.505 -0.2778 -0.1113 -0.0986
 2302W        W17433   8.210   9.617  13.876  0.2705  0.4480  0.1235
 2303W        W17434  11.740   3.116   5.001 -0.1172 -0.1053 -0.0252
 2304W        W17435  14.237  15.081  13.431  0.0173  0.2025 -0.0212
 2305W        W17436  18.046  15.135   4.510 -0.1242 -0.1612  0.2049
 2306W        W17437   8.421   7.283   5.218  0.2295 -0.0362  0.1507
 2307W        W17438  18.053   7.155   0.618 -0.2038 -0.0892  0.0478
 2308W        W17439   5.395   3.938   0.497  0.1186 -0.0981 -0.0135
 2309W        W17440  14.227  11.378  15.102 -0.1017 -0.0589 -0.2099
 2310W        W17441  13.756   7.623   0.303 -0.0609  0.0570  0.0466
 2311W        W17442   8.271   6.356  12.565  0.1736  0.2202  0.2841
 2312W        W17443  15.097  15.935   4.417  0.0949 -0.0817 -0.3302
 2313W        W17444  14.394   4.727  13.820  0.0603 -0.0966  0.2970
 2314W        W17445   6.755   0.821  15.481  0.0712  0.1621 -0.0835
 2315W        W17446   9.659   9.869  11.719 -0.0330  0.0496 -0.1141
 2316W        W17447  10.743  12.885   2.452 -0.0579  0.3505 -0.3071
 2317W        W17448   7.454  18.378  15.960 -0.0717 -0.1014 -0.0584
 2318W        W17449   4.623   0.080  10.493 -0.0158 -0.2452  0.2487
 2319W        W17450   6.167  12.196  14.575 -0.5603  0.0783 -0.1833
 2320W        W17451   8.903   0.238   1.807  0.0512 -0.1767  0.2903
 2321W        W17452   0.346  15.009  15.597 -0.1812 -0.0319  0.1003
 2322W        W17453   7.295   1.759  13.378 -0.0363 -0.0890  0.0945
 2323W        W17454  10.918   0.945   1.148 -0.2018  0.3952 -0.3604
 2324W        W17455  17.023  17.962   2.366  0.0421  0.0466 -0.2104
 2325W        W17456  16.219   1.741   4.760 -0.2672  0.1393 -0.1206
 2326W        W17457  18.170  16.317  10.258  0.2577 -0.0528  0.0861
 2327W        W17458   8.449   2.513  15.353  0.1531  0.2189 -0.1259
 2328W        W17459  15.115   0.117   0.418  0.2018  0.2019  0.0963
 2329W        W17460  17.850  16.309   1.557 -0.0255 -0.0886  0.1424
 2330W        W17461   8.830   0.671  14.341  0.3016  0.1907 -0.3015
 2331W        W17462   5.450   6.942   0.790 -0.1402 -0.1889 -0.1692
 2332W        W17463  13.912   0.262   0.807  0.0129  0.2174 -0.1362
 2333W        W17464  13.952   2.345   2.013 -0.3247  0.0183  0.1047
 2334W        W17465  13.216   8.594  10.608  0.1441  0.3445 -0.0437
 2335W        W17466  14.638   5.416   0.737 -0.1497 -0.1734 -0.1690
 2336W        W17467   9.377   9.303  13.039  0.1308  0.2880 -0.1052
 2337W        W17468  14.058   2.948   2.818 -0.3140 -0.0212 -0.2437
 2338W        W17469  10.169  17.582   4.582 -0.0477 -0.1044 -0.0120
 2339W        W17470  13.807   7.764  15.127 -0.2795 -0.1691  0.4456
 2340W        W17471  15.742  17.963   4.337 -0.0199 -0.0232 -0.1150
 2341W        W17472   7.799   8.543  12.468  0.0659  0.0206 -0.3928
 2342W        W17473   9.690   1.810  14.345  0.1042 -0.5002 -0.0114
 2343W        W17474   9.921  14.383  13.401  0.1253 -0.0462  0.1997
 2344W        W17475  11.866   1.103  14.259 -0.0194 -0.1234  0.0864
 2345W        W17476  15.259   8.831   5.770  0.1608 -0.0697 -0.0748
 2346W        W17477   2.785  15.533  14.518  0.3508  0.2509  0.3369
 2347W        W17478  15.765  12.335   4.732  0.0695 -0.2004  0.0062
 2348W        W17479   9.034   5.889   1.319 -0.0743  0.2930 -0.1963
 2349W        W17480   8.568  10.431   3.592 -0.3063  0.5778 -0.0117
 2350W        W17481   1.768  15.572   5.356 -0.0082  0.2821 -0.0530
 2351W        W17482  15.968   9.038  10.430  0.0246  0.2117  0.3247
 2352W        W17483   7.510  16.480   0.499  0.3585  0.1861 -0.3058
 2353W        W17484  10.097   7.093  13.562 -0.1087 -0.3097  0.2336
 2354W        W17485  11.147   0.224   3.078  0.0589 -0.1888  0.3262
 2355W        W17486   9.337   5.625  14.674 -0.3272  0.0050 -0.0376
 2356W        W17487  11.757   3.432   1.979  0.1042  0.1782  0.1758
 2357W        W17488  11.367   6.107   0.655  0.3260 -0.0305 -0.0781
 2358W        W17489  14.515  13.187   3.103  0.1756 -0.2235 -0.0441
 2359W        W17490   8.804   3.056   5.844  0.1629 -0.0995 -0.0007
 2360W        W17491  18.477  15.398  14.104 -0.4034 -0.1581  0.0309
 2361W        W17492   6.789  16.703   1.459 -0.0648 -0.0628  0.2510
 2362W        W17493  15.890  13.822  13.285 -0.1489 -0.2668 -0.3632
 2363W        W17494   4.375   0.904  13.539 -0.0536 -0.1814 -0.0324
 2364W        W17495   8.515   6.938  11.720 -0.2005  0.0336  0.0403
 2365W        W17496  12.442  14.351   3.964  0.0410  0.1896 -0.1701
 2366W        W17497   5.654  10.821  13.444 -0.0624  0.2392  0.1908
 2367W        W17498   4.800  15.944  12.650  0.0199  0.2845 -0.3572
 2368W        W17499   0.609   2.098   0.722  0.3197  0.2693 -0.0311
 2369W        W17500  10.035   9.960   3.157 -0.2424  0.1897  0.0819
 2370W        W17501   1.531   5.175   5.068 -0.1645  0.1294 -0.0248
 2371W        W17502   3.831  13.231  15.312 -0.0786 -0.1927 -0.0472
 2372W        W17503  11.399   8.954   0.928 -0.0587 -0.3181 -0.4188
 2373W        W17504   0.405   8.080  13.678 -0.1046  0.1197  0.0370
 2374W        W17505   7.760  17.744  13.547 -0.0245 -0.0088  0.2295
 2375W        W17506  18.401  17.982  15.943  0.2822  0.0696 -0.0409
 2376W        W17507   6.179   7.836  14.431 -0.0369 -0.0721  0.3261
 2377W        W17508   8.987   6.096   5.303  0.1464  0.3033  0.1195
 2378W        W17509   8.200  10.266   5.588  0.0478 -0.0009  0.2184
 2379W        W17510  18.100  17.480   9.316  0.0066  0.0059  0.0690
 2380W        W17511   2.599   7.949  14.377 -0.0019 -0.0475 -0.2772
 2381W        W17512   2.049  14.458   3.982  0.1306  0.2318  0.6419
 2382W        W17513  11.442  17.405  10.525  0.0234 -0.0001 -0.2051
 2383W        W17514  15.972  15.195  11.032  0.0020 -0.1444 -0.0967
 2384W        W17515  15.765   6.969  12.079  0.3222 -0.3917  0.0479
 2385W        W17516   7.547  13.791  15.668  0.1129 -0.2215 -0.2036
 2386W        W17517   4.115   4.379   2.843 -0.0635  0.0493  0.2039
 2387W        W17518   6.596  15.272  14.424 -0.2197  0.1890 -0.3214
 2388W        W17519  18.321  11.044  15.743  0.0463 -0.0401  0.1336
 2389W        W17520   5.593   0.258  12.971 -0.2651 -0.1489  0.2490
 2390W        W17521   3.638   1.353  13.733 -0.2333  0.2473  0.2300
 2391W        W17522  10.655  15.481   2.517  0.1539  0.1074 -0.1650
 2392W        W17523   6.490   8.603   4.872  0.0258  0.1811  0.0126
 2393W        W17524   8.462   2.467  15.816  0.2160 -0.1555  0.1586
 2394W        W17525   7.093  12.865   3.460  0.3019  0.1166  0.0353
 2395W        W17526   3.966   1.725   2.366  0.3598  0.1006 -0.1913
 2396W        W17527   7.797  13.409   2.493 -0.0236  0.0693 -0.2558
 2397W        W17528  12.138   6.334  15.064 -0.3335  0.0795  0.0891
 2398W        W17529  14.926   5.596  14.970 -0.2242 -0.0012  0.1181
 2399W        W17530  16.520  16.056  14.786 -0.0738  0.1025 -0.2346
 2400W        W17531   9.747  18.176  15.354 -0.0721 -0.3433 -0.2394
 2401W        W17532   6.130   7.436  14.028  0.1027 -0.2716 -0.1964
 2402W        W17533   3.887   1.484   4.207  0.0076  0.0946 -0.0877
 2403W        W17534  14.200   7.329   4.972 -0.2348  0.4247 -0.0778
 2404W        W17535  13.783   6.540   5.755  0.3299  0.3491 -0.2144
 2405W        W17536   4.419  11.835   3.965 -0.1764  0.0906  0.4145
 2406W        W17537   1.983   2.023   3.581  0.2138 -0.2556  0.0857
 2407W        W17538   0.392  14.700   3.687 -0.2372  0.0184 -0.0750
 2408W        W17539  10.891  13.276  11.766  0.0004  0.0789  0.1422
 2409W        W17540   2.773  17.548   2.331 -0.2145  0.1040  0.0793
 2410W        W17541   6.164   3.679   0.267  0.3077 -0.0706 -0.1754
 2411W        W17542   6.246  17.765   4.775 -0.3578  0.0858  0.0276
 2412W        W17543  14.298   5.482   3.794 -0.0436  0.0737  0.1604
 2413W        W17544   6.215   0.147  14.666 -0.0365 -0.2286 -0.0277
 2414W        W17545   4.146  15.509  15.517  0.2437  0.1315  0.2785
 2415W        W17546   3.476  11.369   3.461 -0.0872 -0.2575 -0.3208
 2416W        W17547  15.063   0.146  15.182 -0.0336 -0.1525  0.1775
 2417W        W17548   3.399   3.763   1.772 -0.2616 -0.0505 -0.0074
 2418W        W17549   2.632   4.337  15.234  0.1400 -0.0048  0.0513
 2419W        W17550   2.810   6.339   0.073 -0.3143  0.1965  0.5019
 2420W        W17551  10.879   4.224  12.841  0.0887  0.2435  0.2434
 2421W        W17552  14.590   7.651   0.773  0.0694  0.0224  0.2342
 2422W        W17553  11.867  13.516  13.825  0.0215  0.0202 -0.1328
 2423W        W17554   1.800  17.845   5.122 -0.2264 -0.1793 -0.2974
 2424W        W17555   3.663   6.348  12.615 -0.1295  0.0371 -0.1724
 2425W        W17556  14.421  10.619   4.647  0.1207 -0.2305  0.2324
 2426W        W17557   6.833  11.143   4.741  0.0117  0.2526 -0.3527
 2427W        W17558  14.115   4.812   6.177  0.1385  0.2751 -0.3286
 2428W        W17559   3.862   3.415  13.876  0.2022 -0.2307  0.1498
 2429W        W17560   0.990   5.295  15.812  0.1028 -0.0406 -0.4489
 2430W        W17561  17.877   1.472  10.964 -0.2755  0.0825 -0.0887
 2431W        W17562   0.117   8.994  12.618  0.0009  0.2077 -0.0014
 2432W        W17563   1.635  12.637   3.436  0.4661  0.1203 -0.0099
 2433W        W17564  16.100   4.664   1.728 -0.3897  0.2950  0.1669
 2434W        W17565  14.585  14.028  15.435  0.1963 -0.0365  0.3950
 2435W        W17566   5.255  12.400  13.291 -0.2602 -0.2453  0.0791
 2436W        W17567  14.355   5.073   2.867 -0.1674  0.4452 -0.2583
 2437W        W17568  16.854   4.323  12.863  0.1956  0.0727 -0.1194
 2438W        W17569   5.525   9.858   1.575  0.3385  0.1509 -0.1370
 2439W        W17570   8.148  12.648  10.745 -0.2597 -0.0121 -0.1960
 2440W        W17571   2.631   9.835   2.925  0.3620 -0.3730  0.0359
 2441W        W17572   3.783  13.866  12.181  0.0469  0.1040  0.1379
 2442W        W17573  16.184   9.980   2.026 -0.0624 -0.1210 -0.0354
 2443W        W17574  15.993  17.494   5.048 -0.2353 -0.1596 -0.1761
 2444W        W17575   9.540   8.319  10.296 -0.3658 -0.0862 -0.1803
 2445W        W17576  12.898  16.812  16.091 -0.0706  0.3204 -0.0274
 2446W        W17577   8.256  11.297  14.597 -0.0863 -0.0078  0.0857
 2447W        W17578  10.798  14.199  14.996 -0.0777 -0.0037 -0.0557
 2448W        W17579  15.657  17.385   0.960  0.3066  0.0714  0.0072
 2449W        W17580  18.262   7.515  11.199  0.0951 -0.3484 -0.1247
 2450W        W17581  14.269   6.264  15.263 -0.2359 -0.1435  0.1975
 2451W        W17582   3.116  12.650   3.327 -0.0539 -0.2870  0.2619
 2452W        W17583   2.053  13.778  12.370 -0.0963  0.1682 -0.0346
 2453W        W17584   9.673  12.494  13.758  0.0415 -0.0358 -0.0135
 2454W        W17585  13.679  10.325  14.009  0.2009  0.0157  0.1814
 2455W        W17586   2.636   4.289   0.047  0.0676 -0.2197 -0.0400
 2456W        W17587   0.133   3.758  11.624 -0.0635  0.0767 -0.1481
 2457W        W17588   2.207  10.648  15.048  0.0171  0.1220 -0.2090
 2458W        W17589  10.322  13.194  15.761 -0.2869  0.2454  0.2402
 2459W        W17590  15.566  12.194  14.361  0.0925  0.0543  0.2148
 2460W        W17591  12.130  15.032   3.214 -0.0993 -0.0786  0.3045
 2461W        W17592  15.630  11.204  12.343  0.4964 -0.0750 -0.1749
 2462W        W17593   6.918  13.081  15.879  0.2510  0.2567 -0.0036
 2463W        W17594  12.456  13.111  15.915  0.2758  0.2717  0.0593
 2464W        W17595   4.545   9.839   2.307 -0.0900 -0.1729  0.1888
 2465W        W17596  13.465   8.817  15.840  0.0922  0.4177  0.1864
 2466W        W17597   5.137  12.203   3.553 -0.1741  0.0629  0.3485
 2467W        W17598   0.224   9.523  12.994  0.1671  0.2012  0.2810
 2468W        W17599  13.762   0.159  12.566 -0.3313  0.2704  0.0108
 2469W        W17600  16.930   2.966  13.574  0.0265  0.0688  0.3996
 2470W        W17601   8.407   5.861   4.976 -0.3279 -0.0150  0.1172
 2471W        W17602   3.646   2.648  11.386 -0.0871 -0.0954 -0.0490
 2472W        W17603   7.080  13.103   4.066  0.1171  0.0042  0.1868
 2473W        W17604  14.505   6.188   6.251 -0.1018 -0.3570 -0.1695
 2474W        W17605  15.575   0.262   4.469 -0.1334  0.3847 -0.0685
 2475W        W17606  16.718  13.474  13.069  0.1267 -0.0227 -0.2453
 2476W        W17607  15.588   2.622  15.055 -0.0227 -0.1020  0.2708
 2477W        W17608  15.181  13.872  12.010 -0.2775 -0.0519  0.2726
 2478W        W17609  17.249  16.423  11.480  0.0996 -0.0828 -0.1593
 2479W        W17610   0.504   7.955   1.629  0.1352  0.2647 -0.1839
 2480W        W17611   4.650   5.076  10.683  0.3207  0.2670  0.0868
 2481W        W17612   6.956   9.435  14.634  0.1649  0.0728  0.1190
 2482W        W17613   9.217   4.613  11.670  0.1951  0.0500 -0.0125
 2483W        W17614  16.945   0.954  11.071 -0.0810 -0.0831 -0.0810
 2484W        W17615  14.604  18.368   6.330  0.0302  0.1350  0.1054
 2485W        W17616  15.024   0.508   1.481 -0.0568  0.3165 -0.1706
 2486W        W17617   7.641  13.324   0.928 -0.1469  0.2633  0.0106
 2487W        W17618   8.281   3.181   0.895 -0.1543  0.1173  0.2038
 2488W        W17619   2.306   7.694   0.565  0.1097 -0.0035 -0.0317
 2489W        W17620  13.908  17.649  13.279  0.2570  0.2008  0.1943
 2490W        W17621   9.914  17.614  16.073  0.0091 -0.1207 -0.1284
 2491W        W17622   7.604   2.058  15.735  0.2260 -0.0786 -0.0356
 2492W        W17623   1.030  14.385  10.991 -0.0699 -0.2885  0.2349
 2493W        W17624   0.174  11.034   1.825 -0.0723 -0.1103  0.0867
 2494W        W17625   9.835  13.857   5.096 -0.0712  0.0826  0.0033
 2495W        W17626  15.445  14.734   0.536 -0.0202  0.0566 -0.1075
 2496W        W17627  11.074   7.551   4.860  0.3279  0.1306 -0.1128
 2497W        W17628   4.712  18.351   3.968 -0.0969 -0.1692 -0.1105
 2498W        W17629   2.056   1.420  10.201  0.1507  0.0423 -0.1526
 2499W        W17630  12.960  15.309   1.877 -0.1849  0.0674 -0.1657
 2500W        W17631  13.213   4.501   3.526 -0.2041  0.0573  0.3068
 2501W        W17632   3.632  16.748   1.392 -0.1243 -0.1188 -0.3986
 2502W        W17633  11.296  10.744   2.478  0.0468 -0.1347  0.4739
 2503W        W17634  15.602   9.873  14.909  0.0318 -0.1075  0.0053
 2504W        W17635   0.252   5.421   3.909  0.0005 -0.2045 -0.2131
 2505W        W17636   1.461   5.068  15.801  0.1269 -0.2949 -0.0734
 2506W        W17637  17.395  13.282  13.771  0.1365 -0.3142  0.0810
 2507W        W17638  12.852   2.483  12.606  0.1134  0.0346 -0.1205
 2508W        W17639   8.129   7.903   1.864  0.0067  0.1241  0.0458
 2509W        W17640   1.737  18.212  10.332 -0.0570 -0.2322  0.0647
 2510W        W17641  12.896  11.552  14.019  0.1252  0.1979  0.0823
 2511W        W17642  11.382  13.343  14.790  0.1858 -0.1801 -0.1933
 2512W        W17643  14.312   7.961  14.201 -0.0518  0.0741 -0.0858
 2513W        W17644   0.144   5.398   0.881  0.2289 -0.0551 -0.0252
 2514W        W17645  11.654   9.321   3.580 -0.2044  0.1524 -0.1139
 2515W        W17646   4.253   1.793   2.774 -0.1665  0.0322  0.0426
 2516W        W17647   3.475   3.156  12.828  0.0373 -0.1753  0.1352
 2517W        W17648  10.291   8.589  12.582  0.1860 -0.1611  0.0824
 2518W        W17649  12.828   5.425  14.504  0.1480 -0.0960 -0.5509
 2519W        W17650  16.194   9.808  14.647 -0.0364  0.1853  0.0677
 2520W        W17651   9.205  17.363  15.985  0.1364 -0.1413 -0.1079
 2521W        W17652  11.296  17.116  11.427  0.5141 -0.1688 -0.3929
 2522W        W17653  13.891  11.628   4.509  0.0081 -0.1425  0.1990
 2523W        W17654  13.351  14.347   1.707 -0.0483  0.3177 -0.0277
 2524W        W17655  18.484  13.549  12.236 -0.1834  0.0630 -0.5349
 2525W        W17656   0.384   6.425   1.764 -0.0940  0.2382  0.0365
 2526W        W17657   1.914   1.055   3.578  0.0766  0.0244 -0.2695
 2527W        W17658   5.436   2.081   0.283  0.0480  0.1056 -0.1293
 2528W        W17659   7.877   5.204   3.963 -0.0473 -0.1735  0.0208
 2529W        W17660  11.791  14.700  12.017  0.2066 -0.0502  0.0964
 2530W        W17661   8.635  14.950   2.016  0.0286 -0.0678  0.1900
 2531W        W17662   2.640   1.777  11.413  0.1160  0.1342 -0.0139
 2532W        W17663  10.507  10.283  10.571 -0.1110  0.0243 -0.4026
 2533W        W17664  18.437  14.757   2.216  0.0193 -0.0295  0.1071
 2534W        W17665  14.470   5.148   4.166 -0.1476  0.0821  0.0883
 2535W        W17666   3.873  17.148   1.088  0.0379  0.2607  0.1811
 2536W        W17667   2.119   3.197  12.974  0.4919  0.0995 -0.1880
 2537W        W17668   9.524   5.705   5.100 -0.4028 -0.1089  0.0757
 2538W        W17669  15.853  13.820   2.936  0.0170  0.0712 -0.1237
 2539W        W17670   8.362  12.962   1.619 -0.1664 -0.1674 -0.0398
 2540W        W17671   0.129   8.027  11.219 -0.2183 -0.0432  0.2738
 2541W        W17672   8.733   9.905  14.632 -0.2074 -0.0056  0.1711
 2542W        W17673  14.248   7.785   4.656 -0.1522  0.4568 -0.0742
 2543W        W17674  11.812  14.537   4.468 -0.1661  0.2047  0.1882
 2544W        W17675  12.798   5.340   2.113  0.2686 -0.2105 -0.4244
 2545W        W17676   8.036  13.590  11.175 -0.2712 -0.1441  0.0879
 2546W        W17677   3.999   8.272  14.290  0.2523  0.1862  0.2359
 2547W        W17678   9.245   7.306  12.651 -0.1703 -0.0661  0.0287
 2548W        W17679   6.494  17.747   0.727 -0.0759 -0.1737  0.0870
 2549W        W17680   4.190  13.512   3.590  0.2433  0.0430  0.0994
 2550W        W17681   9.874   8.234   0.543 -0.3498 -0.2806  0.1312
 2551W        W17682  16.672   9.154  12.149  0.0445  0.2801 -0.0019
 2552W        W17683  12.616   4.092  14.991  0.2505  0.0124 -0.2440
 2553W        W17684   8.851   9.385  12.932  0.2035  0.1579  0.0546
 2554W        W17685  17.283   0.456   3.949 -0.1013 -0.3645 -0.0686
 2555W        W17686   3.065   3.664   3.171  0.1518 -0.4019  0.0884
 2556W        W17687   6.389  10.002   3.174  0.1281  0.1319 -0.0614
 2557W        W17688  14.600   3.795   5.567 -0.1423  0.0255 -0.0806
 2558W        W17689   9.762   9.193  11.135 -0.1722  0.0771  0.3971
 2559W        W17690   7.098  11.915   0.465 -0.0386 -0.3872 -0.1132
 2560W        W17691  16.922  12.997   0.906  0.0845 -0.2904  0.2339
 2561W        W17692  10.495   9.497   1.629  0.0530  0.0154 -0.1786
 2562W        W17693   5.513  18.163   1.062 -0.1296  0.1155  0.0829
 2563W        W17694  13.543  15.576  14.586 -0.2838  0.2041 -0.0777
 2564W        W17695  12.457  10.542  12.794 -0.1309 -0.3879  0.1842
 2565W        W17696  13.908   8.496  15.804 -0.3239  0.0079 -0.1070
 2566W        W17697   3.357   2.196  16.074 -0.4978  0.0616 -0.2480
 2567W        W17698   1.564   7.109  12.926 -0.1509  0.0529  0.0914
 2568W        W17699   5.985  12.066  13.115  0.2307 -0.0246  0.0283
 2569W        W17700   6.925  15.274   5.267 -0.1830  0.0362  0.1450
 2570W        W17701  12.391   0.941  15.222  0.6457  0.4260  0.0186
 2571W        W17702  12.046   7.693   2.439  0.1454 -0.1118 -0.2437
 2572W        W17703  18.437   8.674   1.470  0.3285 -0.0358 -0.1581
 2573W        W17704   5.412   8.868   5.512 -0.3896 -0.2551  0.0573
 2574W        W17705  17.706  16.828   1.734 -0.1636 -0.2922 -0.0283
 2575W        W17706   0.141   9.619   4.375  0.0883  0.1677  0.0101
 2576W        W17707   5.233  18.041  11.967  0.1952 -0.1050  0.2073
 2577W        W17708   9.931  18.377  12.856 -0.0176  0.3659  0.0405
 2578W        W17709   2.723  10.042  15.860  0.1280 -0.0425 -0.2138
 2579W        W17710  14.986  10.025   3.563  0.1800  0.0661 -0.1151
 2580W        W17711  17.819  17.352  14.434  0.2204  0.3101 -0.1891
 2581W        W17712  13.371  17.729   4.249  0.1611  0.0337 -0.1332
 2582W        W17713  10.174   3.280  11.413 -0.1210  0.2054  0.1076
 2583W        W17714  13.188   5.089   4.692  0.3586 -0.0327  0.0971
 2584W        W17715  17.282   2.717  13.066 -0.1544  0.1137 -0.2646
 2585W        W17716   8.503  11.462  11.064 -0.0803 -0.0094 -0.0511
 2586W        W17717  11.526  16.003  13.774  0.3112  0.0070  0.0503
 2587W        W17718  18.137   7.055   2.500  0.0169 -0.1520  0.0694
 2588W        W17719  12.991   2.134  15.440 -0.0485 -0.0628  0.3527
 2589W        W17720   4.105   9.414   3.503 -0.0577 -0.0752 -0.3066
 2590W        W17721   1.951   2.292   0.337  0.0975  0.1976  0.2635
 2591W        W17722  11.710   9.830   3.915 -0.0806  0.3284  0.0498
 2592W        W17723   1.919  10.291   0.645  0.0851 -0.0988  0.0881
 2593W        W17724  11.333  11.879  11.366  0.2735 -0.1733 -0.1767
 2594W        W17725   2.312  14.120  14.095 -0.2230  0.0574  0.1650
 2595W        W17726  10.553  15.057   4.778 -0.1673  0.0227 -0.0044
 2596W        W17727   6.046  11.072   0.742 -0.2170 -0.1826 -0.0321
 2597W        W17728  17.928  18.396   5.052  0.0928 -0.1036  0.0347
 2598W        W17729   7.584   0.757  13.991  0.2739  0.0074  0.0592
 2599W        W17730  15.656   0.509  14.215 -0.2695 -0.1543  0.1766
 2600W        W17731  14.898  18.058  14.933  0.2438 -0.1094  0.1753
 2601W        W17732   4.348  16.224   0.853  0.0242  0.1184  0.2185
 2602W        W17733   9.849  14.147  11.907  0.1137  0.0117  0.0808
 2603W        W17734   4.375   5.598  14.066  0.0829 -0.0802 -0.1777
 2604W        W17735   1.931   2.641   5.435  0.0200  0.1346 -0.0747
 2605W        W17736  12.741   9.339   3.626 -0.1835  0.1594  0.0072
 2606W        W17737   8.223   6.374  11.030  0.2586  0.2402 -0.0751
 2607W        W17738  11.499  17.771   0.161  0.0510  0.0044 -0.0333
 2608W        W17739   7.537  14.576  10.607  0.1208  0.0212 -0.0662
 2609W        W17740  12.318   7.052   5.294 -0.0986 -0.0387  0.0457
 2610W        W17741   3.216   4.852  11.635 -0.1707  0.5756 -0.0590
 2611W        W17742   3.713   9.526   4.243  0.1359 -0.1227 -0.1749
 2612W        W17743   5.895   3.479   5.064  0.1238  0.0370 -0.0115
 2613W        W17744  11.714  17.599  13.745 -0.1842  0.0483  0.0056
 2614W        W17745  13.122  12.578   5.503 -0.0292  0.1059  0.1284
 2615W        W17746   3.789   7.388  11.782  0.3167 -0.2510  0.0316
 2616W        W17747   4.307   5.792  11.453  0.0677 -0.0397  0.1468
 2617W        W17748   6.516  13.924   2.613  0.1778  0.2459 -0.1027
 2618W        W17749   1.964   8.058  10.433 -0.2094  0.2085 -0.1627
 2619W        W17750   3.408  17.755   4.533 -0.1505 -0.1051  0.1197
 2620W        W17751   6.712   9.061   5.029 -0.0126 -0.0493 -0.0466
 2621W        W17752  11.464   3.248   0.440 -0.0020 -0.0112  0.2654
 2622W        W17753  15.140   4.192   4.164  0.1853 -0.3820  0.0079
 2623W        W17754  10.314  11.799  10.945  0.1288 -0.3615  0.1259
 2624W        W17755  15.786  12.454  12.731 -0.1133 -0.1273  0.1185
 2625W        W17756   7.254   5.967   2.520  0.0418 -0.5290  0.0410
 2626W        W17757   2.270   7.270  15.490 -0.1562 -0.2730 -0.1613
 2627W        W17758  18.309  12.867  10.907  0.0640 -0.0173 -0.2367
 2628W        W17759  12.796   8.516   5.823  0.1182  0.0237  0.0102
 2629W        W17760   1.926   2.892   4.950 -0.0196  0.1631  0.1534
 2630W        W17761  15.245   6.432  14.294  0.0004  0.0324  0.0008
 2631W        W17762  17.950   2.523  12.189 -0.3050  0.0532  0.0452
 2632W        W17763  10.025  12.824  13.652 -0.0730  0.1853  0.0717
 2633W        W17764  17.899  16.603   2.676 -0.3150  0.1835  0.1101
 2634W        W17765   9.966   2.682  15.727  0.2569  0.0774  0.0515
 2635W        W17766   5.964   2.417  13.722 -0.0846 -0.0189  0.2558
 2636W        W17767   4.353   7.349  11.493 -0.0971 -0.2313  0.1998
 2637W        W17768  10.780   8.962   3.131 -0.2727 -0.0552 -0.0526
 2638W        W17769  17.205   6.110   2.296 -0.2576 -0.3033 -0.0814
 2639W        W17770   3.732   1.058  15.718  0.1103 -0.0886 -0.1305
 2640W        W17771  18.125  18.227   3.555  0.2425  0.3492  0.0071
 2641W        W17772   0.211  12.547  10.740  0.0680  0.1211  0.0803
 2642W        W17773   2.444   5.708   3.673 -0.1684  0.1440 -0.2920
 2643W        W17774  10.192   6.975   1.329 -0.0052 -0.0572 -0.2383
 2644W        W17775   5.468   1.759   4.293  0.1116  0.1033  0.0375
 2645W        W17776   7.518   6.634   1.827  0.1497 -0.2316 -0.1337
 2646W        W17777   1.267  15.737   9.874  0.0581 -0.0602  0.0790
 2647W        W17778   5.649  17.461   5.267 -0.3508 -0.1626  0.1572
 2648W        W17779   8.663  10.383   5.775  0.1450 -0.1423 -0.1880
 2649W        W17780  10.819   2.371   4.116 -0.0571 -0.2268 -0.2064
 2650W        W17781  15.341  12.487  13.846 -0.0238 -0.1508  0.0718
 2651W        W17782   8.998   7.615   4.737 -0.1144 -0.2153  0.0554
 2652W        W17783  17.684   8.820  13.749 -0.1983 -0.0851  0.4162
 2653W        W17784   6.437   8.584  15.151  0.2981  0.0620 -0.0267
 2654W        W17785   3.752  14.714  10.174  0.0343 -0.0090 -0.0647
 2655W        W17786   4.597   4.213  14.760 -0.0693 -0.2974  0.1082
 2656W        W17787  13.361  13.320  14.645 -0.1087 -0.2409  0.4536
 2657W        W17788  17.550   2.422  14.294 -0.0916 -0.3448 -0.1185
 2658W        W17789  17.841   4.065  15.638 -0.3166 -0.1619  0.3147
 2659W        W17790   5.375  10.075   0.036  0.5737 -0.3620  0.1341
 2660W        W17791   6.136   8.434   2.808 -0.0448  0.1770  0.1502
 2661W        W17792   5.530  13.859  15.010 -0.0717  0.3607 -0.0577
 2662W        W17793  16.617   5.205  13.202  0.1541 -0.0453  0.0066
 2663W        W17794  12.601   3.026  11.655 -0.4161 -0.1616  0.0389
 2664W        W17795  16.255  15.385   4.721  0.2242 -0.1236 -0.2631
 2665W        W17796   9.738  17.189  12.898  0.1074  0.2364 -0.1697
 2666W        W17797  17.258   2.029   9.892  0.4812  0.1804  0.0360
 2667W        W17798   5.662  13.289  15.080  0.1981 -0.0760  0.0616
 2668W        W17799  15.924  17.320   3.191  0.1561 -0.1837 -0.2098
 2669W        W17800   4.510   1.333   2.628  0.0391  0.0076 -0.0412
 2670W        W17801   2.532  13.193   3.206  0.0500 -0.2731  0.0117
 2671W        W17802  11.500  13.130  11.019 -0.0342  0.0152 -0.3019
 2672W        W17803  14.433   1.747  11.719  0.0132  0.2255 -0.3257
 2673W        W17804  15.522   4.731   2.449  0.0041  0.0494  0.1220
 2674W        W17805  10.881   5.954   5.197 -0.1352  0.0096 -0.1484
 2675W        W17806  13.550   9.214   4.060  0.1055 -0.3741 -0.4746
 2676W        W17807   4.421  17.889  11.146 -0.0372 -0.1251  0.4047
 2677W        W17808   3.898   9.467  12.368  0.1613  0.0570 -0.0535
 2678W        W17809  14.790  10.876  15.156  0.1030  0.0432 -0.1193
 2679W        W17810   2.457  10.390   5.120  0.1973  0.2936  0.0176
 2680W        W17811   8.700  17.774  14.538  0.0343 -0.0451  0.2520
 2681W        W17812  18.429  13.606   2.230  0.2314 -0.2067  0.0624
 2682W        W17813  11.276  12.858   2.260  0.1131  0.1835 -0.2051
 2683W        W17814  13.550  11.256  11.445 -0.0378 -0.1949  0.0698
 2684W        W17815   7.477   5.641  14.920  0.0301 -0.1052 -0.0432
 2685W        W17816   7.410  18.190   9.402  0.1437 -0.2044  0.1180
 2686W        W17817  12.553  18.217  13.479  0.1666  0.2494  0.2046
 2687W        W17818  16.935   5.634   4.904 -0.1124  0.1420 -0.1571
 2688W        W17819   9.503  16.477   3.963 -0.1274  0.3352  0.2163
 2689W        W17820  13.456  12.935   5.319 -0.2092  0.1448  0.1631
 2690W        W17821  15.736  10.668   5.514 -0.0010 -0.2414  0.0976
 2691W        W17822  13.778   2.382   5.528 -0.0973  0.2199  0.3218
 2692W        W17823   6.251   8.522   0.500  0.1367  0.0474  0.0994
 2693W        W17824   1.285   4.323  12.641 -0.3923 -0.1619  0.0467
 2694W        W17825  18.457  16.756  13.417 -0.1342 -0.2659  0.1108
 2695W        W17826   7.726   9.220   3.338 -0.1139 -0.0660  0.0921
 2696W        W17827   2.524   1.068   0.759  0.0381  0.0167 -0.1690
 2697W        W17828   9.220  16.173  13.387  0.2570 -0.0271 -0.2053
 2698W        W17829   9.046  11.394   2.963 -0.1452  0.1325  0.2156
 2699W        W17830   2.906  17.590  14.964  0.2351  0.2203  0.1149
 2700W        W17831   3.166   2.497  10.275  0.1342  0.0732  0.2406
 2701W        W17832   4.909  18.185  15.891  0.1673 -0.3309 -0.0883
 2702W        W17833   5.417   6.384   2.520 -0.2321  0.0583 -0.0442
 2703W        W17834  16.787  15.841  12.595 -0.0856  0.0423 -0.2001
 2704W        W17835   0.068  18.461  16.023 -0.1997  0.0659  0.3251
 2705W        W17836  16.325   4.227  12.605 -0.0766 -0.0120  0.0102
 2706W        W17837   7.415   8.726  15.356  0.1863  0.1963 -0.2378
 2707W        W17838   7.716  14.227   1.160  0.0535 -0.2247  0.0487
 2708W        W17839  16.007   7.916   2.368 -0.1162 -0.1581 -0.2006
 2709W        W17840   4.962  16.394   2.047 -0.2961  0.3182 -0.0836
 2710W        W17841  11.023   6.827   1.784  0.1646 -0.1756  0.1346
 2711W        W17842  12.217   7.667  14.622 -0.0975  0.1214  0.0085
 2712W        W17843  11.828   7.020   5.209 -0.1653 -0.0630  0.1162
 2713W        W17844  15.400  14.162   4.242  0.0770 -0.1068  0.0451
 2714W        W17845   2.374   1.987   3.087  0.4530 -0.1612 -0.2789
 2715W        W17846   0.784   7.931   0.622 -0.1486 -0.1811 -0.0259
 2716W        W17847  11.912   7.436  16.091  0.1179  0.2532 -0.1118
 2717W        W17848   3.102  10.466   5.936 -0.3158 -0.2450  0.0369
 2718W        W17849  17.750   6.268  11.257  0.4841  0.0741 -0.3249
 2719W        W17850   9.733  10.656   5.221  0.0168  0.1579  0.2690
 2720W        W17851   9.869   8.628  13.464 -0.2895  0.1637 -0.3679
 2721W        W17852   8.723  13.538   2.673 -0.2550  0.0324  0.0021
 2722W        W17853  16.496   6.630   1.201 -0.0641 -0.1056  0.0900
 2723W        W17854   5.736   8.243   1.311 -0.2375  0.2263  0.1140
 2724W        W17855  13.257  12.025   3.266  0.0031  0.0936 -0.3452
 2725W        W17856   0.513  17.060  15.965  0.0891 -0.0165  0.1558
 2726W        W17857  13.369   6.689  12.828 -0.0319 -0.2389 -0.2402
 2727W        W17858  15.810   7.349   1.339 -0.1196 -0.3005  0.1478
 2728W        W17859   3.815  16.032  11.432  0.0221  0.0626 -0.1198
 2729W        W17860   0.297   9.240  13.475  0.1331  0.0795  0.2038
 2730W        W17861   1.893  14.488   3.315 -0.0189 -0.0787  0.1170
 2731W        W17862   9.220   2.115  15.337 -0.1703  0.0765  0.2375
 2732W        W17863  14.159   2.932   4.303  0.2727 -0.0004  0.0504
 2733W        W17864   6.205  14.265   1.195  0.1226  0.2451  0.1242
 2734W        W17865  17.546   6.085   1.904  0.0788  0.1598 -0.0204
 2735W        W17866  15.563  16.390  12.861  0.0338 -0.1336  0.1729
 2736W        W17867   1.578   9.479  12.805 -0.3180  0.0297  0.0973
 2737W        W17868  17.037   5.665  15.053  0.0717  0.1726 -0.1281
 2738W        W17869  12.929   5.817   1.180  0.1719  0.0579 -0.3333
 2739W        W17870  12.291   7.308  15.776 -0.1560  0.1501  0.1966
 2740W        W17871  11.913   7.384  14.956 -0.0865 -0.3319 -0.0684
 2741W        W17872   9.803  15.686   2.808 -0.2299 -0.2864  0.3009
 2742W        W17873  17.862  12.308   3.196  0.2578  0.0593 -0.4159
 2743W        W17874  17.120   6.692   2.386  0.1785  0.1735 -0.0238
 2744W        W17875   4.359  10.600  14.608 -0.1586 -0.0884 -0.2007
 2745W        W17876   2.712   8.630  12.493 -0.3124 -0.1155 -0.0019
 2746W        W17877  13.077   4.457   5.442  0.1080 -0.2624 -0.1812
 2747W        W17878   3.418   4.904  16.046  0.0909 -0.0535  0.0294
 2748W        W17879  10.624  14.336  13.947 -0.0275  0.1622  0.1287
 2749W        W17880  13.013   4.690   1.141 -0.4149  0.0134 -0.1953
 2750W        W17881  15.293   9.811  15.500 -0.4605  0.0111  0.0157
 2751W        W17882   8.299  12.638  13.661 -0.1688 -0.1626 -0.0110
 2752W        W17883   3.941  15.663  10.586  0.1484  0.3406 -0.1328
 2753W        W17884  14.183  18.437   1.228  0.4853  0.2313  0.1279
 2754W        W17885  16.947   7.333  13.687 -0.0585 -0.1027 -0.1130
 2755W        W17886   1.877  14.216  13.769 -0.1982  0.4478 -0.0961
 2756W        W17887   8.099   0.341  12.224  0.0852 -0.2718  0.0026
 2757W        W17888  16.339   3.946   3.184 -0.1388 -0.0986 -0.1272
 2758W        W17889  11.159  10.273  15.273 -0.2184  0.1092  0.1795
 2759W        W17890   3.626   7.524  12.672 -0.1065  0.1781  0.3717
 2760W        W17891  16.859   4.318   1.119 -0.0820 -0.1644 -0.2032
 2761W        W17892  11.002   9.104  13.169  0.0773 -0.0720 -0.0922
 2762W        W17893  16.935   8.412  12.696 -0.0903  0.0388 -0.2268
 2763W        W17894   3.405  12.415  15.653 -0.0946  0.1101  0.2000
 2764W        W17895   7.148   3.686   1.536 -0.2474 -0.0447  0.0955
 2765W        W17896   4.837  16.033   3.721  0.0024 -0.2408 -0.0992
 2766W        W17897  15.616   7.670   3.743  0.1394 -0.0021 -0.0982
 2767W        W17898   3.435   0.295  12.983  0.0540  0.0295  0.0654
 2768W        W17899   1.244  14.813  11.974  0.1390 -0.1966  0.1570
 2769W        W17900   1.506  15.607  11.365  0.0289  0.4111 -0.2862
 2770W        W17901   7.882   3.324   2.618  0.1175  0.1790  0.2370
 2771W        W17902  12.552  10.875  12.100 -0.0365 -0.1134 -0.0637
 2772W        W17903   3.509   6.260  11.907 -0.0302  0.3086  0.1520
 2773W        W17904  10.681   9.090   1.411 -0.4855  0.0460 -0.0193
 2774W        W17905   9.748   1.490  14.843  0.0014 -0.0253 -0.0779
 2775W        W17906  12.931  16.106   3.847  0.1391 -0.0823  0.0911
 2776W        W17907   1.190  12.435   0.294 -0.0244  0.3539  0.0114
 2777W        W17908   2.178   1.356   0.528 -0.1322  0.1066 -0.2556
 2778W        W17909   1.017   4.957  11.461 -0.1489 -0.0525 -0.4662
 2779W        W17910   2.319  18.209  10.363 -0.1149 -0.3380 -0.5118
 2780W        W17911  13.840   1.519   5.035  0.0275  0.2885 -0.2708
 2781W        W17912  16.810   2.959   2.361 -0.0650 -0.0550  0.1488
 2782W        W17913  17.412  11.264   0.814  0.0681 -0.1654  0.0227
 2783W        W17914   9.991  11.429   2.523  0.0355 -0.1850 -0.1753
 2784W        W17915   8.865  10.543  14.946 -0.5712  0.1030  0.2635
 2785W        W17916  16.347  16.217  12.180 -0.2308  0.0214 -0.1796
 2786W        W17917  17.394   2.190  10.945  0.0028 -0.1170  0.2077
 2787W        W17918   7.555  11.881   2.177  0.0725 -0.2080 -0.1097
 2788W        W17919  18.146   3.993   3.414  0.1251 -0.0203  0.0130
 2789W        W17920  12.922   4.124   0.329 -0.0332 -0.0511 -0.2404
 2790W        W17921   2.505   6.142   5.469  0.1127  0.1545 -0.0952
 2791W        W17922  10.562   6.484  15.729  0.1036  0.1579 -0.1933
 2792W        W17923   5.359  10.257   4.223  0.4041 -0.1817  0.3352
 2793W        W17924  13.703   2.917  13.917  0.0836 -0.0005 -0.2335
 2794W        W17925   1.292   3.237  14.186  0.0353 -0.0842 -0.1475
 2795W        W17926  13.968  17.983   1.526 -0.0819  0.4073 -0.4730
 2796W        W17927   8.706   2.182  12.199 -0.2348 -0.0362  0.0304
 2797W        W17928  11.733   8.270   3.984  0.0771  0.1610 -0.1349
 2798W        W17929  17.027   0.733   5.342  0.1365 -0.4487 -0.1714
 2799W        W17930   1.513   9.982  11.717  0.1612  0.1419  0.3138
 2800W        W17931   9.070   9.103   4.677 -0.2392 -0.1294 -0.2481
 2801W        W17932   2.663   5.384   0.576 -0.1458  0.0983 -0.0490
 2802W        W17933   6.415  18.455  12.325  0.3485  0.1356  0.2494
 2803W        W17934   6.909   2.677   1.565 -0.0576 -0.1453 -0.1540
 2804W        W17935  17.151  12.732  11.519 -0.0899 -0.4632  0.3626
 2805W        W17936   1.604   4.889  11.602  0.3149  0.2237 -0.2079
 2806W        W17937  13.589  11.811  12.291 -0.1733  0.2062 -0.1471
 2807W        W17938  15.331   5.376   3.771 -0.1118 -0.3354 -0.1424
 2808W        W17939   0.745  10.962   2.680 -0.1260 -0.3295  0.1039
 2809W        W17940   6.086  10.695   4.787  0.1271 -0.2458  0.1051
 2810W        W17941   2.902  14.721  13.998 -0.3151 -0.0357  0.0421
 2811W        W17942   9.328  13.783  10.852 -0.2555  0.0664  0.0794
 2812W        W17943   1.689   8.638  11.766 -0.2523  0.0409 -0.4561
 2813W        W17944   5.845   8.134   0.337 -0.1141  0.0854 -0.0357
 2814W        W17945   0.455   2.723   1.398 -0.0223  0.0597  0.3013
 2815W        W17946   6.094   5.097   0.899 -0.2407 -0.0115 -0.2225
 2816W        W17947  13.808   6.988   2.423  0.2336 -0.2062  0.1067
 2817W        W17948   8.010  12.650   0.842  0.2269  0.0498  0.4705
 2818W        W17949   7.262  16.361  14.202 -0.0270  0.0777  0.1087
 2819W        W17950   2.068   9.107   2.816 -0.0478  0.0611  0.0103
 2820W        W17951  12.959  13.955  15.246  0.1053 -0.1540 -0.0556
 2821W        W17952  17.746   4.548  13.022 -0.0032 -0.0643  0.2749
 2822W        W17953  18.029   2.481   2.725  0.1666 -0.0666  0.0105
 2823W        W17954  12.817   2.165  12.158 -0.2341 -0.2833 -0.0603
 2824W        W17955   9.652   9.259  14.676  0.3603 -0.0034  0.0640
 2825W        W17956   4.652   6.534   5.941  0.1004  0.1664  0.0897
 2826W        W17957   4.836  10.283   4.186  0.0090 -0.2682 -0.0969
 2827W        W17958   2.508  13.044   3.797 -0.0133 -0.2782  0.0609
 2828W        W17959   7.414  18.365  12.055 -0.0147  0.0871  0.3281
 2829W        W17960   9.254   7.126  15.989  0.0275  0.1052 -0.1012
 2830W        W17961  17.272   4.782   0.272 -0.2177  0.0550  0.2562
 2831W        W17962  11.351  13.489   1.088 -0.0078 -0.0446  0.2437
 2832W        W17963   6.982   3.963  12.526 -0.0969  0.2553  0.1857
 2833W        W17964   9.008  10.158  13.393 -0.1908  0.1378 -0.3039
 2834W        W17965  18.116   6.390  16.072 -0.1173  0.1250  0.1046
 2835W        W17966  14.322   9.901   5.818 -0.1306  0.0273  0.2000
 2836W        W17967  10.058  12.535   0.394 -0.2001  0.2021 -0.2216
 2837W        W17968  15.414   8.760  14.631 -0.1728  0.2045  0.2263
 2838W        W17969   4.608   0.233  12.843  0.2695  0.1870 -0.1339
 2839W        W17970   0.923  16.310   2.880  0.2117  0.0822 -0.0329
 2840W        W17971   1.589   0.989   4.526  0.1990  0.1100  0.0434
 2841W        W17972  11.246   6.444  12.149 -0.0679 -0.0346  0.0601
 2842W        W17973   6.409  12.120  11.517 -0.0000  0.0788 -0.0133
 2843W        W17974   4.437  15.753  15.247 -0.1927  0.0155 -0.2827
 2844W        W17975  13.041   0.307   1.267 -0.2039  0.1119 -0.1815
 2845W        W17976   7.651   1.051  10.954  0.1726  0.2158 -0.0996
 2846W        W17977   9.126  11.931  14.340  0.0016 -0.0895  0.2003
 2847W        W17978  16.831   1.895  13.266 -0.2834 -0.2673  0.0453
 2848W        W17979   3.261  13.218   1.670 -0.4914  0.3256 -0.1136
 2849W        W17980   2.732  16.000   0.366 -0.1561 -0.0822 -0.1760
 2850W        W17981   9.177  12.507   1.890  0.1076 -0.1785  0.1836
 2851W        W17982  15.863   9.256  11.981  0.1391 -0.2088  0.1995
 2852W        W17983   5.701  14.258  11.614  0.0563 -0.0457  0.0130
 2853W        W17984  18.335  16.052  12.791  0.0887  0.0309  0.0381
 2854W        W17985  15.234  17.927   0.469  0.2111  0.0168  0.0653
 2855W        W17986   6.408  14.351   0.169 -0.1216  0.1063  0.2145
 2856W        W17987  17.222   0.840  10.621 -0.1371 -0.1457 -0.1544
 2857W        W17988   8.215   8.566  12.899 -0.1427 -0.0178 -0.1478
 2858W        W17989   6.394  14.629   4.001  0.1933 -0.0859  0.0761
 2859W        W17990  11.203   3.873   5.288 -0.1913  0.2984  0.0200
 2860W        W17991   7.242   6.422   2.781 -0.1418 -0.1884  0.0736
 2861W        W17992   8.883  17.323  12.908  0.0065  0.1991  0.1053
 2862W        W17993   2.590  12.640  14.552 -0.2027  0.0466  0.0592
 2863W        W17994   1.174  11.992  12.539  0.1098 -0.0298 -0.1241
 2864W        W17995   9.189   3.150   2.646 -0.0565  0.1994  0.2871
 2865W        W17996  10.287  16.352  10.947  0.0531  0.0001 -0.1775
 2866W        W17997  14.578  16.272  11.248 -0.0292 -0.0497  0.2759
 2867W        W17998   6.296   1.655  15.831  0.0255  0.0718  0.4419
 2868W        W17999   2.809  11.417  12.067  0.0143 -0.0068 -0.0339
 2869W        W18000   5.609  15.680  11.352  0.1546 -0.1781 -0.2356
 2870W        W18001   5.890   1.584   4.504 -0.3374  0.1547 -0.0230
 2871W        W18002   8.125  13.982   4.337 -0.0383 -0.2807 -0.0071
 2872W        W18003   7.630   1.887   3.522  0.1886 -0.0524 -0.1032
 2873W        W18004   9.096   3.560  12.968 -0.0239  0.1333  0.1081
 2874W        W18005  10.407   1.655   2.887  0.4537  0.0390 -0.2426
 2875W        W18006  17.107   7.572  12.205 -0.0408 -0.5343 -0.2747
 2876W        W18007   5.063   1.954   5.652 -0.0361  0.1284  0.0714
 2877W        W18008   6.523  11.807  10.591 -0.5964  0.1508  0.5327
 2878W        W18009   9.795   7.266   1.254  0.0761 -0.2428 -0.1148
 2879W        W18010  10.397   5.862   4.476  0.2622 -0.1159  0.1184
 2880W        W18011  13.599  14.689   1.321 -0.0671  0.2117 -0.2748
 2881W        W18012   0.188   0.376   4.524  0.1418  0.0641 -0.0164
 2882W        W18013  17.985  17.549   2.512 -0.1661  0.1791  0.0708
 2883W        W18014  13.837   5.353   0.483 -0.1189 -0.4621 -0.0455
 2884W        W18015  17.685   3.545  15.834  0.1667 -0.3121  0.3964
 2885W        W18016  15.145  14.397  12.129  0.3651  0.0243 -0.0018
 2886W        W18017   5.561  10.744   5.068 -0.0766  0.1541  0.3715
 2887W        W18018   1.045   1.508  12.650  0.1672 -0.0769 -0.0572
 2888W        W18019   0.119   4.198  14.050 -0.0747  0.0940 -0.1029
 2889W        W18020  14.709   8.711  13.783 -0.2100  0.3691 -0.0109
 2890W        W18021  14.102  12.709  13.210 -0.3493 -0.1943  0.1622
 2891W        W18022   3.647   4.009   0.137 -0.1868  0.0198 -0.0117
 2892W        W18023   1.798  11.356   5.828  0.2581 -0.1491 -0.2181
 2893W        W18024   2.274   5.280   0.274  0.0923  0.2842 -0.0002
 2894W        W18025   7.609   8.464  15.743 -0.0933  0.2535  0.1767
 2895W        W18026   4.751  16.542  13.306  0.2710 -0.0843  0.3348
 2896W        W18027   5.985  10.224  12.271  0.1207 -0.0248  0.3427
 2897W        W18028  15.075  15.154  13.102 -0.2985  0.0311 -0.0718
 2898W        W18029   6.988  14.000  13.056 -0.0410  0.0053  0.1183
 2899W        W18030   6.012   2.892  12.703  0.3088  0.0939 -0.2994
 2900W        W18031  17.033  14.935  11.655 -0.0007  0.0947  0.1041
 2901W        W18032  16.610  16.129   1.061  0.0621 -0.1670  0.2906
 2902W        W18033  17.124   7.538   5.067  0.1124 -0.0093  0.2833
 2903W        W18034   5.475  12.329   5.081 -0.0886 -0.3010 -0.0440
 2904W        W18035  13.667  17.525  13.856 -0.1058  0.0061  0.0956
 2905W        W18036  13.093   2.878  13.004  0.1053 -0.1673  0.1044
 2906W        W18037   8.585  14.149  13.794 -0.0550  0.1100  0.0219
 2907W        W18038   1.982  14.308  15.859  0.0382 -0.2080  0.1398
 2908W        W18039   2.598   7.011  13.382 -0.2666 -0.1538 -0.0302
 2909W        W18040  12.403  14.934  14.923  0.0238 -0.3443  0.0990
 2910W        W18041  13.004   6.719  14.768  0.1418  0.2355  0.1618
 2911W        W18042   1.902  16.761  14.598 -0.2119 -0.0163 -0.0427
 2912W        W18043  15.271   9.291   4.746 -0.0967  0.4607  0.0501
 2913W        W18044  12.622  10.387   0.872  0.1798  0.0308 -0.0829
 2914W        W18045   6.562   7.558   2.165  0.0425  0.5505 -0.1265
 2915W        W18046  15.963  15.403   2.659  0.4424  0.1827 -0.3088
 2916W        W18047   2.758   1.370   3.742 -0.1447  0.0803 -0.0119
 2917W        W18048  13.173   1.458  15.166 -0.2564  0.1061 -0.0611
 2918W        W18049  16.383   0.618   3.391 -0.2200  0.0281  0.2263
 2919W        W18050   9.835  17.469  13.331  0.1094 -0.1156  0.3628
 2920W        W18051  17.233  15.662  15.573  0.1042  0.2093  0.0119
 2921W        W18052  13.076   2.621   2.746  0.0390  0.2484  0.1069
 2922W        W18053   6.715  16.378  10.403  0.0699  0.5873  0.2219
 2923W        W18054  10.223  18.413   3.149 -0.2296  0.0346 -0.3274
 2924W        W18055   0.548  14.935  15.084 -0.1429 -0.0849  0.1531
 2925W        W18056  12.713  11.448   3.940 -0.2888  0.1327  0.3109
 2926W        W18057   5.490  13.546  11.113  0.1000 -0.2226 -0.1799
 2927W        W18058   7.348  17.886   3.144  0.5674  0.2144 -0.2613
 2928W        W18059  14.059   1.615  13.142  0.1062 -0.0668  0.0874
 2929W        W18060  12.186  16.975  10.830  0.1336 -0.0568  0.0364
 2930W        W18061  13.417   8.113  15.325 -0.1505  0.0717  0.1504
 2931W        W18062   4.506  10.695  12.422  0.1529 -0.0139 -0.1404
 2932W        W18063   2.903   2.230  14.018  0.0682  0.1554  0.1257
 2933W        W18064   6.070   0.131  15.209 -0.0209 -0.4197 -0.0021
 2934W        W18065  11.153   5.349   4.407 -0.0988 -0.2159  0.0470
 2935W        W18066  16.362  10.258  12.633 -0.1676  0.2919  0.1972
 2936W        W18067  15.728   2.308  15.429  0.0477  0.1887 -0.2630
 2937W        W18068   4.376   9.847   1.691  0.3144 -0.0554 -0.0277
 2938W        W18069  16.239   4.537  14.361 -0.2198  0.1553  0.0180
 2939W        W18070  17.895   5.691  12.966  0.0205 -0.1762 -0.0191
 2940W        W18071   3.287  12.297  10.684 -0.0831 -0.1412 -0.0953
 2941W        W18072  16.923   2.470  15.039  0.0472  0.0472 -0.1837
 2942W        W18073   4.454  16.057   5.572  0.0705 -0.1770  0.0455
 2943W        W18074  15.301   0.676   2.405  0.2990 -0.0251 -0.0128
 2944W        W18075  10.911  15.456   0.307 -0.0326 -0.0773  0.1794
 2945W        W18076  13.856   2.739   3.255 -0.3664 -0.1566 -0.1332
 2946W        W18077   2.350   6.193   0.088 -0.2187  0.3050 -0.3067
 2947W        W18078  17.861   8.907   2.324  0.0211 -0.0652 -0.0163
 2948W        W18079  16.778  10.493   0.915 -0.2462 -0.0668 -0.1398
 2949W        W18080   2.569  17.430   1.507 -0.2049  0.0608  0.0799
 2950W        W18081   0.485   7.719   4.161 -0.2581  0.0712 -0.3942
 2951W        W18082   1.293   7.211   5.188  0.0612 -0.3302 -0.1351
 2952W        W18083   5.374   4.103   3.971 -0.1070 -0.2556  0.3417
 2953W        W18084  14.202   1.402   0.792  0.1864  0.2903  0.0200
 2954W        W18085  10.640  15.202   4.147 -0.1881  0.3973 -0.1416
 2955W        W18086   3.980  11.127   2.963  0.0601 -0.0335 -0.1065
 2956W        W18087  14.004   9.419   1.065  0.0101 -0.2964 -0.1227
 2957W        W18088  13.745  13.682  14.859  0.0011 -0.1171  0.3186
 2958W        W18089   9.355   6.192   2.527 -0.0565 -0.0866 -0.2863
 2959W        W18090   5.502   3.896   5.234  0.2229 -0.0722 -0.2663
 2960W        W18091  17.203   9.175  13.339 -0.1437 -0.2329 -0.0408
 2961W        W18092  14.888  13.341  13.372  0.1348 -0.0575 -0.0861
 2962W        W18093  18.299   6.898   4.132 -0.0709  0.0611 -0.0579
 2963W        W18094   4.072  14.195   0.736 -0.0888 -0.1011 -0.3442
 2964W        W18095  14.222   3.150  16.027  0.1588  0.2569 -0.0953
 2965W        W18096   1.414   1.869  10.513  0.0259  0.1419  0.1410
 2966W        W18097  16.993   5.364   1.020 -0.0389 -0.1410  0.3312
 2967W        W18098  18.133   8.435  16.063  0.1779  0.2020  0.0145
 2968W        W18099  13.642  13.926   3.529  0.1594 -0.2948  0.0981
 2969W        W18100   5.564   1.294  11.622 -0.2869  0.0251  0.0301
 2970W        W18101   4.664   3.413  15.293  0.2058 -0.1066  0.0756
 2971W        W18102  16.712  10.949   0.364 -0.1431  0.1343  0.1299
 2972W        W18103   1.552   4.999  12.295  0.0748 -0.0606 -0.0637
 2973W        W18104   0.810  15.023  12.367 -0.1651  0.1001  0.2397
 2974W        W18105   1.924   5.126  15.985  0.1513 -0.1917 -0.0558
 2975W        W18106  10.730  16.868   5.038  0.3348 -0.0821  0.1044
 2976W        W18107   5.805  17.745   2.439  0.2151  0.2151 -0.0763
 2977W        W18108  12.296   8.140   4.330 -0.3409  0.3186 -0.0701
 2978W        W18109  15.227   2.331  12.281  0.1164  0.0499 -0.1107
 2979W        W18110   2.497   7.103  11.733  0.0780  0.0513 -0.0925
 2980W        W18111   6.718   9.416  13.585  0.1652 -0.2534 -0.3590
 2981W        W18112  11.672  12.478   1.418  0.3631  0.2531 -0.3075
 2982W        W18113  15.067   1.845   5.098  0.1590  0.0515  0.2281
 2983W        W18114  16.725   4.357  11.542  0.4963  0.2705  0.3973
 2984W        W18115  12.649   8.460  15.134  0.0064 -0.1124  0.2897
 2985W        W18116   1.191   9.453  15.670 -0.1377  0.3237  0.1965
 2986W        W18117   2.548   7.214   0.345  0.1458  0.0164 -0.1735
 2987W        W18118   8.782  16.216  15.519 -0.0900  0.0891  0.0608
 2988W        W18119   4.091  14.225   1.945  0.0721  0.3163 -0.0185
 2989W        W18120   8.703  10.285  12.708 -0.0024  0.3678 -0.2230
 2990W        W18121   2.908   6.568  15.387  0.1833 -0.3455 -0.1979
 2991W        W18122  10.703  13.959  13.658 -0.0434 -0.1850 -0.0520
 2992W        W18123   3.759  15.301   4.510 -0.0150  0.1302  0.0261
 2993W        W18124  14.833   8.284  15.814  0.1728  0.6207 -0.0129
 2994W        W18125   3.994   9.551   1.370 -0.1144  0.0264  0.0172
 2995W        W18126  11.190  13.495   3.764  0.0221 -0.0076 -0.0189
 2996W        W18127   2.783  14.455  14.867  0.2482 -0.0645  0.3167
 2997W        W18128  18.238  17.741   2.880  0.0507 -0.0030 -0.0898
 2998W        W18129  15.124   8.418  13.932  0.1093  0.0125 -0.3789
 2999W        W18130   5.796  16.310   3.874 -0.0764  0.1803  0.0854
 3000W        W18131  14.610   2.514  15.558 -0.0427  0.1609 -0.0279
 3001W        W18132   8.109   2.944  13.913 -0.3467  0.1054  0.0402
 3002W        W18133   5.222  10.815  14.322  0.3063 -0.1922 -0.1519
 3003W        W18134  16.855   1.865   0.627  0.1571  0.1093 -0.1485
 3004W        W18135  18.006   8.314   1.376 -0.1144  0.2520 -0.0009
 3005W        W18136   2.940  18.047   3.591 -0.0707 -0.0559 -0.0513
 3006W        W18137   7.397  10.827   3.146 -0.1388 -0.3071 -0.1109
 3007W        W18138  10.804   1.667  13.444  0.0300  0.4805  0.1754
 3008W        W18139   6.076   9.562  10.878 -0.0939  0.3010 -0.1400
 3009W        W18140  10.144   2.470   5.957 -0.0128 -0.0571  0.1018
 3010W        W18141   6.849   6.567  14.990  0.2760  0.0962 -0.1526
 3011W        W18142   3.067   4.108   4.824  0.1801 -0.3430  0.0595
 3012W        W18143   9.686  10.861   0.456 -0.3804 -0.0649  0.2727
 3013W        W18144  12.106   3.153   4.625  0.0904  0.1708 -0.0670
 3014W        W18145   8.052   3.079   3.065  0.1319 -0.0373  0.0172
 3015W        W18146  15.206   0.958  15.619  0.1598  0.1078 -0.1455
 3016W        W18147  17.368   1.821   4.028 -0.0068  0.1225  0.2156
 3017W        W18148   7.730   1.647  12.554 -0.1553 -0.3622  0.0659
 3018W        W18149  13.188  16.056  11.718 -0.3762 -0.0496  0.0970
 3019W        W18150  16.357  11.676   1.554  0.1385 -0.2335  0.0346
 3020W        W18151   9.763   8.040   4.031  0.0262 -0.0345 -0.2308
 3021W        W18152  10.454  16.671  14.177  0.2761 -0.0011 -0.0152
 3022W        W18153  17.085   0.605  12.951 -0.0792  0.0704  0.1498
 3023W        W18154   0.355   8.498  11.406  0.2001  0.1006 -0.1448
 3024W        W18155  15.030  17.613  15.794 -0.0350  0.0082 -0.3043
 3025W        W18156  14.708   1.455   5.036 -0.0976 -0.0664 -0.2023
 3026W        W18157   8.148   5.658   4.052  0.1356 -0.1927 -0.1344
 3027W        W18158  14.235   0.752  15.111 -0.0237 -0.1495  0.4100
 3028W        W18159   2.839  10.907  11.744  0.1404  0.1215 -0.2744
 3029W        W18160   3.626   2.037  10.581 -0.3158 -0.3799  0.0846
 3030W        W18161   2.944   0.080  15.229  0.0014 -0.2286 -0.2434
 3031W        W18162   9.998   4.986   3.683 -0.2294  0.0539  0.2848
 3032W        W18163   3.593  15.937   0.961  0.0566  0.1572  0.1186
 3033W        W18164   1.150   6.745  14.153 -0.1120  0.0733  0.3560
 3034W        W18165  12.484   0.448   1.319 -0.0351  0.1046  0.2033
 3035W        W18166   8.637   8.758   3.594  0.1298 -0.2019  0.2598
 3036W        W18167   2.434   2.371  14.799 -0.0233 -0.1768  0.1337
 3037W        W18168   1.407   1.853   4.845 -0.0004  0.1452  0.0061
 3038W        W18169  10.265  14.165  13.081 -0.4068  0.0699  0.0338
 3039W        W18170  11.064  13.037  11.274  0.3387 -0.0359 -0.0775
 3040W        W18171   3.681  11.293  11.409  0.1929  0.1551  0.1377
 3041W        W18172  18.050   1.509   0.240 -0.0952 -0.0398 -0.0236
 3042W        W18173   9.968   5.902   4.819  0.1587 -0.3610 -0.0090
 3043W        W18174  14.732   1.939  14.737  0.0380  0.2072 -0.1236
 3044W        W18175   3.437   8.746  12.419 -0.1685 -0.1265 -0.2528
 3045W        W18176  12.512  14.201  13.155  0.0217  0.0719 -0.3763
 3046W        W18177  10.419   5.117  14.090  0.2562  0.0838  0.1622
 3047W        W18178   0.309   9.783   0.123 -0.1010  0.3838  0.2996
 3048W        W18179  11.082   3.121   4.943 -0.1131 -0.0793  0.3432
 3049W        W18180  15.268  16.948   2.118 -0.4466  0.0184 -0.0886
 3050W        W18181   9.762   2.191   3.607  0.2395 -0.0680  0.2343
 3051W        W18182  17.968   8.987  11.773  0.1193  0.0016 -0.1204
 3052W        W18183   3.067  16.878   5.516  0.2010 -0.1791  0.1258
 3053W        W18184   3.124  10.691   4.537  0.0567  0.1948 -0.3037
 3054W        W18185   2.757  14.281  14.235 -0.0400 -0.2605  0.0050
 3055W        W18186   2.345   1.332  15.540  0.0925  0.0918  0.2318
 3056W        W18187   8.292  17.436   4.799 -0.1438 -0.0622 -0.0080
 3057W        W18188   6.042  16.520  16.060  0.0576 -0.2975 -0.3578
 3058W        W18189  16.222   0.464   5.655  0.0648 -0.0511  0.3189
 3059W        W18190  13.922  18.466  14.513  0.0753 -0.1659  0.0018
 3060W        W18191   1.672   7.573  12.528  0.0709  0.3245 -0.1305
 3061W        W18192  15.434  16.856  12.574 -0.0484 -0.3036 -0.2203
 3062W        W18193  15.653  16.543  14.946  0.2938 -0.0079 -0.0352
 3063W        W18194  16.781  14.804  15.923 -0.0183 -0.0673  0.1376
 3064W        W18195  18.378   4.380   5.247  0.1722  0.1247 -0.0736
 3065W        W18196  17.093  11.182  12.604 -0.1978 -0.2129  0.2130
 3066W        W18197  13.905   0.562  13.336  0.0886  0.0224  0.0637
 3067W        W18198  16.223  14.154  14.284 -0.3212 -0.0227 -0.0955
 3068W        W18199   1.271   0.318  14.583  0.1142  0.0887 -0.1794
 3069W        W18200   4.408  15.953  10.543  0.0064 -0.0642  0.3173
 3070W        W18201   6.975   1.207   2.478  0.2396 -0.2543 -0.1081
 3071W        W18202  14.766   5.640  13.955  0.0784 -0.0675 -0.1764
 3072W        W18203   9.993   5.047  14.356  0.0077 -0.3669  0.0601
 3073W        W18204  17.753   1.808   3.400  0.1001 -0.2995 -0.2713
 3074W        W18205   9.265   7.982  16.026 -0.0529 -0.3320  0.0124
 3075W        W18206  12.596  14.816   1.071  0.3244  0.0361 -0.1248
 3076W        W18207   6.290  15.253  14.862 -0.0560 -0.0333 -0.2471
 3077W        W18208  16.011  11.169  14.609 -0.1548  0.0707 -0.3195
 3078W        W18209   5.600  11.489  10.981 -0.0438 -0.1224 -0.0571
 3079W        W18210   7.845  11.344   4.724  0.1727 -0.2398 -0.0134
 3080W        W18211   2.436  13.928  13.637 -0.0169 -0.0188  0.1099
 3081W        W18212   1.110  12.353   3.266 -0.0780  0.0902 -0.1182
 3082W        W18213  16.203   2.605   0.176 -0.2235 -0.1933  0.0388
 3083W        W18214   0.662   4.134  10.400 -0.0852 -0.1777 -0.1921
 3084W        W18215   8.052  13.812   0.826  0.1998  0.1566 -0.4920
 3085W        W18216  12.099   5.943   2.364  0.4367 -0.3397 -0.3681
 3086W        W18217  13.577   8.582  14.154 -0.2259  0.0318 -0.1608
 3087W        W18218   6.478   3.822   5.148 -0.2056  0.1110 -0.0588
 3088W        W18219  17.818   2.116  12.551 -0.0433  0.1090 -0.0428
 3089W        W18220   3.308   7.806  10.997 -0.1725  0.1911  0.3294
 3090W        W18221   8.794   9.958  10.728  0.0434  0.2311 -0.1693
 3091W        W18222  18.177   4.485  11.078  0.0214 -0.3377  0.0861
 3092W        W18223   9.380  15.244  12.530  0.0910  0.1416 -0.3168
 3093W        W18224  16.841  16.468   3.853 -0.2342 -0.0778  0.1392
 3094W        W18225   7.321   5.919  13.512  0.2407  0.1703 -0.1023
 3095W        W18226  15.259  10.445  10.300  0.1788 -0.2638  0.2714
 3096W        W18227   5.917  16.068  12.649 -0.1207  0.1376 -0.2971
 3097W        W18228  11.931  18.181   4.128  0.0963  0.1584 -0.0517
 3098W        W18229  15.482   7.100   1.638  0.1152  0.0158  0.1491
 3099W        W18230  16.089  17.638   0.725 -0.0808 -0.2997 -0.0656
 3100W        W18231   3.551   2.560  14.129  0.1777 -0.0280 -0.3271
 3101W        W18232   3.046   2.334   1.100  0.3858 -0.2072 -0.0752
 3102W        W18233   4.363  12.738   3.782 -0.0411 -0.1342 -0.2453
 3103W        W18234  15.363  12.951  11.801 -0.1986  0.1264  0.0829
 3104W        W18235  14.730   0.107   5.516 -0.0922 -0.0158 -0.0714
 3105W        W18236   2.404  11.402  11.633  0.1903 -0.1823 -0.4157
 3106W        W18237   8.057   8.887   3.153 -0.2688 -0.0222  0.2849
 3107W        W18238   6.760  15.786   2.051  0.3264 -0.1862  0.3374
 3108W        W18239   6.253  18.289  13.391 -0.0875 -0.0098  0.2024
 3109W        W18240   8.545  12.395  11.578 -0.3429  0.1003  0.2000
 3110W        W18241   1.132   6.823   0.767 -0.0699 -0.3230 -0.3273
 3111W        W18242   5.506  11.296  13.395 -0.0697  0.1255  0.2448
 3112W        W18243   7.525  17.072  15.801 -0.4093 -0.1190 -0.1484
 3113W        W18244   3.984  13.714   1.951  0.2142  0.0107 -0.3291
 3114W        W18245  17.987  17.254   1.653  0.4380  0.2498 -0.2721
 3115W        W18246   6.538  14.108  15.768 -0.2912  0.3020  0.0761
 3116W        W18247   1.000   4.480   1.026  0.0797  0.0260 -0.0651
 3117W        W18248  14.881  11.762   5.565  0.1220 -0.0842  0.1186
 3118W        W18249  15.142   9.258  13.452 -0.1005  0.0678  0.1249
 3119W        W18250  10.863   4.935   0.764 -0.5453  0.1210  0.2270
 3120W        W18251   1.977   3.492  12.625  0.1458 -0.2675 -0.1457
 3121W        W18252  11.132   7.166  13.247  0.1388 -0.0404 -0.4810
 3122W        W18253  14.400   1.755   0.316  0.2071  0.1091 -0.0863
 3123W        W18254   7.815  10.645   3.406  0.0982  0.0760  0.1790
 3124W        W18255  11.991   1.014  15.682  0.3352 -0.2202  0.2324
 3125W        W18256   3.354  17.550   0.720  0.0741 -0.1769  0.1037
 3126W        W18257   3.264   8.745  14.099 -0.0077  0.1642  0.0790
 3127W        W18258  15.548   6.736   3.828  0.0468 -0.2622  0.0724
 3128W        W18259  11.397   7.876   2.709  0.0772 -0.0910  0.0248
 3129W        W18260  16.505   1.105   1.145  0.0058  0.1793  0.2244
 3130W        W18261   3.239  16.343  14.260 -0.1122  0.1404  0.0732
 3131W        W18262   8.888   7.747  11.855  0.5186 -0.2557 -0.0351
 3132W        W18263  11.296   3.721  10.693  0.1332  0.2315  0.0936
 3133W        W18264   9.733  11.920  15.628 -0.0198  0.0043 -0.0750
 3134W        W18265   5.398   6.180   3.557  0.1199 -0.2404 -0.2849
 3135W        W18266   0.809   5.020   2.398 -0.3471  0.0183  0.6042
 3136W        W18267  12.831  12.538  13.811  0.0144  0.0573 -0.2604
 3137W        W18268   2.987   5.103  15.156  0.0872 -0.2428 -0.2040
 3138W        W18269  10.151  13.466   1.492 -0.0286  0.0403 -0.1203
 3139W        W18270   6.485  11.705  14.400 -0.3132  0.1874  0.1338
 3140W        W18271  10.370  17.976  12.560  0.0396  0.2262  0.0832
 3141W        W18272   8.095   0.639  13.353  0.0210  0.0969 -0.0033
 3142W        W18273  15.306   4.578   5.795  0.1331 -0.3975  0.3361
 3143W        W18274  15.592   6.677   5.220 -0.0874 -0.0757 -0.0554
 3144W        W18275  12.700   1.064  13.771  0.1764 -0.1349 -0.0868
 3145W        W18276  15.105   7.674  14.603  0.1295 -0.1472  0.0565
 3146W        W18277   4.072  11.469   0.525 -0.3575  0.0425  0.1891
 3147W        W18278  12.082  13.353  11.197 -0.0311 -0.2945  0.3081
 3148W        W18279   9.440   1.128  13.729  0.1157  0.0315  0.0750
 3149W        W18280  10.693   3.871   5.173  0.1390 -0.1263  0.0370
 3150W        W18281  16.569  10.078  13.924 -0.0945 -0.1694 -0.0504
 3151W        W18282  12.917   2.555  13.431 -0.0174  0.1328  0.1334
 3152W        W18283   3.358   2.493  12.888  0.1245  0.0494  0.1252
 3153W        W18284   9.624  16.902   4.285  0.2690  0.2773 -0.2111
 3154W        W18285   0.370  17.965   0.001 -0.0363 -0.0395  0.1401
 3155W        W18286   2.000  13.581  10.124  0.2159  0.0536 -0.1322
 3156W        W18287  10.157  18.477  13.731 -0.1027  0.1631  0.0135
 3157W        W18288   8.585   8.704   6.033  0.0945 -0.0449 -0.4630
 3158W        W18289  12.509   6.003  11.267  0.2926 -0.1329  0.1188
 3159W        W18290  11.473   0.693  15.160  0.2179  0.1976  0.2382
 3160W        W18291  14.495  13.734   1.234 -0.1383  0.1164  0.0580
 3161W        W18292   4.395   7.556  15.107 -0.2511 -0.1540 -0.1611
 3162W        W18293   4.812  10.065   4.690  0.1143  0.1470 -0.3141
 3163W        W18294   3.887   0.015  13.601 -0.2179 -0.0724  0.3681
 3164W        W18295  12.868   4.081   2.563  0.1897 -0.0610 -0.4155
 3165W        W18296  16.895  11.373   0.942  0.0116  0.1710 -0.1089
 3166W        W18297   9.292   9.863  10.628 -0.0468 -0.1613  0.0544
 3167W        W18298   9.991  14.855   4.727  0.2332 -0.0613  0.1426
 3168W        W18299   8.258   1.309   1.284 -0.0997  0.0085 -0.1579
 3169W        W18300   2.052  15.568  11.471 -0.1240  0.0694 -0.0228
 3170W        W18301   0.596  16.702  11.571 -0.0464 -0.0455 -0.0661
 3171W        W18302  15.350   4.739   0.019  0.0539 -0.1754 -0.2707
 3172W        W18303   3.764   0.463   4.447  0.0586  0.0018 -0.2692
 3173W        W18304  18.363   9.702   3.579 -0.0693  0.5437 -0.0446
 3174W        W18305  13.232   7.852  11.389  0.1941 -0.3839 -0.1318
 3175W        W18306   9.877   9.066  12.958  0.2592  0.1440 -0.2027
 3176W        W18307  17.618  17.103  16.068 -0.0651 -0.2374 -0.4150
 3177W        W18308   3.133   6.236   3.562 -0.0714 -0.0800 -0.0669
 3178W        W18309   8.181   3.694   2.688  0.3031 -0.1853  0.4551
 3179W        W18310  12.773  14.428  12.203  0.0547 -0.1025  0.1153
 3180W        W18311   8.516   2.448   3.780  0.1966 -0.2152  0.1412
 3181W        W18312   5.528   8.362   5.495 -0.2684 -0.0606  0.2605
 3182W        W18313   2.374  10.883   5.214 -0.2081 -0.1579  0.2376
 3183W        W18314   9.409  17.481   3.493 -0.1110  0.0868 -0.1605
 3184W        W18315   0.349  13.016   3.847 -0.0902  0.2573  0.2143
 3185W        W18316   9.407   5.589  13.113  0.1806 -0.0420  0.3039
 3186W        W18317  15.127   3.235   4.143  0.0115  0.1425 -0.0337
 3187W        W18318   0.333  15.046  14.250 -0.1337 -0.0140  0.1560
 3188W        W18319  13.877  15.051   2.221 -0.1389 -0.2294 -0.1129
 3189W        W18320   6.701   8.861   0.729  0.3627  0.2058 -0.0640
 3190W        W18321   5.541   9.464   4.674 -0.0492 -0.1172 -0.1263
 3191W        W18322  16.202  14.649  14.626 -0.0610 -0.2010  0.0648
 3192W        W18323   6.515   0.182  11.879 -0.0018  0.3127 -0.1664
 3193W        W18324   4.380  11.531  10.942  0.2070 -0.2889  0.0485
 3194W        W18325   0.460  11.836  11.460  0.0041 -0.0931  0.2490
 3195W        W18326  11.888   9.341   1.672 -0.1410 -0.3805  0.1428
 3196W        W18327  11.020  15.884   1.263 -0.0816  0.2150  0.3511
 3197W        W18328  17.760   8.101   5.838 -0.2156  0.0119  0.1930
 3198W        W18329   1.509   2.145   1.775  0.2075  0.0492  0.0457
 3199W        W18330   9.129   5.997   4.825  0.1612  0.0788  0.0584
 3200W        W18331   6.118  12.990   0.524  0.2657 -0.0443  0.2451
 3201W        W18332   4.397   6.829   3.938 -0.1776  0.5469  0.0899
 3202W        W18333   2.033  10.333   3.886 -0.0629 -0.2384  0.1101
 3203W        W18334   6.083  10.370   2.695 -0.1519  0.0604 -0.3791
 3204W        W18335  17.180   5.366  13.871  0.0021 -0.0736 -0.1765
 3205W        W18336   5.390   9.708  14.714 -0.0662 -0.1386  0.0346
 3206W        W18337   3.807   0.974   1.344  0.2197  0.2436 -0.0135
 3207W        W18338   0.805   5.663  13.797  0.0771  0.4552 -0.0104
 3208W        W18339   0.454   3.701   4.233 -0.0348  0.1757 -0.0751
 3209W        W18340  12.268   9.596   2.133  0.1673 -0.2187 -0.0959
 3210W        W18341  14.919   7.947  14.283 -0.0718 -0.0957 -0.0543
 3211W        W18342   3.314  13.735   0.477  0.3048  0.0535 -0.0288
 3212W        W18343  14.545   1.257   0.197  0.0215  0.0345  0.0338
 3213W        W18344   7.842   4.390   1.575 -0.0164  0.0528 -0.4622
 3214W        W18345  16.830  12.764  12.521 -0.1352  0.1949  0.2453
 3215W        W18346   4.076  17.526  12.900 -0.0325 -0.0853 -0.1098
 3216W        W18347   0.233   4.395  10.433  0.3930 -0.1679 -0.3141
 3217W        W18348   0.567  14.192   3.073  0.1533  0.0231  0.1661
 3218W        W18349   7.040   3.818  12.003 -0.3473  0.0677 -0.1214
 3219W        W18350   8.155   5.113   0.142  0.1623  0.2583  0.0529
 3220W        W18351   0.166   4.423  13.256 -0.1286 -0.0839  0.1742
 3221W        W18352   6.799  18.003  14.281 -0.0823  0.2327 -0.5005
 3222W        W18353   8.336   7.156  15.926  0.3307  0.2789  0.2457
 3223W        W18354  16.334   2.749   5.259  0.0779 -0.2691 -0.1057
 3224W        W18355  10.398   8.513   3.598  0.0450 -0.1357  0.0856
 3225W        W18356   3.068  16.439   3.473  0.1999  0.2629 -0.2757
 3226W        W18357   9.015   4.345  10.912 -0.1290 -0.0942  0.1628
 3227W        W18358   5.909  17.905   0.672  0.0864  0.2009 -0.0916
 3228W        W18359   2.626   0.755   1.809 -0.1631  0.1972 -0.0813
 3229W        W18360   0.091  13.777   1.235  0.1970  0.0373 -0.2282
 3230W        W18361   0.052   7.314   2.735  0.4494 -0.0151 -0.1108
 3231W        W18362   5.154   1.132  11.123  0.2061  0.0266 -0.2290
 3232W        W18363  12.106   9.582   5.590  0.0211 -0.1014  0.2108
 3233W        W18364  13.858   2.788  13.084 -0.0120 -0.0621  0.0454
 3234W        W18365   0.783   6.805   3.209  0.1346  0.1584  0.3917
 3235W        W18366   1.396   2.500   2.158  0.1264 -0.0619  0.1028
 3236W        W18367   5.261   6.485   4.245  0.1805  0.0744  0.0177
 3237W        W18368  12.641   8.529   1.046  0.4513 -0.3512  0.0479
 3238W        W18369   9.140   9.917  11.158  0.1469  0.1111 -0.0403
 3239W        W18370  11.248  11.291   4.764  0.0241 -0.0413 -0.0669
 3240W        W18371   7.674  16.526  12.273 -0.2164 -0.0786 -0.0252
 3241W        W18372   1.325  14.810  12.502  0.2010 -0.1118  0.0354
 3242W        W18373  15.854   4.944   0.275  0.1470  0.0880 -0.0321
 3243W        W18374  16.110   7.637   3.782  0.0398  0.4785 -0.3136
 3244W        W18375  17.827   8.455   0.827 -0.0448  0.1160  0.1442
 3245W        W18376  14.009  17.101  12.617 -0.0522 -0.1599 -0.0404
 3246W        W18377  17.514   4.500   1.351 -0.1809  0.0184  0.0222
 3247W        W18378  12.001  12.890   1.275 -0.1745 -0.1476  0.1265
 3248W        W18379   6.033   2.642  11.231  0.2371 -0.0141 -0.3232
 3249W        W18380  10.379  16.262   1.324 -0.1089 -0.2148  0.1054
 3250W        W18381   5.389   0.571  12.072  0.0493 -0.1549 -0.0194
 3251W        W18382  10.638   1.215   3.754 -0.0120  0.0937  0.2388
 3252W        W18383   1.717   8.782   5.779  0.3222 -0.1720  0.0770
 3253W        W18384  14.232  16.557  11.045  0.0936  0.0234 -0.1424
 3254W        W18385  12.823  10.231  11.482  0.0725  0.0301 -0.2748
 3255W        W18386   0.477  16.476  12.403  0.1151  0.2815 -0.0821
 3256W        W18387   0.684   3.239   2.964 -0.2724 -0.2092 -0.1231
 3257W        W18388   9.105   2.439   1.688 -0.0152  0.0198  0.0773
 3258W        W18389   8.236   5.470  12.418  0.0557  0.0054  0.0773
 3259W        W18390  15.615   5.967  13.422 -0.0546 -0.1256  0.0369
 3260W        W18391  17.672   4.722  15.574  0.0366 -0.0314  0.0174
 3261W        W18392  17.326  15.379   4.128 -0.0111 -0.0041 -0.0656
 3262W        W18393  15.061  12.851  13.611 -0.0831  0.2383  0.1491
 3263W        W18394  11.638  11.608  12.712 -0.0845  0.2465  0.4183
 3264W        W18395   4.052  14.603   3.917 -0.1795 -0.0686  0.0911
 3265W        W18396   0.217  17.021  10.308  0.0155  0.0950  0.0901
 3266W        W18397   8.550  13.544  11.871  0.0231 -0.0543  0.0458
 3267W        W18398  13.683   5.301  14.134 -0.0898  0.0340 -0.1148
 3268W        W18399  17.250  10.308   4.391  0.1546  0.3021  0.1081
 3269W        W18400   8.788   4.170  11.932 -0.0575  0.1858  0.0142
 3270W        W18401   0.150   9.825  12.469  0.1209  0.1782  0.0153
 3271W        W18402   8.156  17.188  13.482 -0.1410  0.1159  0.4354
 3272W        W18403   5.976  16.183   2.454  0.0757  0.0018 -0.0716
 3273W        W18404   3.075  13.105  11.061 -0.1472 -0.1884  0.2026
 3274W        W18405  14.753   4.497   4.724 -0.3418 -0.0366  0.2785
 3275W        W18406  12.524  14.046  15.460 -0.0621 -0.2539  0.0560
 3276W        W18407   7.062   4.215  14.707 -0.0277 -0.2821  0.0359
 3277W        W18408   5.027  17.987   2.822  0.2181  0.0952  0.1741
 3278W        W18409   4.096  17.539   1.359  0.0224 -0.2709 -0.0432
 3279W        W18410  16.333   2.452  15.273  0.1477 -0.2654  0.0330
 3280W        W18411  18.302   7.099  14.264 -0.1211  0.3434  0.1794
 3281W        W18412   9.629   9.873   2.321  0.1424  0.0910 -0.0123
 3282W        W18413   4.372  12.730   2.151  0.2772  0.3533  0.0053
 3283W        W18414  17.119  15.836   5.084  0.1335  0.1952 -0.0814
 3284W        W18415  15.322  14.738  11.203 -0.1219 -0.1214 -0.0560
 3285W        W18416  13.887  16.833  12.123 -0.0277 -0.0499  0.3609
 3286W        W18417   3.430  13.117   2.156  0.0741  0.0215 -0.2710
 3287W        W18418   1.206   1.057   0.215  0.0190 -0.0128 -0.2766
 3288W        W18419  11.083  17.779  11.748 -0.0740  0.3379 -0.0467
 3289W        W18420   0.013  12.305  13.792  0.0171  0.0464 -0.1838
 3290W        W18421  14.798  13.661   5.404 -0.1151  0.2997  0.1882
 3291W        W18422   6.173  13.428  13.377  0.3107  0.2092  0.1414
 3292W        W18423   1.875   1.394   2.478  0.0273  0.1764 -0.2655
 3293W        W18424   1.165   2.822  10.315  0.3984  0.2279 -0.2381
 3294W        W18425   7.916  12.200  14.887 -0.0370 -0.1459  0.0461
 3295W        W18426   7.569   0.724   0.784 -0.0596  0.0153  0.1609
 3296W        W18427  13.859   6.799   3.926  0.2656 -0.0160  0.1106
 3297W        W18428   2.129   0.821   0.551  0.0631 -0.0930  0.2178
 3298W        W18429   3.821  10.646   2.976 -0.0161 -0.4517  0.0235
 3299W        W18430   8.320  13.735  15.829 -0.1356 -0.0411  0.0215
 3300W        W18431  15.957   3.295  15.527 -0.3671 -0.1382 -0.1519
 3301W        W18432  13.324   7.977  13.651  0.0994 -0.0633 -0.0507
 3302W        W18433   6.336   5.521  11.929  0.1677 -0.0980 -0.2905
 3303W        W18434  13.565  15.798   3.780 -0.0120  0.1476 -0.1063
 3304W        W18435  16.922  14.553   5.513  0.0255 -0.1264 -0.0408
 3305W        W18436   3.936   1.548  10.555 -0.3510  0.1633 -0.1180
 3306W        W18437   7.191  14.273  12.558 -0.0769 -0.0915 -0.0324
 3307W        W18438  11.329  11.464   5.908  0.0845  0.1622 -0.0909
 3308W        W18439   6.708  11.619   1.681  0.1059 -0.0202 -0.0839
 3309W        W18440  11.887  17.755   0.661  0.1056 -0.0619  0.2961
 3310W        W18441  12.083  15.793   0.266  0.0238  0.0983 -0.1954
 3311W        W18442   1.624  10.605   3.797 -0.1122  0.0496  0.1338
 3312W        W18443   9.436   6.441   4.113  0.2400 -0.2014 -0.0568
 3313W        W18444   8.549  13.009   3.119 -0.5471  0.3049  0.1353
 3314W        W18445  11.270   9.902  12.095 -0.1145 -0.0432  0.0701
 3315W        W18446  12.528  14.268  14.408  0.2181  0.0258  0.0785
 3316W        W18447   7.124   7.807   4.898 -0.4068  0.0985 -0.1196
 3317W        W18448  11.906   9.303   0.511 -0.3004  0.0453 -0.2871
 3318W        W18449  16.114   5.620  10.857  0.1120 -0.1741  0.0233
 3319W        W18450   7.074   5.681  12.122 -0.1664  0.0059  0.0848
 3320W        W18451  13.210   5.367   1.744 -0.0519 -0.0806  0.2866
 3321W        W18452   0.159   5.762  13.227 -0.0705  0.1398  0.0767
 3322W        W18453  11.472  18.342   3.239 -0.0151  0.1168 -0.3941
 3323W        W18454   9.948  16.532  11.458  0.0490 -0.4398 -0.4789
 3324W        W18455   0.031  12.003   1.925  0.3378  0.0468  0.0085
 3325W        W18456  14.011   2.253  14.364 -0.2226  0.3986 -0.1049
 3326W        W18457  15.441   1.993   5.527 -0.2215 -0.2471 -0.3603
 3327W        W18458  16.221   1.580  14.791  0.1151  0.0927 -0.1117
 3328W        W18459   1.340  13.749   3.652 -0.1202 -0.1464  0.1494
 3329W        W18460   2.475   8.749   1.068 -0.2123 -0.2467 -0.2706
 3330W        W18461   1.377   6.397  12.748  0.4103 -0.1164 -0.0605
 3331W        W18462   2.003   9.229   2.291  0.0359 -0.1242 -0.2074
 3332W        W18463   0.849   4.298  13.404  0.1237  0.0437  0.3325
 3333W        W18464   4.448   4.118   1.159 -0.0582 -0.2374  0.3138
 3334W        W18465   5.627  17.739  12.203  0.0676  0.1111  0.0987
 3335W        W18466  12.647  13.473  15.206  0.2567 -0.2505  0.0114
 3336W        W18467  17.753  11.011  11.273 -0.0392 -0.2926  0.0185
 3337W        W18468   1.638  16.517   1.148  0.0835  0.1726 -0.3594
 3338W        W18469   5.869   1.731  14.941  0.0741 -0.1129 -0.3649
 3339W        W18470   8.493  15.432   2.083  0.1412 -0.2936  0.1146
 3340W        W18471  17.925  10.286  10.703 -0.0694 -0.0663  0.2323
 3341W        W18472  10.567  11.249   0.119 -0.2926  0.0608 -0.0877
 3342W        W18473   0.106   9.067   0.706  0.0698 -0.0200 -0.3962
 3343W        W18474   2.820   1.011  14.273  0.1659  0.2361  0.0250
 3344W        W18475   6.718  10.483  15.381 -0.0197  0.0477 -0.1736
 3345W        W18476  18.155   8.862   5.633  0.0591 -0.1101  0.0831
 3346W        W18477   5.648   4.901   3.538 -0.2974  0.0313  0.0264
 3347W        W18478   7.675  16.262   3.580  0.0250  0.1286  0.0137
 3348W        W18479  12.715  11.786   3.534 -0.0279 -0.3906 -0.3329
 3349W        W18480  11.672   1.214   3.920  0.1108 -0.1210 -0.0081
 3350W        W18481  15.810   8.809   4.777  0.1280 -0.1437 -0.0758
 3351W        W18482   7.419   5.856  10.629 -0.1108  0.0957  0.0841
 3352W        W18483   6.990   2.273   1.153 -0.1589  0.2113 -0.2917
 3353W        W18484  15.846   4.658  14.608 -0.0362 -0.1367 -0.0618
 3354W        W18485  14.561  17.807  14.024 -0.3173  0.0860 -0.0370
 3355W        W18486  17.231  11.847  13.374  0.0241 -0.2406 -0.1127
 3356W        W18487  13.425   7.257   5.519 -0.4460 -0.2796 -0.2142
 3357W        W18488  14.179  13.008   3.826 -0.3685  0.0930 -0.0291
 3358W        W18489   4.801  15.524  12.380  0.1522  0.0993  0.1997
 3359W        W18490  15.714   5.543  11.718 -0.0602  0.0914 -0.0034
 3360W        W18491   7.446   3.304   0.586 -0.2057  0.1541 -0.1187
 3361W        W18492   8.606  18.067   2.476  0.0305  0.0659  0.0906
 3362W        W18493   1.917  11.832   0.438  0.1136  0.3457  0.0186
 3363W        W18494  11.753   4.599   5.964 -0.2200  0.0491  0.0330
 3364W        W18495  10.876   6.605  13.784 -0.1220 -0.2374  0.0661
 3365W        W18496   6.769  15.913   0.149 -0.0545 -0.1140 -0.0209
 3366W        W18497   2.995  16.785  12.838  0.0749 -0.1945 -0.1015
 3367W        W18498  13.373   1.953   0.149  0.0546  0.0234 -0.3166
 3368W        W18499  12.564   0.340   2.557  0.3688  0.0648  0.0052
 3369W        W18500  13.306   8.814   2.726 -0.0562  0.0471 -0.0326
 3370W        W18501  11.961   8.985  11.116 -0.2355 -0.1217  0.0173
 3371W        W18502  17.863   9.499  11.739 -0.2250 -0.0842 -0.4773
 3372W        W18503  18.320  16.563   3.714  0.0429  0.2311  0.2363
 3373W        W18504  18.201  10.020   6.055 -0.3213  0.0941  0.2292
 3374W        W18505   2.564  15.913  14.022  0.1087  0.0662  0.0479
 3375W        W18506   9.001   8.152  10.405 -0.1350 -0.0389  0.2916
 3376W        W18507  17.419   9.004   1.956  0.1443  0.0049 -0.1712
 3377W        W18508  16.214   0.850   0.873 -0.1867 -0.2370 -0.1810
 3378W        W18509   5.720   1.498   1.940 -0.2611  0.0192 -0.2397
 3379W        W18510   0.973  11.406   0.560  0.0988  0.1022  0.2508
 3380W        W18511  14.961   0.619   3.274 -0.0502 -0.2356 -0.1847
 3381W        W18512   7.885   5.540  12.914  0.0210  0.1021  0.0487
 3382W        W18513  12.092   7.001   0.170 -0.2010  0.3263  0.0372
 3383W        W18514   0.772   9.976   2.274  0.0783  0.0275 -0.2729
 3384W        W18515   3.998   6.320  13.013  0.1124 -0.2597 -0.1179
 3385W        W18516  12.853  18.224  15.645  0.1255 -0.1098  0.4285
 3386W        W18517  11.861   5.438   1.536 -0.0730 -0.2720 -0.2238
 3387W        W18518   4.414   5.613   6.193 -0.2448  0.0059 -0.2577
 3388W        W18519   0.470   9.619  15.179  0.2622 -0.0571 -0.2793
 3389W        W18520  12.337   6.838   1.180 -0.0260 -0.2677 -0.0837
 3390W        W18521   9.470   6.485  11.579  0.0294 -0.0356  0.2519
 3391W        W18522  13.562   1.954   5.735 -0.0305 -0.0184  0.3014
 3392W        W18523   0.316   6.058  14.912 -0.1410  0.0822 -0.1970
 3393W        W18524   0.246  10.043  12.034  0.1011 -0.0223 -0.1190
 3394W        W18525   1.984   6.173   0.839 -0.0821 -0.0126  0.1565
 3395W        W18526   2.133   1.535   2.935 -0.2478 -0.0211 -0.0505
 3396W        W18527  14.795   2.089  12.209  0.0307 -0.2572 -0.0338
 3397W        W18528   9.892   9.051   3.069  0.0058 -0.0937  0.3249
 3398W        W18529  12.167  10.956  14.120  0.3175  0.1501  0.0465
 3399W        W18530  13.100  17.679   2.821 -0.1408 -0.2591 -0.1554
 3400W        W18531   8.602  11.764   0.067 -0.2451  0.3188 -0.1591
 3401W        W18532   3.119   0.062  12.699 -0.1016  0.2570 -0.0743
 3402W        W18533   0.656  13.085   1.728 -0.1848  0.2002  0.0750
 3403W        W18534  14.942  17.624   0.183  0.1183  0.2176  0.1791
 3404W        W18535  11.300  12.201  10.047  0.2148  0.1078  0.0734
 3405W        W18536  16.099  14.326   4.037 -0.0151  0.0524 -0.0450
 3406W        W18537   2.360  15.351   2.237  0.2116 -0.2642 -0.2063
 3407W        W18538  18.282   1.097   5.140  0.0078  0.0931  0.0971
 3408W        W18539   7.395   4.658   1.763 -0.2748 -0.0432  0.1916
 3409W        W18540   4.398   4.462  15.193 -0.3860  0.1624 -0.3300
 3410W        W18541   0.084  13.938  13.570 -0.2665 -0.0955 -0.0851
 3411W        W18542   4.962  10.128  15.297  0.0210 -0.1654 -0.0278
 3412W        W18543  12.118  17.172   9.961 -0.1047 -0.0056 -0.0079
 3413W        W18544   7.913   0.234   3.622 -0.0359  0.2547 -0.1016
 3414W        W18545  11.363   7.236  10.409 -0.1996  0.2988  0.3932
 3415W        W18546   0.101  11.527   2.935 -0.2854  0.0433  0.1977
 3416W        W18547   4.486   4.951  15.314  0.1313 -0.2681  0.0304
 3417W        W18548   9.664   3.705  13.536 -0.2590  0.3222  0.2125
 3418W        W18549  12.195   8.479   3.910  0.1163  0.1754  0.0490
 3419W        W18550  16.000  12.818   4.691  0.0032  0.1034  0.1723
 3420W        W18551   5.613   4.189  13.896 -0.0051  0.3108 -0.1335
 3421W        W18552   6.038   1.894  12.076 -0.1571  0.3364 -0.1694
 3422W        W18553   5.468   6.571  11.979  0.2180 -0.3880 -0.0745
 3423W        W18554  11.850  14.346   3.894  0.2938  0.0624  0.0374
 3424W        W18555   0.932  14.341   1.412  0.0532 -0.0001  0.1409
 3425W        W18556  13.018  10.073  11.025 -0.0515  0.1942 -0.2760
 3426W        W18557   2.159  16.710  14.113 -0.0582 -0.1940  0.5334
 3427W        W18558  10.347   9.416   4.327 -0.0448 -0.1130  0.0627
 3428W        W18559  11.397  13.143  12.297 -0.1626 -0.2307  0.1832
 3429W        W18560  16.882   8.771   2.980 -0.0338  0.3745  0.0353
 3430W        W18561  10.655   3.617   3.790 -0.0253  0.1328 -0.0260
 3431W        W18562  12.415  12.309  12.192 -0.0147  0.1024  0.2196
 3432W        W18563  15.277  11.752  12.996  0.2722 -0.0426 -0.1596
 3433W        W18564   1.709   6.112  14.924 -0.1917  0.0469  0.0491
 3434W        W18565   4.547   1.213  11.934 -0.2517  0.2914  0.2459
 3435W        W18566  14.786   5.757  12.400 -0.1524  0.0191 -0.2361
 3436W        W18567   3.274   9.014  11.854  0.0092 -0.0167  0.0916
 3437W        W18568  15.926   0.455  10.369  0.0066  0.1022  0.0020
 3438W        W18569   6.581  10.783  14.889 -0.1871 -0.0883 -0.0839
 3439W        W18570   3.659  13.622   2.438  0.1398 -0.0436 -0.1294
 3440W        W18571  15.499  12.491   2.581  0.1347 -0.0896 -0.1086
 3441W        W18572   3.440  11.180  15.547 -0.1047  0.0060 -0.0666
 3442W        W18573   2.070  12.838  12.088 -0.0238 -0.1797 -0.0880
 3443W        W18574  13.804   3.584   4.569 -0.1813  0.4066  0.1253
 3444W        W18575  17.824   4.542   2.264  0.0518  0.0817 -0.0849
 3445W        W18576   6.457  10.288  12.560 -0.1851 -0.1410 -0.0714
 3446W        W18577   3.579   7.933   3.364  0.1685  0.0730 -0.0533
 3447W        W18578   4.995  16.275   0.078 -0.0258  0.0030 -0.0443
 3448W        W18579   5.377   3.165   4.306 -0.3029 -0.1585 -0.1609
 3449W        W18580   6.044  18.331   4.279 -0.1257 -0.2182 -0.0099
 3450W        W18581   2.876   7.018   2.647  0.3223  0.1938 -0.0824
 3451W        W18582  12.100   2.450  13.253  0.0765 -0.1291  0.0216
 3452W        W18583   4.044   1.198  13.903  0.0508 -0.0279 -0.1256
 3453W        W18584  12.022  13.049  13.883 -0.0883 -0.0767  0.0855
 3454W        W18585   8.899  17.638   0.176 -0.1035  0.0071  0.1116
 3455W        W18586   1.258   5.910   1.402  0.1270  0.0763 -0.0808
 3456W        W18587   6.895  17.875   3.861 -0.0322  0.0747 -0.2967
 3457W        W18588  12.109   9.452  16.097 -0.0788 -0.1363  0.0665
 3458W        W18589  15.034   6.317  15.581 -0.1464 -0.1657  0.1150
 3459W        W18590  12.765  11.010  13.482  0.0306  0.2867  0.0734
 3460W        W18591   6.061   4.440  13.756  0.2225  0.0054  0.0689
 3461W        W18592   7.164  17.191   4.077 -0.0500  0.3466  0.1973
 3462W        W18593   4.740   7.139  11.816 -0.0181 -0.1117 -0.2876
 3463W        W18594  14.238   2.584  14.045 -0.0410 -0.2419  0.1832
 3464W        W18595   8.544  11.630  12.541 -0.0824 -0.2078 -0.0667
 3465W        W18596   9.622   7.705  13.689 -0.0386 -0.1543  0.1212
 3466W        W18597   6.941   5.079   3.645 -0.1999  0.5044 -0.0974
 3467W        W18598  18.000  15.338  11.952  0.0906 -0.1660 -0.0945
 3468W        W18599  16.847  10.387   3.498  0.2504 -0.1431 -0.1435
 3469W        W18600  13.437  16.661  10.689  0.0358  0.0598 -0.0361
 3470W        W18601   9.705   3.523   5.147 -0.2752 -0.1623 -0.0229
 3471W        W18602  17.631   6.938   4.951 -0.1151  0.1962 -0.0780
 3472W        W18603   7.464  16.943  10.982 -0.2394  0.0484 -0.2624
 3473W        W18604   2.838   6.292   1.452 -0.1744 -0.0436  0.0765
 3474W        W18605   1.871  14.853   0.625  0.0980 -0.1580 -0.0444
 3475W        W18606   6.201  12.580  11.665  0.0909 -0.2323 -0.2174
 3476W        W18607  12.930   4.020  12.697 -0.1701  0.2437 -0.2305
 3477W        W18608   8.910  15.758   3.734  0.2235 -0.1763 -0.0046
 3478W        W18609   4.269   5.106  11.440  0.0514  0.1123  0.0314
 3479W        W18610  12.238  10.483  15.141 -0.0284 -0.3154  0.0641
 3480W        W18611   4.242  18.305   2.159  0.0436 -0.0080 -0.0244
 3481W        W18612   1.179  12.557  15.692 -0.2297  0.0678  0.2058
 3482W        W18613  13.960  11.366   4.967  0.2834  0.1571 -0.4557
 3483W        W18614   4.531   1.765   4.706 -0.0326 -0.2740  0.0163
 3484W        W18615  14.215  10.240   6.506  0.1763  0.1493  0.0228
 3485W        W18616  12.486  11.693  13.737 -0.0392  0.2568  0.1447
 3486W        W18617  11.703  10.934   4.069  0.0729 -0.1692  0.1570
 3487W        W18618   1.615   5.978  12.769 -0.2285  0.2883 -0.2034
 3488W        W18619  17.379   5.991  14.803  0.0864  0.2763  0.4184
 3489W        W18620   1.545   9.102  12.080 -0.0675  0.4662 -0.0174
 3490W        W18621   6.905  13.624   2.223  0.2138  0.0758  0.0109
 3491W        W18622   1.170   1.419   2.795 -0.3621  0.0302 -0.0632
 3492W        W18623   0.057   9.227  14.655  0.2615  0.0709 -0.2315
 3493W        W18624  13.883   6.408  14.981  0.5124 -0.1356 -0.0584
 3494W        W18625  13.139  14.269   2.168  0.0823  0.1247  0.0995
 3495W        W18626   1.978  18.303   0.719  0.0448 -0.0090 -0.0494
 3496W        W18627  12.330   0.642   2.187 -0.2486 -0.1568  0.4222
 3497W        W18628   8.821   0.235  12.872 -0.2029  0.3579  0.0877
 3498W        W18629  10.519   5.567  11.084 -0.0021 -0.1702 -0.0846
 3499W        W18630  12.789  13.551   5.818  0.2435  0.2089 -0.2797
 3500W        W18631  14.787  16.327   4.702  0.2073 -0.0624  0.0213
 3501W        W18632  18.360   4.736  14.376 -0.3054  0.1469  0.4689
 3502W        W18633  16.224   5.242  11.793  0.0150  0.1326  0.0441
 3503W        W18634  13.758   2.817   5.885  0.0044  0.0791 -0.0662
 3504W        W18635   8.450   0.956   1.598  0.1600  0.0976 -0.2008
 3505W        W18636   3.848   8.793  11.614 -0.0818  0.0064 -0.3112
 3506W        W18637   9.545  14.368  14.713 -0.1912 -0.0951 -0.2894
 3507W        W18638  10.424   9.508  14.464  0.0516  0.0323 -0.1400
 3508W        W18639   2.786  14.739   1.479 -0.0799 -0.0180 -0.3516
 3509W        W18640   4.130  14.985  14.647  0.2397  0.1265 -0.0580
 3510W        W18641  12.043   7.740  13.594  0.0077  0.1580 -0.2176
 3511W        W18642  15.353  16.517  14.502 -0.1872 -0.1561 -0.1782
 3512W        W18643   1.609  18.419  12.059 -0.0375  0.0066  0.0764
 3513W        W18644   7.538  14.908   4.743  0.0800  0.0153  0.1091
 3514W        W18645   6.362   8.152   5.492 -0.2217  0.2573 -0.3502
 3515W        W18646   0.618   7.063   5.619 -0.1121  0.0099 -0.1490
 3516W        W18647   7.425   2.545   2.530  0.0116 -0.0657 -0.1966
 3517W        W18648  13.191  15.887   3.069 -0.0791 -0.0490  0.0565
 3518W        W18649  16.418   3.280   3.946 -0.2049 -0.0785 -0.0938
 3519W        W18650  15.015  16.720  14.965  0.0816 -0.0222 -0.4864
 3520W        W18651  10.002   4.775   0.640 -0.1972  0.3155 -0.0177
 3521W        W18652   1.409  11.790   1.618  0.0333 -0.2054  0.0298
 3522W        W18653   4.647   9.802   2.825 -0.0173  0.2864  0.0315
 3523W        W18654   0.724  14.925   2.385  0.1328  0.0319  0.1137
 3524W        W18655  13.621   6.111   6.103  0.1434 -0.4469  0.0519
 3525W        W18656   0.509  12.210   2.030 -0.2351 -0.4921  0.1105
 3526W        W18657   0.453  12.278  14.604  0.3062 -0.2678  0.1587
 3527W        W18658   2.109  10.322  15.514  0.5857  0.1209 -0.1414
 3528W        W18659  17.543  15.836   4.399 -0.2393 -0.3171 -0.2976
 3529W        W18660  13.038  14.804  14.856 -0.1448  0.0458 -0.1287
 3530W        W18661  13.972   4.061   4.619 -0.1573 -0.2275  0.2412
 3531W        W18662   2.179   1.924  11.766  0.1498 -0.1159  0.0519
 3532W        W18663   3.630   7.958  14.482 -0.0226  0.1183  0.0975
 3533W        W18664   7.483   7.437  12.727 -0.2814 -0.3300  0.2669
 3534W        W18665   0.553   7.096   2.502 -0.1516 -0.0046 -0.2928
 3535W        W18666   1.651  11.883   0.869 -0.0555 -0.1648 -0.2082
 3536W        W18667  10.147   8.086   6.090  0.2909  0.1204  0.4999
 3537W        W18668  18.276  14.583  11.455  0.1113  0.0918  0.2164
 3538W        W18669  18.437  16.276  14.012  0.3173 -0.0613 -0.2574
 3539W        W18670  16.621   5.425  15.027  0.1809  0.1190  0.1925
 3540W        W18671  10.024  15.853  11.899 -0.3576 -0.1581  0.1711
 3541W        W18672  17.552   4.764   4.252 -0.0954  0.1364 -0.5676
 3542W        W18673   5.634  10.455   0.294 -0.0259  0.2447 -0.1986
 3543W        W18674  18.452   0.885   2.414 -0.0857 -0.3454 -0.2974
 3544W        W18675   2.324  14.220  15.487 -0.0853 -0.1351  0.1643
 3545W        W18676  11.783   5.263   3.092  0.1034  0.0853  0.0009
 3546W        W18677  12.820   1.967   2.058  0.2098 -0.1166  0.1294
 3547W        W18678  12.555  18.367   0.544 -0.1048  0.0657 -0.1528
 3548W        W18679  17.241   3.618   3.286 -0.0872  0.1033  0.3380
 3549W        W18680  12.578  11.961  13.206  0.2068  0.2365 -0.1847
 3550W        W18681   4.731   1.408  11.230 -0.4373  0.1996 -0.1431
 3551W        W18682   8.383   8.821   0.145 -0.0142 -0.1439  0.2030
 3552W        W18683   4.295  16.823  15.719 -0.0083 -0.0627  0.2932
 3553W        W18684   7.874   9.311  12.865 -0.0256  0.1202 -0.1109
 3554W        W18685   0.360   9.080  15.163 -0.0474 -0.1429 -0.2695
 3555W        W18686   8.810  12.637  12.963  0.2603 -0.2794  0.1471
 3556W        W18687  12.332   6.345   6.391 -0.0708 -0.1658 -0.3626
 3557W        W18688  13.075  10.621   4.251 -0.2041  0.1685 -0.2214
 3558W        W18689  12.179  13.612  13.349  0.3768 -0.0598 -0.2803
 3559W        W18690   3.665   6.669   4.891 -0.2982 -0.3048 -0.1004
 3560W        W18691  16.975   1.637  14.040 -0.3616  0.1269 -0.3228
 3561W        W18692   0.074  12.088  13.300  0.0291 -0.5525  0.0635
 3562W        W18693   0.734   9.452   3.728  0.1402 -0.1472 -0.0101
 3563W        W18694   9.179   9.717   0.565  0.1424 -0.0353 -0.0869
 3564W        W18695  13.390   8.340   5.461  0.1085 -0.2426 -0.2934
 3565W        W18696   0.601  10.486  10.165  0.1919 -0.0036  0.3170
 3566W        W18697  12.521  11.734  14.356 -0.0681 -0.0850 -0.0637
 3567W        W18698   6.005  14.585   5.338  0.1535 -0.1425 -0.1143
 3568W        W18699   2.947   8.006   2.335 -0.1758 -0.2105  0.0299
 3569W        W18700   9.239  18.306  11.111  0.2179  0.0360  0.6505
 3570W        W18701   3.375   9.627  12.652  0.0663 -0.0430  0.0942
 3571W        W18702  15.978  17.271   1.424  0.2287 -0.1490 -0.3242
 3572W        W18703   9.455  17.817   3.982 -0.2781  0.0232  0.3424
 3573W        W18704  10.577  12.783  13.780 -0.0052  0.1957  0.1258
 3574W        W18705   1.354   2.835   2.526  0.0048  0.1208  0.0978
 3575W        W18706  14.968   7.899   0.518 -0.2823 -0.2191 -0.1875
 3576W        W18707   8.282  12.410   0.443 -0.0779 -0.0244 -0.1082
 3577W        W18708   6.562   5.224   4.462 -0.0916  0.0494 -0.0064
 3578W        W18709   7.217   4.030   4.242 -0.0617 -0.4722  0.1921
 3579W        W18710   2.606  15.483  13.754  0.2374 -0.6182 -0.0245
 3580W        W18711   4.019  18.102   3.350 -0.1421  0.0264 -0.3213
 3581W        W18712  18.194   7.211   0.105 -0.0959  0.3852 -0.0637
 3582W        W18713   3.273  11.611   1.132 -0.0338 -0.2168 -0.1936
 3583W        W18714  14.917   6.558   1.106 -0.1376 -0.1080  0.5428
 3584W        W18715   2.700   0.421   3.945  0.2917  0.0279 -0.0073
 3585W        W18716  16.637   3.384  13.042  0.0604  0.2467 -0.0792
 3586W        W18717  16.516  16.389   5.790 -0.1289  0.0256  0.4742
 3587W        W18718   3.381  15.889  13.007 -0.0913  0.3507  0.3044
 3588W        W18719  15.905  17.892  12.056 -0.3166  0.3680 -0.1937
 3589W        W18720  15.365  13.686  11.363  0.0291 -0.1139  0.2209
 3590W        W18721   1.573   2.047  11.056  0.0436 -0.0634  0.3374
 3591W        W18722   8.334   0.666   5.364 -0.2158 -0.4130 -0.2726
 3592W        W18723   3.782  16.927  10.913 -0.0497  0.0928  0.2259
 3593W        W18724   2.843   9.968  12.287 -0.0606  0.0298  0.2616
 3594W        W18725   4.750   5.515   1.637  0.1687  0.0491 -0.0078
 3595W        W18726   4.944  18.366   3.476 -0.2961 -0.3220 -0.1947
 3596W        W18727  15.463   0.240  13.038  0.0866 -0.0079  0.0663
 3597W        W18728  14.817  10.419  14.617  0.0555  0.2808  0.2818
 3598W        W18729  10.761   3.607  15.889  0.0955 -0.0628  0.0399
 3599W        W18730  12.915  13.046  10.582  0.1126  0.2242  0.3520
 3600W        W18731  13.773  14.020   0.552 -0.1933 -0.0558  0.4651
 3601W        W18732  15.333   8.569  13.061  0.1358  0.0543 -0.1165
 3602W        W18733  18.301   4.138  10.306 -0.2140  0.2266 -0.1084
 3603W        W18734  11.853   0.646   1.705 -0.0232  0.0467  0.3056
 3604W        W18735   5.208   2.031   3.842 -0.0937 -0.2566 -0.2403
 3605W        W18736   0.182  12.991   1.514  0.2319  0.2981 -0.3087
 3606W        W18737   2.548   3.371   2.698  0.2812 -0.2965  0.0045
 3607W        W18738  10.922  11.835   3.454 -0.0347  0.1706  0.2172
 3608W        W18739   7.840   5.559   3.304 -0.0878  0.3127  0.1102
 3609W        W18740   6.154  12.723   3.229 -0.1867  0.3251 -0.2516
 3610W        W18741  13.449   8.252   2.255  0.3830  0.2644  0.1773
 3611W        W18742   6.726   6.621  12.411  0.1322 -0.2171 -0.2111
 3612W        W18743   3.082   7.957  13.539  0.1103  0.0471 -0.0411
 3613W        W18744  15.570   4.153   2.483 -0.0114 -0.0081  0.0170
 3614W        W18745  16.288  13.256  11.278  0.2531  0.1382 -0.0914
 3615W        W18746   9.857  14.595  11.244  0.3695 -0.0370 -0.3148
 3616W        W18747   9.221  14.075   0.645 -0.2063  0.0153 -0.0183
 3617W        W18748  11.565   0.329   1.443 -0.1144 -0.0852 -0.0173
 3618W        W18749  11.352   1.356   5.768 -0.2362 -0.0265 -0.1509
 3619W        W18750  15.399  11.224   0.826  0.2856 -0.0984  0.2571
 3620W        W18751   7.790  13.672   0.430 -0.0424 -0.1768  0.0359
 3621W        W18752  14.064  13.501   3.713 -0.0327  0.0604  0.1259
 3622W        W18753  13.583   7.431   3.343 -0.1364  0.0201  0.0425
 3623W        W18754  15.809  14.175  13.730  0.0820  0.4024 -0.0620
 3624W        W18755   8.454  10.191   1.066  0.0663  0.0279  0.0476
 3625W        W18756   0.280   4.635  12.366 -0.4230  0.0643 -0.0512
 3626W        W18757  13.878   0.426  14.373  0.0903  0.0177  0.1505
 3627W        W18758   5.764   0.757  13.734  0.1074  0.0690  0.2951
 3628W        W18759   3.355  13.089   3.051 -0.2166 -0.2138 -0.3620
 3629W        W18760   2.407  13.218  15.405 -0.0832 -0.1938  0.0396
 3630W        W18761  14.854  18.308   0.084 -0.3434 -0.2422 -0.1546
 3631W        W18762   5.951   8.706   0.175 -0.1578 -0.1736 -0.0124
 3632W        W18763   3.013   9.174   2.882  0.0187  0.0615  0.0112
 3633W        W18764   9.739   2.110  13.934  0.3640  0.2157  0.0780
 3634W        W18765   1.057   4.465  14.203  0.0294 -0.1183  0.0914
 3635W        W18766   3.851   0.334  14.984  0.0042 -0.2909  0.0630
 3636W        W18767  14.084   8.550   2.488 -0.1851  0.2803  0.2981
 3637W        W18768  17.626   7.682   4.867 -0.1169 -0.1396  0.3773
 3638W        W18769  13.203  11.251   3.739  0.1217 -0.1559 -0.0428
 3639W        W18770   1.883   0.904  15.340  0.2784  0.2055 -0.2029
 3640W        W18771   9.819  12.186   3.770 -0.0466  0.0818  0.0565
 3641W        W18772  18.078  14.618  14.644  0.0683  0.1969 -0.0813
 3642W        W18773   1.922   9.033  15.047  0.0007 -0.1943 -0.2431
 3643W        W18774  17.666   6.908  12.306 -0.1212 -0.0484 -0.0784
 3644W        W18775  12.103   0.742   1.254 -0.3541 -0.0373  0.0167
 3645W        W18776   5.628  11.474   3.742 -0.0660  0.0273 -0.1944
 3646W        W18777  10.711  15.102   5.745  0.0578 -0.2352  0.0500
 3647W        W18778  13.504   4.645   5.436  0.0085  0.1965  0.0274
 3648W        W18779   8.415   6.480  15.241 -0.1918 -0.1746  0.2962
 3649W        W18780  13.363   0.806   1.501  0.2487  0.0662  0.0142
 3650W        W18781  10.933   7.679  14.042  0.0445  0.1120 -0.3448
 3651W        W18782  13.292  16.029  14.137 -0.0478 -0.1448  0.3644
 3652W        W18783  13.974  10.838   1.369 -0.2722  0.3038  0.0760
 3653W        W18784   7.484  12.765   0.748  0.0311  0.1201 -0.1449
 3654W        W18785   6.224   8.831   3.758 -0.1724  0.0686 -0.1927
 3655W        W18786   8.489   4.636  15.546 -0.0156  0.3109 -0.0075
 3656W        W18787   3.850   8.568   3.986 -0.0437 -0.0550 -0.1470
 3657W        W18788  15.582   0.494  12.362  0.4114  0.0899  0.2463
 3658W        W18789   9.237   8.347   6.635  0.0073 -0.5495  0.3619
 3659W        W18790   6.436  15.790  10.640  0.0704  0.3702 -0.0387
 3660W        W18791  11.991  17.202   4.407 -0.0321  0.0398  0.2265
 3661W        W18792  12.372  15.449   0.026  0.0305 -0.3055  0.0328
 3662W        W18793   6.068   5.895   1.298 -0.1553 -0.0486  0.1412
 3663W        W18794   6.397  13.798  10.706 -0.4419 -0.0790  0.2280
 3664W        W18795   8.484  17.195   3.404  0.2144  0.0632 -0.1587
 3665W        W18796  11.017  13.270   4.248  0.2077  0.4694 -0.1290
 3666W        W18797   3.331  13.654  14.130 -0.3350  0.1404 -0.1344
 3667W        W18798   0.040  12.228  14.311  0.3329 -0.1190  0.4036
 3668W        W18799   5.457  13.551   3.976 -0.2615 -0.0929  0.1096
 3669W        W18800  17.470   4.729   3.444  0.1461 -0.5025  0.1809
 3670W        W18801   5.631  14.917   3.795 -0.2066 -0.3092 -0.0040
 3671W        W18802  14.938  11.156  11.049  0.4444  0.0789  0.1993
 3672W        W18803   4.518   1.862   2.033  0.3234  0.0547  0.2673
 3673W        W18804  16.887  15.096  14.844  0.1207  0.0514 -0.1837
 3674W        W18805   2.621   0.259   4.518  0.2331  0.0358 -0.0900
 3675W        W18806  17.469  10.468   0.528  0.2101  0.0251 -0.4533
 3676W        W18807   8.241  12.119   2.574 -0.0759 -0.0890 -0.0030
 3677W        W18808   6.337  17.300   2.082  0.0767  0.1892 -0.0922
 3678W        W18809   2.106   4.951  11.519 -0.3477  0.1221  0.1021
 3679W        W18810   9.086  16.749  11.076  0.0442  0.0157 -0.1189
 3680W        W18811  12.390   8.441  15.649  0.2153 -0.1255 -0.2456
 3681W        W18812   1.478   5.504   1.727  0.1741  0.1460 -0.1214
 3682W        W18813  12.245   3.348  12.640 -0.2837  0.1064  0.0930
 3683W        W18814   2.965  13.410   0.633  0.1222 -0.3870 -0.0580
 3684W        W18815  16.480   4.194  13.474  0.1595  0.3121 -0.1746
 3685W        W18816   9.618   7.270  14.241 -0.2598 -0.3093  0.1637
 3686W        W18817  12.575  15.808   1.224 -0.0704  0.6252 -0.4357
 3687W        W18818  14.277   7.057  11.794  0.1725 -0.1240  0.0047
 3688W        W18819   2.498  15.727  12.830 -0.3235  0.2683  0.4835
 3689W        W18820   7.715  14.035  12.384 -0.3421  0.0196  0.2901
 3690W        W18821  15.593   9.728   4.743  0.0739  0.0455 -0.0255
 3691W        W18822  13.125   1.286  13.883 -0.0309 -0.1392 -0.0071
 3692W        W18823  13.017   7.444  12.910  0.1312 -0.0881  0.3067
 3693W        W18824   8.004  17.756   1.668 -0.2812 -0.3945  0.0295
 3694W        W18825  17.114  13.820  12.893  0.2003 -0.3293  0.0056
 3695W        W18826   1.885   5.550  14.204  0.0006  0.1344 -0.0050
 3696W        W18827  17.051   2.082  14.469 -0.3472 -0.0141 -0.1763
 3697W        W18828  11.487  11.160  11.893 -0.0289 -0.0583 -0.1447
 3698W        W18829  18.074  12.664  14.242  0.0013  0.4127  0.1576
 3699W        W18830   5.377  15.342  11.082  0.0261 -0.1550 -0.0947
 3700W        W18831  18.318   5.726   1.110 -0.1237 -0.1653  0.2584
 3701W        W18832   9.270  17.026  12.848  0.0058 -0.1877 -0.2166
 3702W        W18833   9.231  10.379  15.310 -0.3316 -0.0025 -0.0131
 3703W        W18834   2.542  11.950  11.038 -0.0486 -0.1303  0.0270
 3704W        W18835   8.172   7.825  13.670 -0.0654  0.0432  0.0806
 3705W        W18836   9.132  18.073  14.016 -0.1256  0.1536 -0.1914
 3706W        W18837   3.865   9.636   6.245 -0.3688 -0.0075 -0.0030
 3707W        W18838   3.992   0.764   3.306  0.1968 -0.0039  0.1534
 3708W        W18839  17.278   2.787   4.558 -0.2413 -0.1428  0.0876
 3709W        W18840   1.632  14.658  11.498 -0.2981  0.2222 -0.0601
 3710W        W18841   7.491  16.815  13.190 -0.1966 -0.2129  0.1718
 3711W        W18842   2.608  18.436   3.160  0.1927  0.0001  0.3992
 3712W        W18843   7.324   0.943   4.226 -0.1179 -0.1085 -0.1076
 3713W        W18844  10.914  13.062  12.366 -0.1515  0.2652  0.5827
 3714W        W18845   9.848  13.921  14.797  0.2752 -0.1224 -0.1133
 3715W        W18846   6.165   0.043   2.714  0.0725 -0.2114  0.2650
 3716W        W18847  11.133  10.933  14.460  0.0690  0.1582 -0.1534
 3717W        W18848   8.960   1.769   1.804 -0.2143 -0.2759 -0.1734
 3718W        W18849   2.134  16.509   4.149 -0.0951 -0.2524 -0.2680
 3719W        W18850  10.993  13.897  14.055  0.0588  0.0474 -0.0351
 3720W        W18851  13.344  15.503  13.075 -0.0693  0.1974  0.3398
 3721W        W18852   2.024  15.535  11.970  0.0246  0.2395 -0.0411
 3722W        W18853  16.891  14.644   0.287  0.2484  0.0626 -0.0267
 3723W        W18854   7.492   6.145   1.702 -0.0082  0.1869 -0.1414
 3724W        W18855   7.618  17.181   4.386 -0.0603  0.0772  0.0177
 3725W        W18856   2.608   4.126  11.441 -0.0744 -0.1227  0.0450
 3726W        W18857  16.084   7.663  14.892 -0.2019 -0.3865  0.3453
 3727W        W18858   7.231   6.467   1.381  0.4574  0.1795 -0.3316
 3728W        W18859   0.642  11.571   0.055  0.1436  0.1172 -0.0050
 3729W        W18860  12.639   4.938   4.846  0.0710 -0.0005 -0.2088
 3730W        W18861  15.867   9.607   1.855  0.3844  0.1684 -0.0944
 3731W        W18862  17.705   5.371  12.057 -0.3565  0.2359  0.4968
 3732W        W18863  13.150   5.305  14.039 -0.3382 -0.1541 -0.0345
 3733W        W18864   2.181  11.428   5.452  0.0560 -0.4741  0.3827
 3734W        W18865   0.288  14.048  10.661  0.3262  0.0946 -0.2430
 3735W        W18866   4.970   7.278  13.184  0.3469 -0.0197  0.0533
 3736W        W18867   1.440   3.509   0.339 -0.0428 -0.2743 -0.1644
 3737W        W18868  16.848   4.538   5.195 -0.0969 -0.1251  0.1513
 3738W        W18869   9.791   9.503   1.264  0.0693 -0.1791 -0.0509
 3739W        W18870   6.978  10.771  14.326  0.2852 -0.1120 -0.4033
 3740W        W18871   2.706  13.183   2.460 -0.0727 -0.1662 -0.2223
 3741W        W18872  11.126  11.892   2.396 -0.5078 -0.1763  0.0384
 3742W        W18873   0.533   0.087   4.317  0.1019 -0.1415 -0.3023
 3743W        W18874   2.739  16.583   0.153 -0.2525 -0.0365  0.2059
 3744W        W18875  17.625   8.925   3.671 -0.2623 -0.3323  0.3863
 3745W        W18876  12.012  16.587   5.383 -0.3368 -0.1699  0.1070
 3746W        W18877   3.973  17.996   1.060  0.0888  0.0614 -0.2593
 3747W        W18878  11.103  17.935  13.121  0.1727 -0.1028 -0.0360
 3748W        W18879   4.031  13.504  10.659 -0.1280 -0.5916 -0.2569
 3749W        W18880  11.368   0.132  13.998  0.0524 -0.1973  0.0690
 3750W        W18881   9.013   8.143   6.105 -0.0268 -0.0679 -0.4241
 3751W        W18882  15.877  15.897  15.564 -0.1892 -0.0497  0.0895
 3752W        W18883  16.603  17.475  12.965 -0.0525  0.2762  0.0217
 3753W        W18884  13.730   0.759  11.144  0.4993 -0.0425 -0.0751
 3754W        W18885   4.603  17.654  12.918 -0.0476  0.3461  0.1302
 3755W        W18886  10.869  14.000  12.783  0.0366 -0.2402 -0.1545
 3756W        W18887   5.125   1.655   0.362  0.4480 -0.1615  0.0151
 3757W        W18888  18.032   7.687   5.173 -0.0390  0.0269  0.2175
 3758W        W18889   0.071  17.255  15.617 -0.0207  0.3885  0.3077
 3759W        W18890  10.973  18.357  14.143  0.3144 -0.0471 -0.1468
 3760W        W18891   7.376  13.152   4.424 -0.3366  0.0205  0.1399
 3761W        W18892  10.230  15.439   0.921  0.3846 -0.0899 -0.3750
 3762W        W18893  14.386  16.334   5.003 -0.2259  0.0351 -0.2423
 3763W        W18894  12.856  16.711  13.152  0.2235 -0.0025  0.0962
 3764W        W18895   6.559   8.874   2.061  0.1857  0.1560  0.3942
 3765W        W18896   3.880  16.354  11.807 -0.1091  0.1090  0.0630
 3766W        W18897   0.694   8.450  15.688 -0.1198  0.3369 -0.0951
 3767W        W18898  17.711  11.733  13.613 -0.1771 -0.3531 -0.0758
 3768W        W18899   5.381  16.431   0.320  0.1599  0.1159  0.1289
 3769W        W18900   9.902  11.286   3.466 -0.1174  0.1146  0.0491
 3770W        W18901  12.312   1.662   4.147 -0.2694 -0.2201  0.4684
 3771W        W18902   1.836  10.902  14.841  0.2562  0.0371  0.0773
 3772W        W18903  12.517   3.149   2.841  0.0908 -0.1392  0.2345
 3773W        W18904  13.909  14.440  12.236 -0.2162  0.3148 -0.1492
 3774W        W18905  12.992   1.626   0.089 -0.5911 -0.3769 -0.1435
 3775W        W18906  10.787   5.153   3.242  0.2320  0.5564 -0.1171
 3776W        W18907   9.482  14.034  10.399 -0.0899  0.1077  0.1927
 3777W        W18908   3.862   8.002   4.738 -0.0770 -0.0595  0.0343
 3778W        W18909   5.171   2.071  15.974 -0.1515 -0.0557  0.0158
 3779W        W18910   5.836   0.289  13.889  0.1014  0.4003  0.1439
 3780W        W18911   4.393   4.935   4.267  0.1568 -0.2112 -0.0645
 3781W        W18912  16.057  14.315   5.026  0.2089  0.2564 -0.1148
 3782W        W18913   8.595   8.644  11.762 -0.0908  0.1142 -0.0527
 3783W        W18914   8.370   8.992  12.283  0.1435 -0.0507  0.0796
 3784W        W18915  16.360  10.735  15.395  0.1048  0.1367 -0.3515
 3785W        W18916   9.480   4.139   3.655  0.1368 -0.0618  0.0418
 3786W        W18917  11.028  15.103  15.756  0.0645  0.3488  0.0992
 3787W        W18918   3.363   6.248   0.076  0.0107  0.0599  0.1346
 3788W        W18919  17.867  11.409  12.736  0.1741 -0.0932 -0.2044
 3789W        W18920   0.608   6.354   4.214 -0.0816  0.2647  0.1810
 3790W        W18921  11.713  14.557  14.751  0.0822  0.1544  0.1118
 3791W        W18922   0.171   1.837   0.652 -0.3003  0.2552  0.1686
 3792W        W18923   0.181  16.814   2.559 -0.2770  0.1299 -0.0472
 3793W        W18924   0.201   3.683  13.859  0.3479  0.0424 -0.0744
 3794W        W18925  17.202   2.795   0.180  0.0415 -0.0393  0.3276
 3795W        W18926   2.887   6.919  12.651  0.2143  0.1885 -0.4468
 3796W        W18927   6.173   0.242   1.627 -0.0342  0.2784 -0.0825
 3797W        W18928   9.140   3.595  13.506 -0.0913  0.2279  0.3187
 3798W        W18929   6.101   2.040   3.567 -0.3321  0.3330 -0.1979
 3799W        W18930   3.428  16.319  11.209 -0.2572 -0.2686 -0.0938
 3800W        W18931   6.536  16.849  13.895  0.2076  0.4913  0.0471
 3801W        W18932  14.744  13.266   1.264 -0.0391 -0.3540 -0.3921
 3802W        W18933   7.399  15.405  13.346  0.0006 -0.0721 -0.0816
 3803W        W18934   7.972   5.387   0.539 -0.0291  0.0634 -0.1303
 3804W        W18935   4.551   6.168   2.487 -0.1938  0.2928 -0.2448
 3805W        W18936   0.827   9.607   1.612  0.0458  0.1032  0.0184
 3806W        W18937  11.728  10.786  13.702  0.1960  0.0351 -0.0396
 3807W        W18938   7.343   9.876  11.796 -0.2214 -0.4295 -0.0102
 3808W        W18939  10.573  13.510  10.821  0.3453 -0.1486 -0.1470
 3809W        W18940   5.227  18.210  15.443  0.2376 -0.2211  0.0373
 3810W        W18941   0.406   4.291  15.920  0.0163 -0.0154 -0.2433
 3811W        W18942   0.122   8.215   0.981 -0.2586  0.1244  0.1200
 3812W        W18943  11.577   5.950  12.294  0.2184  0.1015  0.0433
 3813W        W18944  14.561  14.377  11.456  0.0789  0.0415  0.1482
 3814W        W18945   2.568  15.015   1.152  0.1916 -0.0144 -0.1092
 3815W        W18946   3.410  10.719  15.800  0.1892  0.1454 -0.1454
 3816W        W18947  13.329  10.842  11.267 -0.0787  0.1173 -0.3610
 3817W        W18948  12.140  18.247  13.934 -0.2357 -0.1527 -0.2501
 3818W        W18949   1.582  13.618   3.225 -0.1900  0.1999  0.0601
 3819W        W18950  14.019  17.896  13.661  0.2122 -0.2748 -0.1671
 3820W        W18951  14.497   9.631  11.281  0.0646  0.0368 -0.0553
 3821W        W18952   4.904   3.698  14.365  0.1443 -0.1826 -0.0950
 3822W        W18953  13.473  18.014   1.837  0.2645 -0.1522  0.3887
 3823W        W18954  10.790  12.765   2.004 -0.2462 -0.0624  0.1226
 3824W        W18955   0.505  15.810   3.567  0.1132 -0.3461 -0.2349
 3825W        W18956  10.229   9.314  11.270 -0.0944  0.0735 -0.3044
 3826W        W18957  12.476   6.397   5.761  0.3527  0.1870  0.1421
 3827W        W18958  10.265  17.145   2.871 -0.1357  0.0231 -0.2430
 3828W        W18959   1.872  12.545  11.214 -0.1362 -0.2085 -0.0146
 3829W        W18960  10.447   0.096  12.726  0.2533  0.0845 -0.2441
 3830W        W18961  15.644  18.224  11.799 -0.4409 -0.0380  0.1561
 3831W        W18962  13.006   9.332   2.581 -0.0806 -0.1317 -0.2883
 3832W        W18963   3.809   5.607   4.028  0.1894 -0.0457  0.0118
 3833W        W18964   3.529   3.870   4.752  0.0262  0.0932 -0.0034
 3834W        W18965   7.476  18.227  13.543  0.0601  0.2598  0.0010
 3835W        W18966  11.072   7.100   0.352 -0.2848  0.1401 -0.1926
 3836W        W18967  14.361   0.051   0.767  0.0246 -0.3412  0.0964
 3837W        W18968  17.648   0.728  14.575 -0.5438  0.1173 -0.0536
 3838W        W18969  12.970   7.081  12.580  0.2554  0.0907 -0.0249
 3839W        W18970  13.688  17.754  10.427 -0.1634 -0.0879  0.0849
 3840W        W18971  16.448   0.285   0.184 -0.5864  0.2265 -0.2010
 3841W        W18972   8.071  14.430  11.786  0.0598  0.2071 -0.1041
 3842W        W18973  17.321   9.699  13.464 -0.0361  0.1219 -0.0262
 3843W        W18974  15.171   1.359   4.695 -0.1653 -0.3350 -0.0001
 3844W        W18975   5.409  10.540  14.718  0.1877 -0.0782  0.2373
 3845W        W18976  11.934  16.911  15.029  0.1402  0.0814  0.0989
 3846W        W18977  12.357   4.366  10.982  0.1035 -0.0535  0.0726
 3847W        W18978  14.902  16.240   2.014  0.0756  0.1086  0.0949
 3848W        W18979   4.348   6.142  12.216 -0.1251  0.2138 -0.1105
 3849W        W18980  11.474  15.982  10.650  0.0023  0.0639  0.2162
 3850W        W18981   0.266   3.186  11.367 -0.2965  0.3354  0.0386
 3851W        W18982   6.906   1.489   4.041 -0.1284  0.0549  0.3736
 3852W        W18983   1.142   1.777  13.948 -0.3832 -0.2519 -0.2616
 3853W        W18984  11.536   4.827   5.215  0.2069  0.1439  0.1955
 3854W        W18985   0.619   5.822  15.215 -0.2916 -0.0317  0.0030
 3855W        W18986  11.372   1.486  13.026  0.2662 -0.0125  0.2794
 3856W        W18987  11.109   7.116   6.346  0.1084  0.2915 -0.1351
 3857W        W18988   8.440   3.186   1.377  0.0299  0.0686  0.1880
 3858W        W18989  12.306   9.634   3.768  0.1761 -0.2181  0.3382
 3859W        W18990  14.511  17.519   0.070  0.0663  0.2286  0.0827
 3860W        W18991   2.017  16.941   4.634  0.0893  0.1736  0.2337
 3861W        W18992   3.430   5.216   2.432  0.0505 -0.1051 -0.0213
 3862W        W18993   1.323   7.609   0.071  0.2855  0.1481 -0.0355
 3863W        W18994  10.793   6.545   4.390  0.1302  0.0303 -0.2160
 3864W        W18995   1.627  16.112  11.172  0.2093 -0.2020  0.0357
 3865W        W18996   9.354  16.225  15.621 -0.4810  0.0169 -0.1483
 3866W        W18997  10.334  12.050   4.437  0.0679 -0.3391 -0.2204
 3867W        W18998   3.926   5.495  11.209 -0.3096  0.1079  0.0630
 3868W        W18999   0.931   2.821   1.580 -0.2014  0.1560 -0.3014
 3869W        W19000   6.907  15.441   4.386 -0.2379 -0.2805  0.3417
 3870W        W19001   6.132   9.653   4.516 -0.0697  0.1896  0.1245
 3871W        W19002   4.401   2.156   0.004 -0.2706  0.0590 -0.0140
 3872W        W19003   3.096   3.008  14.207  0.0518 -0.2854 -0.0167
 3873W        W19004  15.655  16.699   0.226  0.4294 -0.2170 -0.0989
 3874W        W19005   4.201   4.983  15.856  0.0506 -0.0913  0.0558
 3875W        W19006   4.039   6.605   1.280  0.0158  0.2969 -0.1614
 3876W        W19007   4.873   6.987  15.341  0.2757 -0.2533 -0.2918
 3877W        W19008   1.263   3.749  13.452 -0.1026  0.0894  0.1385
 3878W        W19009  17.061  17.753  12.991 -0.1723  0.1314  0.0283
 3879W        W19010   2.374  12.111   3.681 -0.2140 -0.0219 -0.0355
 3880W        W19011  16.430  17.186   4.137 -0.3622  0.2276 -0.1672
 3881W        W19012  11.117   2.934  15.275  0.2414  0.4315 -0.0607
 3882W        W19013  13.628   4.137  12.384 -0.1251 -0.1129 -0.4349
 3883W        W19014   6.225   0.544  11.853  0.2545  0.1981  0.2456
 3884W        W19015  15.213   9.816  13.247 -0.0686 -0.0921  0.0243
 3885W        W19016   5.193  10.267  11.195 -0.1579 -0.0908  0.1536
 3886W        W19017  14.678  11.032  14.638  0.1046  0.4254  0.0620
 3887W        W19018   9.600   1.956   2.679 -0.3775  0.2791  0.1275
 3888W        W19019   2.278   7.085  16.047  0.4417  0.0403  0.2332
 3889W        W19020  16.878   0.882  15.123 -0.2012 -0.0884  0.1806
 3890W        W19021  16.435  12.925   5.167  0.2123 -0.2918  0.1243
 3891W        W19022   1.094   6.822   1.604 -0.0186 -0.1834 -0.1469
 3892W        W19023  12.206   4.048  12.415  0.0009 -0.2850 -0.1390
 3893W        W19024  15.850  14.709  14.289 -0.2497 -0.0102 -0.0096
 3894W        W19025   7.050  14.026   0.569  0.1671 -0.1274 -0.1698
 3895W        W19026   0.822  16.422  12.097  0.1093  0.0814 -0.2256
 3896W        W19027  16.356   1.008   4.109 -0.0641 -0.2536 -0.2827
 3897W        W19028   8.985   6.718   6.404  0.4724 -0.1850  0.1275
 3898W        W19029  14.425   6.494  13.529 -0.4063 -0.0064 -0.0235
 3899W        W19030  11.029  12.738   5.485 -0.0533  0.0423 -0.0178
 3900W        W19031   7.887  13.549   4.351 -0.1461 -0.2539  0.2040
 3901W        W19032   9.497   6.049   5.474 -0.1319  0.2339  0.1167
 3902W        W19033   0.557   4.336   4.618  0.3006 -0.0409 -0.1219
 3903W        W19034   4.474   7.482   4.340 -0.0373  0.1660 -0.0713
 3904W        W19035  11.311   2.294   4.540 -0.2085  0.0210 -0.0368
 3905W        W19036   9.099  12.758   0.911 -0.0622 -0.1750 -0.1902
 3906W        W19037  17.300  16.916  12.376  0.0629 -0.4606 -0.3588
 3907W        W19038   6.530  15.722  11.616  0.0565  0.0159  0.0350
 3908W        W19039  14.514  13.326   3.573 -0.1969 -0.2066  0.0238
 3909W        W19040  11.493   7.103   0.008 -0.2043  0.1145 -0.3059
 3910W        W19041  16.664  17.095   2.128 -0.2118 -0.2336 -0.0228
 3911W        W19042   8.868  14.820   3.858 -0.3082 -0.0155  0.4689
 3912W        W19043   1.293   2.432   3.828  0.1815 -0.0689  0.2899
 3913W        W19044   5.982  15.587  11.007  0.2400  0.2346 -0.0222
 3914W        W19045  17.573   0.313   0.075  0.3461 -0.0347 -0.1160
 3915W        W19046  11.370  16.350   4.490  0.2756  0.0907 -0.1850
 3916W        W19047  13.527  14.389   5.173 -0.4476 -0.2282 -0.2874
 3917W        W19048   2.116  13.012  15.054 -0.2417  0.0005  0.1973
 3918W        W19049  13.982  10.699  14.259 -0.0507  0.1773  0.2404
 3919W        W19050  15.506   2.793  14.496  0.5735 -0.0973  0.0357
 3920W        W19051  12.149   7.926   5.788 -0.4083 -0.2424  0.1081
 3921W        W19052  10.858   0.851   2.188 -0.1317 -0.0644  0.2937
 3922W        W19053   5.648   6.708   4.599 -0.0947 -0.4972 -0.2436
 3923W        W19054   0.247   3.009   3.105 -0.0143 -0.0377  0.0786
 3924W        W19055  13.920  13.034  12.068 -0.1409 -0.0139  0.3729
 3925W        W19056  10.147  12.676   1.417 -0.0882  0.0177 -0.0070
 3926W        W19057   9.676  16.744   1.182 -0.0820  0.3732  0.0338
 3927W        W19058  12.927   6.665   3.458  0.1279  0.2946 -0.3319
 3928W        W19059   1.245   6.992  14.663  0.1523  0.2263  0.0314
 3929W        W19060   9.541  10.336   5.542  0.1229 -0.1947 -0.2968
 3930W        W19061   5.320   2.981   0.868 -0.0952 -0.1476  0.1033
 3931W        W19062   0.436  10.418   1.137  0.1760 -0.0062  0.2916
 3932W        W19063   2.767   9.566  15.963  0.2384 -0.0967  0.3463
 3933W        W19064   6.473   6.039  10.952  0.0480 -0.0051  0.0872
 3934W        W19065  11.997   6.320   5.522 -0.0177 -0.0924 -0.1432
 3935W        W19066  16.311   1.716   3.735 -0.2720  0.0100  0.1627
 3936W        W19067   6.481   4.571   2.963  0.0736 -0.0509  0.1563
 3937W        W19068   5.708  17.986  15.375 -0.1994 -0.0979  0.1144
 3938W        W19069   4.874   0.015   4.464 -0.0058 -0.0874  0.2004
 3939W        W19070   5.219   8.683  15.571  0.0811 -0.0054 -0.1534
 3940W        W19071   1.602  11.311  15.274  0.1017  0.1417  0.1200
 3941W        W19072   8.837  13.744  12.858 -0.0212  0.2428  0.0029
 3942W        W19073   9.929   8.686   3.404  0.0323  0.0987  0.1699
 3943W        W19074   5.263  16.633  12.897 -0.1338 -0.0067  0.1652
 3944W        W19075  14.683  10.880   2.460  0.6185 -0.3833  0.0244
 3945W        W19076  10.432  10.976  15.112 -0.0173 -0.1421  0.2720
 3946W        W19077   2.813   1.674   2.166 -0.0273  0.2027  0.2095
 3947W        W19078   6.647   0.949   3.735  0.2862 -0.0553  0.3206
 3948W        W19079  11.690  11.208  10.625 -0.1203  0.1240  0.0354
 3949W        W19080  14.020  10.868   4.854 -0.4550 -0.0811 -0.1090
 3950W        W19081  14.052   3.576  15.212  0.0212  0.3154 -0.1261
 3951W        W19082   5.997   0.600   9.499 -0.0646  0.2252  0.0614
 3952W        W19083  14.527   8.677  15.900 -0.1029 -0.2164  0.1019
 3953W        W19084   5.554  13.127   2.355  0.2616  0.0398  0.0086
 3954W        W19085  12.454   2.671   5.016  0.1029  0.1011  0.1502
 3955W        W19086  10.988  17.461   2.426 -0.2048 -0.0695  0.0717
 3956W        W19087   2.075  13.882  11.208 -0.1362  0.1690 -0.3222
 3957W        W19088   9.093  14.622  15.063  0.1780 -0.1115  0.0771
 3958W        W19089   1.400  16.742  13.426  0.0193 -0.3516  0.0059
 3959W        W19090   9.020   2.054   4.828  0.2165 -0.3544  0.0194
 3960W        W19091   7.287  15.273   1.909 -0.0317 -0.2919 -0.2302
 3961W        W19092  18.177   2.606   5.234  0.1356  0.1563 -0.1579
 3962W        W19093  10.532   3.146   3.755 -0.1303  0.0870  0.0498
 3963W        W19094   5.798   3.067   9.813  0.0060  0.0499 -0.0249
 3964W        W19095  13.950  17.877  14.649 -0.0793  0.4329  0.0151
 3965W        W19096  12.892  15.524  13.798 -0.0941  0.2199 -0.0558
 3966W        W19097  13.625  17.822   2.868 -0.0005 -0.2787 -0.1083
 3967W        W19098   6.093  17.709  15.134  0.2404  0.0147  0.0427
 3968W        W19099  13.415   6.708  15.493  0.0236 -0.3094 -0.1062
 3969W        W19100  13.165   8.970   2.150  0.2221  0.3241  0.1522
 3970W        W19101  17.612  14.609   1.458 -0.0004 -0.0051  0.0071
 3971W        W19102   4.503   9.631   3.692 -0.0400  0.1340  0.1480
 3972W        W19103   3.651  11.747   1.459 -0.3525  0.1917  0.2841
 3973W        W19104   2.987   9.268   5.065 -0.2005  0.1004 -0.0715
 3974W        W19105   4.033  10.489   4.512  0.0386 -0.2089  0.2371
 3975W        W19106  11.596  14.792   5.788  0.1452 -0.1581  0.0055
 3976W        W19107  18.366   3.254   1.194  0.0745 -0.0633  0.1062
 3977W        W19108   2.366   9.764   0.010 -0.0901 -0.1992  0.0592
 3978W        W19109  14.329   9.398   0.714 -0.1742 -0.0323 -0.3267
 3979W        W19110   4.841  16.214   1.634  0.3121  0.1600 -0.0789
 3980W        W19111  12.531   1.641  13.631 -0.0682  0.0289  0.0860
 3981W        W19112   5.582  16.230   0.750  0.0159  0.0638 -0.1418
 3982W        W19113   4.186   0.531   5.531  0.2541  0.0610  0.1180
 3983W        W19114   3.891  14.401  12.308 -0.0796 -0.0563 -0.3805
 3984W        W19115  16.852   5.065  10.930  0.0792  0.1295  0.2482
 3985W        W19116  10.168  13.914  10.842  0.0428 -0.2204  0.0329
 3986W        W19117   0.977   0.749   3.374 -0.1228 -0.0324  0.2908
 3987W        W19118   5.774  10.531  11.915 -0.1707 -0.1332  0.2530
 3988W        W19119   6.474   6.285   2.290  0.2981  0.4373  0.1540
 3989W        W19120   1.643   2.916  14.323 -0.1438  0.3285 -0.2989
 3990W        W19121  17.490   6.351   3.186  0.2051 -0.0442 -0.1222
 3991W        W19122  11.200  17.599  13.542 -0.2286  0.0883  0.1495
 3992W        W19123  15.445  14.479   4.591 -0.1117 -0.0793 -0.2793
 3993W        W19124  16.947  15.103  13.891 -0.0589 -0.1710  0.0224
 3994W        W19125   6.413   9.452   5.194  0.0352 -0.0481  0.1405
 3995W        W19126   8.025  11.834  11.817  0.0978  0.0083 -0.1321
 3996W        W19127   6.898  16.411  12.118  0.0391  0.2045 -0.0417
 3997W        W19128   3.038  11.987   0.367  0.0491  0.1045  0.1855
 3998W        W19129   1.462   4.797   4.272 -0.0948 -0.2630 -0.1085
 3999W        W19130  12.643  17.089   0.353 -0.1927  0.0818  0.0366
 4000W        W19131   2.452  14.227  16.003 -0.0911  0.0727  0.1261
 4001W        W19132  16.081  10.035   3.245 -0.1906  0.3335 -0.1917
 4002W        W19133   2.104  11.210  15.230 -0.0015  0.0037 -0.0607
 4003W        W19134  17.787   1.193  15.450  0.2861 -0.0737 -0.0400
 4004W        W19135  17.444   9.977   0.192 -0.0197 -0.1147  0.1240
 4005W        W19136   8.729  14.285  15.087 -0.1928  0.2597  0.0743
 4006W        W19137   8.838   5.120  11.465 -0.4394 -0.0332 -0.1531
 4007W        W19138   3.280  14.621  14.991  0.1038 -0.2316 -0.2202
 4008W        W19139  12.104  10.534  12.125  0.2414  0.1113 -0.0941
 4009W        W19140   8.966  11.744  15.855  0.0295  0.2100  0.0575
 4010W        W19141  13.108  14.552  11.422 -0.0845 -0.0004  0.2313
 4011W        W19142  14.210  16.670   1.664 -0.3933  0.1929  0.0233
 4012W        W19143   7.318   0.792  13.386 -0.1512  0.1277  0.4097
 4013W        W19144  11.091   8.172   0.465  0.2194  0.0897 -0.0029
 4014W        W19145  12.547   8.972  13.205  0.2763 -0.1874 -0.1161
 4015W        W19146   4.771  15.190   4.509 -0.2202 -0.1571 -0.3403
 4016W        W19147  10.072  18.392   1.749  0.1157 -0.2038  0.0190
 4017W        W19148   3.106   3.743  13.634 -0.0298  0.5389  0.0243
 4018W        W19149   3.607  16.595  13.360  0.0623  0.1786  0.2023
 4019W        W19150   3.975   6.709   0.748 -0.1798  0.3148  0.0379
 4020W        W19151   4.513  14.127  14.556 -0.0523 -0.1774 -0.2464
 4021W        W19152  15.410   7.253  14.464  0.2690 -0.4877 -0.2693
 4022W        W19153  10.167   3.839   4.324  0.0487 -0.0479 -0.3760
 4023W        W19154  10.430   9.985   1.992 -0.1087 -0.0100 -0.2642
 4024W        W19155  12.746   2.108   5.031 -0.3669 -0.0367 -0.1625
 4025W        W19156  12.982  16.547   1.954  0.2782 -0.0885  0.0520
 4026W        W19157  10.569   9.050   0.837  0.0300  0.2544  0.1304
 4027W        W19158   6.295   8.474  11.474 -0.1826 -0.0771 -0.1782
 4028W        W19159  10.014   1.810  15.253 -0.0767  0.0589  0.0803
 4029W        W19160   1.638  14.035   1.859 -0.0960 -0.0668  0.1862
 4030W        W19161   4.639   7.679  11.208 -0.2480  0.0707  0.0661
 4031W        W19162   0.472   0.990   5.366  0.0930  0.4571  0.1131
 4032W        W19163   5.071  12.987   2.755  0.1450  0.1328  0.0979
 4033W        W19164   8.231  17.728   3.304 -0.0277 -0.0876  0.0256
 4034W        W19165  18.261  13.340   4.714  0.1090 -0.2256 -0.0378
 4035W        W19166   9.352   1.656   6.039 -0.3492  0.0537  0.0057
 4036W        W19167  17.090   9.654  12.996 -0.0151  0.4390 -0.0128
 4037W        W19168  12.356  17.993   2.993  0.1539 -0.1800 -0.2550
 4038W        W19169   5.768   9.636  11.764  0.0033  0.0710 -0.1260
 4039W        W19170   7.057   0.588  14.475 -0.0742 -0.2690 -0.0738
 4040W        W19171  12.943  15.448  15.330  0.3739  0.1808  0.0668
 4041W        W19172   6.605   3.037  12.376  0.0035  0.0451 -0.1596
 4042W        W19173   2.987  16.883  11.858 -0.0120 -0.3798  0.3189
 4043W        W19174   9.445  16.699   1.724 -0.0490 -0.2953  0.1232
 4044W        W19175   6.305  10.249   0.195 -0.2424  0.4184  0.1106
 4045W        W19176  16.220   0.433   4.771  0.2280  0.2729  0.2523
 4046W        W19177   9.734   3.277   6.055 -0.0705  0.3208 -0.1051
 4047W        W19178   0.730  18.000  15.467  0.0907  0.1857  0.3287
 4048W        W19179   0.476   3.300   5.311  0.1070  0.2390 -0.0860
 4049W        W19180   0.545  13.503   4.044  0.3097 -0.0840 -0.0708
 4050W        W19181   8.054   7.157   6.107 -0.1250 -0.0138  0.2290
 4051W        W19182   4.883   8.167  14.181 -0.2407  0.0752  0.1387
 4052W        W19183   2.115  13.418  11.398  0.2780 -0.2004  0.2703
 4053W        W19184   2.214  16.018   4.350  0.1804 -0.2277 -0.2759
 4054W        W19185   4.666   6.360  11.363 -0.0511  0.1521  0.0413
 4055W        W19186   8.715   6.011  11.721 -0.1262  0.1057 -0.2115
 4056W        W19187   0.210   9.729  14.806 -0.2089 -0.6673 -0.1637
 4057W        W19188   5.244   4.639   1.144  0.1114 -0.1003 -0.0923
 4058W        W19189  10.714  13.874  12.130  0.0975  0.2880  0.0358
 4059W        W19190   6.782   3.684   2.187  0.4647  0.1586 -0.2577
 4060W        W19191  11.761  15.589  10.669 -0.2540 -0.0288  0.1420
 4061W        W19192  17.091  15.806   0.862 -0.3327 -0.1640 -0.2497
 4062W        W19193   0.610   4.607   3.621  0.1605  0.1417  0.1581
 4063W        W19194   4.362  16.779   4.575 -0.2866  0.3436  0.1820
 4064W        W19195  16.155   8.591   0.390 -0.1944  0.3489  0.0493
 4065W        W19196  15.725   6.564   0.849  0.0159 -0.0583  0.1673
 4066W        W19197   0.660  18.273  10.562  0.4332  0.0231  0.2291
 4067W        W19198   7.162   9.379  11.308  0.1792 -0.1691  0.3257
 4068W        W19199   9.990  13.219  14.500 -0.1907  0.2087 -0.1240
 4069W        W19200   8.114   5.307   2.959 -0.4160  0.0351  0.0409
 4070W        W19201   4.279  11.553  13.074  0.1288  0.0611 -0.2002
 4071W        W19202  15.514  13.107   2.419  0.0784 -0.1042  0.0948
 4072W        W19203  10.239  16.059   0.188 -0.0175  0.0045 -0.1566
 4073W        W19204  17.781   1.478  14.260 -0.1396 -0.2740  0.0518
 4074W        W19205  13.600   1.862   5.250  0.1940  0.3436  0.0269
 4075W        W19206   0.149   8.502  13.871 -0.2530 -0.3080 -0.1207
 4076W        W19207  13.043  16.897   3.099  0.0750 -0.2019 -0.1346
 4077W        W19208  14.713   5.156   6.949 -0.2348  0.1182 -0.4041
 4078W        W19209   0.375   5.536  15.800  0.1196 -0.1308  0.0898
 4079W        W19210   3.412   6.748   5.333 -0.5689 -0.0971  0.3334
 4080W        W19211   8.710  16.500   3.140  0.0749  0.2336 -0.2780
 4081W        W19212   9.746   7.164   0.308  0.2335 -0.2894 -0.2617
 4082W        W19213   0.278   0.291  13.322 -0.0091 -0.0020  0.1980
 4083W        W19214   1.301  10.880  15.333  0.1290 -0.1038  0.0303
 4084W        W19215   4.719  12.840  15.112 -0.0920  0.2385 -0.3307
 4085W        W19216   6.412  10.919   3.119 -0.4164 -0.2777 -0.2390
 4086W        W19217   3.499  11.491   1.929  0.0231 -0.0617  0.1957
 4087W        W19218  11.031   8.712   3.886  0.0905 -0.1015 -0.0862
 4088W        W19219   2.396   2.111  10.581  0.1233  0.1538  0.3296
 4089W        W19220   8.412   9.966  15.503  0.2403  0.1431  0.2096
 4090W        W19221   4.094  16.223  12.297 -0.1642 -0.0367 -0.1300
 4091W        W19222   9.074  10.748   0.602 -0.1082  0.2311  0.2175
 4092W        W19223   7.387   0.224  13.998  0.0298 -0.1269 -0.0688
 4093W        W19224   6.332  12.455   0.351  0.0264  0.0053  0.0755
 4094W        W19225  15.260   5.797  14.657 -0.2184 -0.3574 -0.0000
 4095W        W19226   1.880   5.158  14.633  0.0144  0.0453 -0.0945
 4096W        W19227  14.827   9.263  14.528 -0.2630 -0.2325 -0.0359
 4097W        W19228  11.252  14.009  15.257  0.1800 -0.0510  0.2267
 4098W        W19229   6.562  13.084  11.134 -0.0103 -0.4035 -0.2707
 4099W        W19230   7.162  17.434   3.043 -0.1367  0.1273 -0.1765
 4100W        W19231  15.513  10.500   1.615  0.1468  0.0309 -0.0793
 4101W        W19232  13.486   8.780   6.211  0.1477  0.1393 -0.0618
 4102W        W19233   2.587   6.941  15.069 -0.4061 -0.0588 -0.1572
 4103W        W19234  10.193   1.019   5.114  0.2336  0.0546 -0.0503
 4104W        W19235   1.817   0.525  15.661 -0.0351  0.0842  0.0166
 4105W        W19236   7.480  12.810   1.207  0.0428 -0.1987  0.0964
 4106W        W19237  10.672   9.465   3.099 -0.2310  0.0377 -0.2936
 4107W        W19238  15.291   6.248   3.977  0.0712 -0.2247  0.1973
 4108W        W19239   6.540   8.770   2.682  0.1472 -0.0532  0.1482
 4109W        W19240  14.745   7.152   0.843  0.0405 -0.3896  0.2818
 4110W        W19241  17.279   2.299   4.217  0.1675 -0.1417  0.3004
 4111W        W19242   0.466   0.382  12.563 -0.2103  0.0216 -0.1499
 4112W        W19243   5.091   6.480  13.713  0.0490 -0.1637 -0.0763
 4113W        W19244  11.447  12.476  14.598 -0.4854  0.0403 -0.2009
 4114W        W19245   1.646   2.987   3.228  0.2712  0.1846  0.2051
 4115W        W19246   0.447   1.244   2.478  0.1845 -0.0551  0.0903
 4116W        W19247  15.725  17.186  12.955  0.1078 -0.0112  0.0757
 4117W        W19248   2.834   8.908  14.728  0.1331 -0.2930  0.0163
 4118W        W19249   1.459   0.563   1.564 -0.1559 -0.0394 -0.1938
 4119W        W19250  10.316   5.670   3.096  0.0984  0.4079 -0.0463
 4120W        W19251  13.995  16.686  13.063 -0.0681 -0.1013 -0.1106
 4121W        W19252  14.181  15.796  14.148  0.0587 -0.1277 -0.2642
 4122W        W19253   1.730  17.591   2.445 -0.1363 -0.1767  0.0177
 4123W        W19254   5.689   3.747  15.313  0.0611 -0.0165  0.1264
 4124W        W19255  17.699  15.730   2.369  0.3912 -0.0883 -0.0220
 4125W        W19256   1.344   1.889  15.314 -0.1925 -0.0956  0.1727
 4126W        W19257   0.684   7.157  10.282  0.0816 -0.1201 -0.1760
 4127W        W19258   4.267  16.002  11.267  0.0334 -0.2198  0.0409
 4128W        W19259   7.308   6.080  12.383  0.0524  0.1622  0.0963
 4129W        W19260   7.866   0.914   0.337  0.0102  0.2270 -0.2231
 4130W        W19261   1.341   7.608  13.505 -0.0422 -0.0343 -0.1333
 4131W        W19262   9.958   1.559   5.754 -0.1210  0.2414 -0.0644
 4132W        W19263   6.548   7.275   0.058  0.2568 -0.4726 -0.0265
 4133W        W19264   1.201  10.646   2.675  0.0491 -0.1664 -0.3059
 4134W        W19265  14.214  17.458  13.762 -0.1195  0.2082 -0.4943
 4135W        W19266   8.843   8.785  16.009 -0.0173  0.2697 -0.1500
 4136W        W19267  17.526  15.584   4.828  0.1172 -0.0095  0.2848
 4137W        W19268  12.020  14.484   0.479 -0.3555  0.3299  0.0270
 4138W        W19269  17.566  16.388  13.797 -0.1874 -0.0076  0.1344
 4139W        W19270  12.146  18.177   1.337 -0.0892 -0.2355  0.1627
 4140W        W19271  15.613   0.434   1.461 -0.0644 -0.0095 -0.0741
 4141W        W19272  15.329   7.190   3.804  0.0307 -0.0506  0.0242
 4142W        W19273  18.444   3.319   4.015 -0.1600 -0.3038  0.0290
 4143W        W19274  13.984  12.416   4.957  0.0453  0.2163 -0.1061
 4144W        W19275  13.883   0.248  11.142 -0.1462  0.0315  0.2048
 4145W        W19276  15.886  12.002   1.818  0.1610 -0.2255 -0.0300
 4146W        W19277   0.030  15.576  12.734 -0.2264 -0.0129  0.0638
 4147W        W19278   1.045  14.085  15.979 -0.1131  0.2931 -0.0750
 4148W        W19279   1.016  11.589   5.091 -0.1487 -0.3002 -0.2393
 4149W        W19280   2.202   8.074   1.374 -0.2958  0.2337 -0.1196
 4150W        W19281  14.025  11.516   0.580 -0.0407  0.1591  0.0714
 4151W        W19282  10.526   9.022  14.565  0.3282  0.1073  0.1676
 4152W        W19283   0.605   6.021   1.272  0.1616 -0.3051 -0.3531
 4153W        W19284   9.907  10.183  11.398  0.1076  0.0669  0.1253
 4154W        W19285   5.673   0.168   1.102 -0.1234 -0.3908  0.3327
 4155W        W19286  12.438   1.511   5.877  0.0763  0.4254  0.5034
 4156W        W19287   0.520  17.522  13.176  0.2625  0.1278 -0.2192
 4157W        W19288   0.432  14.315   4.990 -0.1984  0.0139  0.0045
 4158W        W19289   4.277   2.700   2.533  0.1450 -0.0520 -0.0207
 4159W        W19290  11.482  13.208   4.769 -0.2527 -0.1493 -0.1533
 4160W        W19291   3.241   9.628   5.271 -0.0634 -0.0204 -0.4556
 4161W        W19292   8.650  12.970   2.578  0.0897 -0.0134  0.0591
 4162W        W19293  13.447  17.681   4.869 -0.1126  0.1339  0.0249
 4163W        W19294   7.074  14.544  14.437  0.0408  0.1447 -0.2414
 4164W        W19295   2.266  11.566  11.132 -0.2933 -0.1582 -0.0844
 4165W        W19296  17.513  17.903   2.014  0.1686 -0.0574 -0.0027
 4166W        W19297  11.095  12.467   0.670 -0.1071 -0.0600  0.0055
 4167W        W19298  11.579   6.148  15.835 -0.3119 -0.1602 -0.1964
 4168W        W19299  13.035   8.413  12.926  0.0521  0.0543 -0.2866
 4169W        W19300  13.903   5.692  13.492 -0.2325 -0.2051 -0.0197
 4170W        W19301  11.868   5.948   1.280  0.0660 -0.4008  0.0298
 4171W        W19302   6.300   2.815   4.762 -0.0439 -0.1144  0.2489
 4172W        W19303   7.265  13.893   1.963  0.0184 -0.0969  0.1544
 4173W        W19304  12.107  12.413   3.883 -0.0406  0.1911 -0.1425
 4174W        W19305  11.612   4.524  13.784 -0.1446 -0.1024  0.2216
 4175W        W19306  14.633  16.211  15.159 -0.1377  0.1609  0.1006
 4176W        W19307  10.750   7.698  11.161 -0.0859 -0.0902  0.0135
 4177W        W19308   3.240   0.054  11.304 -0.1555 -0.0310 -0.0265
 4178W        W19309   6.256  11.323  14.149  0.0811  0.2192 -0.0718
 4179W        W19310   8.837   2.315  11.092 -0.2781  0.0834  0.3715
 4180W        W19311  14.937  13.644   3.572  0.1712  0.1857  0.3627
 4181W        W19312  10.068  11.265   0.075  0.1064 -0.2158  0.0014
 4182W        W19313  13.430  14.090   0.043  0.0941  0.3873  0.1841
 4183W        W19314  18.024   7.295   4.928 -0.1228  0.0306  0.1412
 4184W        W19315   8.049   5.564  15.811 -0.2040  0.3159 -0.0855
 4185W        W19316  13.897   7.526   5.551 -0.1521 -0.0980 -0.1407
 4186W        W19317   7.744  10.154  13.022  0.2211  0.2105  0.1173
 4187W        W19318  10.857   7.662  10.699 -0.0109 -0.3675  0.0609
 4188W        W19319  14.586   6.046  15.730  0.0854  0.1629 -0.0147
 4189W        W19320  17.065  13.780  12.400  0.0999  0.0718 -0.1612
 4190W        W19321  15.332   7.048  14.910 -0.0023 -0.2511 -0.2689
 4191W        W19322  12.969   3.825  14.713 -0.5932 -0.3257 -0.1776
 4192W        W19323   2.605   3.299   4.909  0.1855 -0.0934  0.0097
 4193W        W19324   2.756   3.038   2.186  0.0764  0.0056 -0.2963
 4194W        W19325  17.579   6.245  13.042  0.1013 -0.0128  0.0584
 4195W        W19326   4.442  13.713  14.836 -0.1816 -0.1063  0.1203
 4196W        W19327  12.450   5.109   5.513 -0.1585  0.0487 -0.0113
 4197W        W19328   5.941  14.178   3.250 -0.1495  0.3786  0.1472
 4198W        W19329  17.512  11.134  11.812 -0.1868 -0.0090  0.1508
 4199W        W19330  16.900   8.183  16.022 -0.2270 -0.0544  0.1737
 4200W        W19331   5.168  11.361  12.513 -0.3356 -0.1780  0.0586
 4201W        W19332   5.715  18.392   1.845 -0.0621 -0.2343  0.1466
 4202W        W19333  14.415   5.897   6.688  0.4751  0.0243 -0.0135
 4203W        W19334   7.596   5.099  15.634 -0.0727 -0.0748  0.0801
 4204W        W19335   6.254  10.584   2.267  0.0282  0.1389 -0.1604
 4205W        W19336  16.805   0.626   1.831 -0.1059 -0.4353 -0.0293
 4206W        W19337  10.387  16.946   5.758 -0.0283  0.0151 -0.1852
 4207W        W19338   5.229   8.657   4.929 -0.2265  0.1457 -0.2271
 4208W        W19339   2.502  13.600  12.661  0.1323 -0.0921 -0.1239
 4209W        W19340   9.818  14.115  14.327 -0.0632 -0.2066  0.0348
 4210W        W19341   2.242  11.363  13.675 -0.1695  0.0009 -0.0648
 4211W        W19342  18.020  16.411   0.581 -0.0161 -0.3094 -0.3233
 4212W        W19343  11.700  15.284  14.339 -0.3017 -0.3593  0.2738
 4213W        W19344  14.737   3.882   0.403 -0.2095  0.2354  0.0527
 4214W        W19345   4.345  14.975  14.011  0.0437  0.1198 -0.0395
 4215W        W19346   6.298   9.838  14.915  0.4475 -0.1766 -0.0172
 4216W        W19347  12.785   9.641   4.416 -0.1570 -0.1159 -0.0060
 4217W        W19348  13.202  11.034   1.357 -0.1008  0.0673 -0.0524
 4218W        W19349  13.385  12.136   5.036  0.1917 -0.0689 -0.3316
 4219W        W19350   0.793  11.808  13.404 -0.0161 -0.2168 -0.0296
 4220W        W19351  15.982   9.613   0.183 -0.2133  0.0673  0.3331
 4221W        W19352   5.012   6.296   2.256  0.1104 -0.0764 -0.0330
 4222W        W19353  11.436  16.798   0.848  0.3300 -0.0506 -0.3026
 4223W        W19354   9.616  15.269  15.473  0.3315  0.0840 -0.1763
 4224W        W19355  13.136  17.344  13.857  0.1506 -0.3076 -0.0898
 4225W        W19356  15.633  14.697   3.563 -0.3343 -0.1780  0.2944
 4226W        W19357  11.934   1.431  12.420 -0.0805  0.1154 -0.3030
 4227W        W19358   0.874  11.576   6.432 -0.2369  0.0845 -0.2300
 4228W        W19359  13.158  11.431   0.432  0.3970  0.0831  0.0852
 4229W        W19360   7.109   2.665   4.886 -0.3890 -0.1718 -0.3440
 4230W        W19361  10.359   8.758   2.307 -0.1500  0.5080  0.1333
 4231W        W19362   9.789   7.491  15.229 -0.0569 -0.1636  0.0634
 4232W        W19363  11.404  13.273  15.759 -0.2139  0.2309 -0.0252
 4233W        W19364   3.514   0.638  10.395 -0.0312 -0.1888 -0.0484
 4234W        W19365   1.806   6.811   1.671 -0.0692  0.3265  0.0159
 4235W        W19366   5.611   0.659   1.027  0.0895 -0.1160 -0.2970
 4236W        W19367  11.600  13.721   3.811 -0.1874  0.0464  0.0682
 4237W        W19368   2.989   6.948  13.671 -0.1032 -0.4393 -0.0544
 4238W        W19369   8.555   1.145  14.790 -0.3176  0.1909 -0.6968
 4239W        W19370   4.316   2.772  10.249 -0.1878  0.2834 -0.4402
 4240W        W19371  10.729   4.138   0.597 -0.1639 -0.0891  0.2624
 4241W        W19372   8.905  14.839   3.299 -0.0588 -0.2085 -0.2104
 4242W        W19373  17.138   0.102  12.678  0.0447 -0.3914  0.1173
 4243W        W19374  16.051  11.435  11.126 -0.1170  0.1130  0.2716
 4244W        W19375   3.759  15.712  10.113  0.0041 -0.1508  0.1257
 4245W        W19376   9.713  10.434  11.834 -0.1810 -0.1982  0.3020
 4246W        W19377  15.069  11.237  11.517 -0.1099  0.2234 -0.0764
 4247W        W19378   7.984  16.333  13.457  0.1104  0.2251 -0.0738
 4248W        W19379   2.034   0.825   4.533  0.2150 -0.2397 -0.2650
 4249W        W19380   5.554   7.362   2.513 -0.1619 -0.1057  0.3771
 4250W        W19381   4.072   1.560   4.677 -0.1750  0.0983  0.0472
 4251W        W19382  17.488  12.626   3.424  0.2462  0.0209  0.1964
 4252W        W19383  13.929   3.926   0.136  0.2751 -0.0236 -0.2783
 4253W        W19384   8.580  15.357   3.964 -0.1715 -0.0576 -0.1350
 4254W        W19385   9.177   1.033   4.984  0.1442  0.0269 -0.4654
 4255W        W19386  15.040  11.934  12.506  0.0523 -0.1972  0.3477
 4256W        W19387  14.218   5.494  11.329  0.3393 -0.0559  0.2539
 4257W        W19388  12.152   5.144   4.086  0.1575 -0.1724  0.0086
 4258W        W19389  10.875  15.410   1.158  0.2466  0.2121  0.2122
 4259W        W19390  18.007   9.698   2.116 -0.0450 -0.2556  0.0331
 4260W        W19391   9.196  13.610   0.284  0.0093 -0.0143 -0.0298
 4261W        W19392   5.275   3.947  15.961  0.3739  0.2689 -0.2819
 4262W        W19393   3.803  13.073  13.621  0.0477 -0.1560  0.4858
 4263W        W19394  14.902  10.951  11.937  0.1370 -0.2991 -0.2009
 4264W        W19395   0.456  18.209   2.262 -0.2206  0.0918  0.0829
 4265W        W19396  11.588  18.190   0.572 -0.0134 -0.0976  0.1887
 4266W        W19397  12.865  15.625   5.620  0.1074 -0.0157  0.0412
 4267W        W19398   9.962  15.714  12.689  0.1366 -0.1323 -0.0338
 4268W        W19399  11.015  12.471  13.502 -0.1020  0.1692 -0.3035
 4269W        W19400  17.059  14.498  15.608  0.1616 -0.4149  0.0752
 4270W        W19401   9.868   6.435  15.277 -0.1417 -0.1007 -0.0504
 4271W        W19402   5.806   8.027   4.622 -0.0287 -0.2681 -0.0761
 4272W        W19403   3.288   8.672  14.683 -0.0590  0.1658  0.0948
 4273W        W19404  12.845  12.014   4.121  0.0051 -0.0602 -0.0800
 4274W        W19405  14.958  16.888  10.642  0.0761  0.0303 -0.4896
 4275W        W19406   1.469   8.457   4.454  0.1913 -0.3110  0.2371
 4276W        W19407   6.934   3.353  13.828  0.0557  0.0829  0.2905
 4277W        W19408  16.875  18.442  10.564 -0.0242 -0.0959  0.0233
 4278W        W19409  11.955   8.454   4.973 -0.1624  0.1504  0.0601
 4279W        W19410  12.900   2.574  15.712  0.3328  0.0016 -0.0276
 4280W        W19411   6.525   7.817  10.599  0.0654  0.0836 -0.3325
 4281W        W19412   9.508  16.639   3.471 -0.1513 -0.0916  0.0076
 4282W        W19413   7.243  14.742  12.679  0.0380 -0.1294 -0.1669
 4283W        W19414   5.695   0.345   3.378  0.0485  0.1849  0.2453
 4284W        W19415  18.109   8.577  15.380 -0.1453 -0.1795 -0.0714
 4285W        W19416   7.920  18.250   1.606  0.1784  0.2913 -0.0805
 4286W        W19417   3.722   2.557  15.764  0.2188 -0.1892  0.0840
 4287W        W19418   5.976  11.636  15.486  0.1573 -0.0841 -0.2652
 4288W        W19419  12.904   6.917   5.131 -0.0353  0.4221  0.2255
 4289W        W19420  14.580  12.211  11.199 -0.2660 -0.0168 -0.0417
 4290W        W19421  12.985   9.081   4.137  0.0926 -0.0127  0.0535
 4291W        W19422   5.633   8.760  15.810  0.2508  0.1983 -0.0106
 4292W        W19423   0.337  16.029  12.584  0.1326  0.3574  0.1185
 4293W        W19424   3.112  14.913   1.040  0.1238 -0.3747 -0.1257
 4294W        W19425   3.601  10.092  13.635 -0.3227  0.2657  0.2942
 4295W        W19426   5.383  14.443   1.911 -0.1255 -0.1759 -0.1743
 4296W        W19427   7.559  16.028  16.084 -0.0038 -0.2443  0.2888
 4297W        W19428   3.476   8.691   1.560  0.3310 -0.0890  0.0325
 4298W        W19429  14.558  16.519  14.804  0.2852  0.0180  0.3345
 4299W        W19430   4.516  11.245  13.686 -0.0817 -0.3146  0.0685
 4300W        W19431  12.868   5.359  12.739 -0.0127 -0.0814  0.0501
 4301W        W19432  16.723   0.033   9.622  0.0196 -0.0518  0.0238
 4302W        W19433   0.093   1.425  10.849  0.4440  0.0399 -0.0344
 4303W        W19434   6.002  12.446  11.078  0.2258 -0.2197 -0.1854
 4304W        W19435   5.384   1.389  14.798 -0.4033 -0.1894  0.0181
 4305W        W19436  11.854  15.670  11.600 -0.0494 -0.0155  0.1537
 4306W        W19437   0.613  10.539   0.145 -0.0752  0.1310 -0.0886
 4307W        W19438  16.541  16.301  15.250 -0.0547  0.2178  0.1361
 4308W        W19439   7.111  12.313   1.860 -0.1852  0.3528 -0.3277
 4309W        W19440   6.424   4.162  14.044  0.3223 -0.0674  0.1436
 4310W        W19441  13.227   6.348  12.470  0.2168  0.0701 -0.0133
 4311W        W19442   2.379  14.895  13.328  0.1404 -0.2842 -0.1429
 4312W        W19443   2.539   9.487  11.503 -0.4574 -0.4027 -0.2252
 4313W        W19444   0.911  11.642  14.758 -0.2413  0.0733  0.0999
 4314W        W19445   0.340   9.474  12.180 -0.1480 -0.1819 -0.1416
 4315W        W19446   2.095   3.100   1.042  0.1466 -0.0085  0.0670
 4316W        W19447   7.054  12.064   1.014  0.1129 -0.1632  0.0509
 4317W        W19448   5.737  16.559   4.557  0.4540 -0.0871  0.0934
 4318W        W19449  16.623   9.384  12.916 -0.1265  0.0904 -0.1084
 4319W        W19450  12.891  11.218   5.096 -0.2346 -0.0045  0.1016
 4320W        W19451   5.144  16.868  11.259  0.3206  0.0195 -0.1285
 4321W        W19452  14.274  10.581   2.605 -0.2279  0.0978 -0.1395
 4322W        W19453   7.117  16.016  15.201  0.1441 -0.0930 -0.0470
 4323W        W19454  16.057   4.312  15.147  0.0640 -0.0022 -0.1865
 4324W        W19455  16.413  14.722   2.987  0.0459  0.0457  0.1563
 4325W        W19456  17.113   1.128  14.758 -0.0531 -0.1512 -0.0794
 4326W        W19457   9.176  10.251   0.685  0.2030  0.3142 -0.0339
 4327W        W19458   9.075  17.851   3.221 -0.2733 -0.5232  0.0260
 4328W        W19459  11.185  18.126   1.831  0.1495  0.1009  0.0501
 4329W        W19460   3.580   1.508  12.278 -0.2806 -0.2541  0.3319
 4330W        W19461  16.011  12.540  16.011  0.1978 -0.2181 -0.0597
 4331W        W19462   9.692   1.851   4.976  0.1084 -0.2386 -0.1574
 4332W        W19463  12.249  17.091   4.913 -0.1258  0.0086 -0.1332
 4333W        W19464   3.734   6.314  14.921 -0.0552 -0.0175  0.1903
 4334W        W19465   6.250  18.071   0.979  0.2786 -0.1239 -0.4137
 4335W        W19466   1.454  11.596  15.640  0.0136 -0.3994 -0.0033
 4336W        W19467   6.694  13.071   0.230  0.1147 -0.3535  0.1747
 4337W        W19468   7.819   3.570   3.632  0.1472 -0.1286  0.0639
 4338W        W19469   7.619   4.130  13.649  0.3012 -0.1255 -0.4486
 4339W        W19470   6.205   7.212  11.395 -0.1515 -0.1677 -0.1114
 4340W        W19471  13.423  14.379  11.995  0.2348  0.0606  0.0221
 4341W        W19472   4.252   8.627  14.862  0.1265  0.1718 -0.0995
 4342W        W19473   3.561   5.835  11.076 -0.1471  0.2149 -0.0557
 4343W        W19474   2.198  11.491  10.186  0.5655 -0.1923 -0.0699
 4344W        W19475   9.834  10.935  13.647 -0.1841 -0.2294 -0.4708
 4345W        W19476   7.367  10.907   1.632 -0.4080 -0.1427  0.0420
 4346W        W19477   5.888   4.943  12.007  0.1025  0.2379 -0.0992
 4347W        W19478   5.553  14.050   2.162  0.0700  0.2024 -0.2749
 4348W        W19479   4.352  15.731  12.267  0.0553  0.0130  0.1594
 4349W        W19480   4.209   6.508  12.520 -0.4929 -0.1803  0.2519
 4350W        W19481   3.345  10.748   5.002 -0.1593  0.1720  0.2288
 4351W        W19482   7.230  17.280   4.676  0.1605 -0.1899 -0.2640
 4352W        W19483   0.298   2.452  11.038 -0.1035  0.1711  0.0858
 4353W        W19484  10.872  10.873  10.077  0.0300  0.2197 -0.1685
 4354W        W19485  14.689   1.597  14.181 -0.1408  0.8034  0.0445
 4355W        W19486   9.353   2.909   3.561 -0.2026  0.0361  0.1510
 4356W        W19487   4.491   7.160  13.324 -0.1544 -0.1743  0.0843
 4357W        W19488   6.283   2.886   2.168 -0.4837 -0.2838  0.1369
 4358W        W19489   2.713   7.974   5.027 -0.2094  0.1535 -0.1180
 4359W        W19490   4.803   8.040   1.533  0.1384  0.2395  0.2170
 4360W        W19491  15.415  12.408  15.355 -0.0680 -0.0018  0.0559
 4361W        W19492   7.446   9.478   0.435  0.0039 -0.1156  0.1461
 4362W        W19493   8.757  14.014  15.803 -0.1135 -0.0552  0.0059
 4363W        W19494  13.965   1.090   1.087 -0.1617  0.3178  0.3048
 4364W        W19495   4.679  12.529   1.168 -0.5942  0.1236  0.1300
 4365W        W19496   3.848  17.826   3.732 -0.2414 -0.0912  0.0205
 4366W        W19497  18.135   7.840   5.664 -0.0105 -0.0964 -0.1631
 4367W        W19498   4.013  13.020   3.475  0.1304  0.0262 -0.0731
 4368W        W19499  12.903   1.223   4.697  0.1701 -0.1114  0.1105
 4369W        W19500   3.699   5.073  12.897 -0.0678 -0.1101  0.0479
 4370W        W19501   9.465   9.442   6.032  0.0224 -0.2342  0.0028
 4371W        W19502  16.916  13.408   1.679 -0.2005 -0.1485 -0.2267
 4372W        W19503  13.045   6.252  14.617  0.0824 -0.0643 -0.0284
 4373W        W19504  13.983  11.908  14.993  0.0158  0.0340  0.2202
 4374W        W19505  16.571  12.329   0.758  0.0135  0.0439  0.1427
 4375W        W19506   8.732   8.279   3.368 -0.1773 -0.0267  0.0483
 4376W        W19507  17.354  16.137  10.605  0.0017  0.1035  0.1091
 4377W        W19508   9.088  11.730   0.340 -0.1009  0.1028  0.0953
 4378W        W19509   8.562  11.265   2.934 -0.1300 -0.1485  0.1704
 4379W        W19510   4.198  14.013   2.461  0.2504  0.2678  0.1967
 4380W        W19511   0.210   5.611  14.588  0.1270  0.2129 -0.0946
 4381W        W19512  10.141  17.388   2.440 -0.2308  0.3109 -0.2902
 4382W        W19513  14.725  11.677   3.249  0.0947 -0.3048 -0.1758
 4383W        W19514  13.282  10.523  14.789 -0.0699  0.4218  0.1729
 4384W        W19515   5.416   3.564  15.670 -0.1028  0.1116  0.1274
 4385W        W19516   7.386   2.371   3.380 -0.1340 -0.1257 -0.0466
 4386W        W19517   0.141  13.237  11.764 -0.2492 -0.1385  0.0449
 4387W        W19518  12.630   0.630  12.403  0.0408  0.0261 -0.0643
 4388W        W19519   5.569  12.259  12.883  0.2673 -0.2276  0.0904
 4389W        W19520  16.662   2.602  13.895 -0.1790  0.1944  0.0391
 4390W        W19521  14.665   0.963  11.215  0.0526 -0.0968  0.0880
 4391W        W19522   8.298  17.906   3.821 -0.3561  0.1494  0.1468
 4392W        W19523   7.299  10.010   2.451  0.1099  0.0051 -0.1727
 4393W        W19524   6.065  15.769   5.175 -0.0035 -0.2206 -0.0748
 4394W        W19525   4.240  16.795  11.125  0.3120 -0.0519 -0.2660
 4395W        W19526   1.056  17.593   0.327 -0.1876  0.1210  0.0242
 4396W        W19527  12.578   3.607   1.661 -0.2077  0.3197 -0.0447
 4397W        W19528   0.601   8.359  13.007 -0.2719  0.1413 -0.2616
 4398W        W19529   9.296   4.242   1.312 -0.0049  0.0317 -0.3242
 4399W        W19530  16.417  14.670   4.982  0.0626  0.0189 -0.0561
 4400W        W19531   1.303   4.347  13.659  0.0562  0.0968 -0.0495
 4401W        W19532  16.005   2.577  11.236  0.0168  0.3535 -0.0831
 4402W        W19533  11.158  13.624   1.483  0.3300  0.0315 -0.1782
 4403W        W19534   3.160  12.652  11.167 -0.0985  0.2192  0.1519
 4404W        W19535  10.797  16.217   2.253  0.1202 -0.0285  0.0662
 4405W        W19536  16.719   0.521  13.316  0.1277  0.0521  0.0675
 4406W        W19537  13.366   4.995  13.462 -0.1481 -0.1641  0.1648
 4407W        W19538  16.681   3.549  14.339 -0.1737  0.2174  0.0250
 4408W        W19539  14.116   5.427  14.495 -0.2168 -0.3847  0.2496
 4409W        W19540  11.224   2.203  14.614 -0.3004 -0.0264  0.0967
 4410W        W19541  10.914   1.125   5.684 -0.1852  0.0426  0.2243
 4411W        W19542   7.341   2.418   1.570 -0.0668 -0.3688 -0.0294
 4412W        W19543   0.327  10.624   2.770 -0.0850  0.1972  0.2815
 4413W        W19544  12.406  17.110  13.117  0.2260  0.0814 -0.0735
 4414W        W19545  11.108   5.693  13.710 -0.1199  0.3729 -0.2069
 4415W        W19546   2.652   9.093   3.669 -0.1001 -0.0728 -0.2169
 4416W        W19547  18.100  12.002  13.504  0.0323 -0.1856 -0.0487
 4417W        W19548   6.620  17.793   2.113 -0.2073  0.0927  0.2013
 4418W        W19549  13.640   6.840  14.999  0.1085 -0.1038  0.1486
 4419W        W19550  12.045   5.598  14.266  0.0552 -0.0638 -0.3148
 4420W        W19551   9.128  11.083  11.651 -0.0869 -0.2130 -0.1260
 4421W        W19552   2.020   8.652   4.289  0.2452  0.0389  0.1175
 4422W        W19553   8.905   6.619   4.522 -0.0095 -0.0003  0.2001
 4423W        W19554   7.846   2.340   0.332 -0.2646 -0.0505 -0.3451
 4424W        W19555  17.044   4.469   4.328 -0.3559  0.0670  0.3716
 4425W        W19556  14.158  14.651   4.529 -0.0240  0.0840 -0.0434
 4426W        W19557  14.948  14.019   3.175 -0.3924 -0.2824 -0.1881
 4427W        W19558   9.702  12.271   0.660  0.1496 -0.0326 -0.1762
 4428W        W19559   0.084   9.351   6.667 -0.0951 -0.1023  0.1588
 4429W        W19560   5.213  14.920  11.551  0.1143  0.1737  0.1320
 4430W        W19561   3.562   3.040  13.972 -0.1677 -0.1079 -0.1182
 4431W        W19562  10.180  17.873  12.089 -0.0578 -0.1070  0.4243
 4432W        W19563  14.775  15.213  12.100  0.0242  0.0777  0.1950
 4433W        W19564  16.805  10.627  11.394  0.1791  0.0571 -0.0803
 4434W        W19565   7.011  12.222  15.042 -0.0536 -0.2656  0.0900
 4435W        W19566  13.939   0.530   4.220  0.1695 -0.0892 -0.3761
 4436W        W19567  14.476   6.023   1.569  0.1020  0.1529  0.1357
 4437W        W19568  12.760   8.390  14.599 -0.2223  0.0940 -0.1534
 4438W        W19569   5.253  10.282  14.322  0.0089 -0.1483  0.1267
 4439W        W19570   8.434   4.360   4.037 -0.1048 -0.1435 -0.1503
 4440W        W19571   3.866   4.667   3.705  0.3647  0.0046  0.3037
 4441W        W19572  10.131   9.278   0.889  0.1760  0.0745 -0.0496
 4442W        W19573   7.114   2.414  12.690 -0.1827  0.0862  0.0790
 4443W        W19574   0.262  14.076   4.557 -0.1141 -0.1169 -0.0469
 4444W        W19575   5.693  16.620  13.150 -0.1267 -0.1769 -0.0096
 4445W        W19576   1.712  17.537  14.921  0.0276 -0.0504  0.0547
 4446W        W19577  13.230   6.087   4.535  0.1723 -0.3226  0.0833
 4447W        W19578   1.553   3.722  12.986  0.0133  0.1458  0.3730
 4448W        W19579   7.391   8.252  12.162 -0.3192 -0.5080  0.0477
 4449W        W19580   5.811  14.629   4.154  0.0951  0.0009  0.1644
 4450W        W19581   5.189  16.633  15.257  0.2455 -0.0553 -0.1089
 4451W        W19582  17.564   0.343   2.394 -0.0401  0.0445 -0.0127
 4452W        W19583  15.659  14.896   0.014  0.4130  0.1615  0.1254
 4453W        W19584  16.355   6.443   5.271 -0.2696  0.3140  0.3022
 4454W        W19585   4.264   6.581  11.167 -0.0165 -0.0136 -0.0907
 4455W        W19586   4.961  10.196  14.817 -0.0058 -0.2058 -0.2025
 4456W        W19587   3.700  14.120   2.222 -0.1040 -0.0442  0.1412
 4457W        W19588   3.603  13.757  15.426 -0.3034 -0.0298  0.0203
 4458W        W19589   7.674  14.351   0.067 -0.0269  0.1160 -0.2014
 4459W        W19590   8.956  16.457  14.629 -0.2646 -0.2929 -0.2927
 4460W        W19591  11.312  16.134   5.194  0.0644  0.0805 -0.4109
 4461W        W19592  13.931  12.540   0.284 -0.2457  0.0536 -0.2515
 4462W        W19593  11.307  15.165   5.470  0.1404  0.0698  0.1079
 4463W        W19594   5.791   0.968   1.427 -0.0275 -0.0746  0.2943
 4464W        W19595  13.490  12.093   1.833 -0.4421 -0.0605  0.4998
 4465W        W19596   0.069   1.234   3.795  0.1974 -0.0091 -0.1469
 4466W        W19597   2.963  11.809  14.366 -0.0285  0.1657  0.4241
 4467W        W19598   7.098  14.037   4.885 -0.4630  0.3434 -0.0342
 4468W        W19599  13.058  11.678  12.095 -0.2215  0.0420  0.3285
 4469W        W19600  15.302  15.368  12.195  0.3829 -0.0990  0.0404
 4470W        W19601   1.899  13.238  13.550  0.2178  0.0674  0.0871
 4471W        W19602   1.385  13.186   1.779  0.2779  0.0788  0.1651
 4472W        W19603   6.337   8.706  14.453  0.2587 -0.0462 -0.0284
 4473W        W19604   6.420  10.478   3.659  0.0696 -0.2628 -0.2061
 4474W        W19605  13.405   2.551  15.692 -0.2823  0.0695 -0.2325
 4475W        W19606  15.560  12.991  16.029 -0.1231 -0.2014 -0.0409
 4476W        W19607  18.220   6.751   0.289 -0.0866 -0.2433 -0.2297
 4477W        W19608  14.674  13.365  11.331 -0.1001 -0.0798  0.0577
 4478W        W19609   0.532  12.436  11.210 -0.1621  0.1665  0.1454
 4479W        W19610   4.001  16.716  10.110 -0.0097  0.1396 -0.2242
 4480W        W19611  16.329  12.927  11.817 -0.0323  0.0309 -0.1535
 4481W        W19612  13.697   0.767  14.695  0.3846  0.1576 -0.2683
 4482W        W19613  16.689  12.471  11.498 -0.1788 -0.0248 -0.0110
 4483W        W19614  12.062   9.992  14.988  0.0179  0.0705  0.1258
 4484W        W19615   7.073   9.830  12.931  0.0062 -0.3029  0.2155
 4485W        W19616  11.402   2.238  14.085  0.1040 -0.2847 -0.1207
 4486W        W19617  13.919   8.747   3.320  0.2378  0.1885 -0.2241
 4487W        W19618   9.006   8.542  12.968  0.1332 -0.1389 -0.1646
 4488W        W19619   8.918  14.654  11.218 -0.0203  0.2082 -0.1927
 4489W        W19620   9.547   8.915   5.894 -0.0494 -0.1081  0.4381
 4490W        W19621   3.284  11.190   4.787  0.4410  0.0925  0.2032
 4491W        W19622  11.978   7.481  11.929 -0.0204 -0.1266 -0.0605
 4492W        W19623  16.167  17.864  16.040 -0.0474 -0.0941  0.0450
 4493W        W19624  12.527   3.904   5.735  0.3831  0.3727 -0.0382
 4494W        W19625   4.103  18.146   4.542 -0.0740 -0.0569 -0.2146
 4495W        W19626   9.339   5.522  12.120 -0.0199  0.4193  0.0871
 4496W        W19627  10.681  13.167   0.042  0.0744  0.0650 -0.1925
 4497W        W19628   4.075  14.580  10.469 -0.3137 -0.3162  0.1577
 4498W        W19629   4.965  13.842  11.630 -0.0099 -0.1527 -0.0516
 4499W        W19630   5.379   9.367   2.524 -0.1639 -0.0129 -0.0552
 4500W        W19631   9.686  11.358  11.923  0.0843  0.0363 -0.0556
 4501W        W19632  10.600   9.264   5.456 -0.2187  0.1060 -0.1469
 4502W        W19633  15.893   2.747   1.505  0.0900  0.2550 -0.1484
 4503W        W19634   0.490   2.149   2.015 -0.2738  0.3577 -0.0582
 4504W        W19635  14.045   8.436  15.165 -0.1558 -0.3834  0.1043
 4505W        W19636  11.170   0.137   1.758  0.1638 -0.0565  0.0799
 4506W        W19637  12.876  13.677  14.832  0.0592  0.1286 -0.0702
 4507W        W19638   6.479   0.124  15.568  0.0381 -0.0979  0.4724
 4508W        W19639  10.355   5.439   1.793  0.3160  0.1064 -0.1849
 4509W        W19640   3.477   5.423   1.124  0.0468  0.0457  0.3274
 4510W        W19641  15.020  13.753   4.951  0.1701  0.1919  0.0400
 4511W        W19642  16.904   6.124  15.051 -0.2864 -0.2313  0.1809
 4512W        W19643  18.023  15.030  13.567  0.2711  0.1432  0.1324
 4513W        W19644   3.163  13.429  14.587 -0.0634 -0.0976  0.1849
 4514W        W19645  17.144   7.627   6.087 -0.0713  0.1841 -0.0779
 4515W        W19646   6.735   3.829  14.741  0.2722 -0.3186  0.1264
 4516W        W19647  14.729   8.012  14.818  0.2189  0.1110  0.0745
 4517W        W19648   2.589  14.557  10.466 -0.1836 -0.0580 -0.1634
 4518W        W19649  15.391   0.984  12.412 -0.0571 -0.2955  0.2614
 4519W        W19650   7.612   5.006  12.140 -0.0527 -0.0575  0.0552
 4520W        W19651  15.645   6.696  14.031  0.0199 -0.3810  0.0601
 4521W        W19652   4.963   7.215   0.553  0.1410  0.2886 -0.1447
 4522W        W19653   7.804  11.202  14.851 -0.0621 -0.1756  0.0567
 4523W        W19654  13.151  14.891   4.138 -0.2339 -0.0086 -0.0361
 4524W        W19655  13.298  17.888  14.550 -0.0673  0.3691  0.0501
 4525W        W19656  11.305   3.494   2.630 -0.3851  0.0633  0.0146
 4526W        W19657   1.857  13.225   1.646  0.0125 -0.1785  0.0134
 4527W        W19658  18.174   7.549  14.151 -0.1509  0.1666 -0.0576
 4528W        W19659  16.925  15.143   3.900  0.0618  0.0558  0.0180
 4529W        W19660  16.800  10.581   2.966  0.2285 -0.2529 -0.0345
 4530W        W19661  14.634  15.790   4.454  0.1008 -0.0116 -0.1005
 4531W        W19662   9.211   7.940  14.630  0.3154 -0.1523  0.2367
 4532W        W19663  13.090  13.099   5.562 -0.2360 -0.1421 -0.1765
 4533W        W19664   2.117   8.932   1.857 -0.1862  0.1178  0.1127
 4534W        W19665   5.265   7.741   2.803  0.0638  0.1632  0.0900
 4535W        W19666   1.531   7.995  12.737  0.0414 -0.1804 -0.2580
 4536W        W19667   9.126  17.825  13.111  0.1655  0.1754 -0.2693
 4537W        W19668  15.491   5.804  11.261  0.0359 -0.1975 -0.1323
 4538W        W19669   0.240   8.197  12.645 -0.0933 -0.3084 -0.3736
 4539W        W19670  17.349   3.807  15.442 -0.0852 -0.0350  0.1320
 4540W        W19671   5.280   1.693  15.701 -0.0941 -0.0576  0.1066
 4541W        W19672  17.798  11.423   0.478  0.2620  0.1789 -0.0512
 4542W        W19673   9.775   6.357  13.819 -0.1045 -0.0742 -0.0508
 4543W        W19674   9.300   4.545   1.750 -0.1236  0.2761  0.0558
 4544W        W19675   5.374   1.391  12.495 -0.1822  0.1439  0.1254
 4545W        W19676  13.626   7.728  14.605 -0.3411  0.0262  0.0041
 4546W        W19677  18.225  16.622   2.301  0.0106 -0.0783  0.0866
 4547W        W19678   0.729   4.620   0.287  0.1805 -0.0927 -0.1622
 4548W        W19679  17.713  15.455  11.226  0.0752 -0.2367 -0.1019
 4549W        W19680   5.273   1.600  13.737 -0.0331 -0.0492  0.0447
 4550W        W19681  16.816  14.312  13.436  0.4216 -0.2768 -0.2048
 4551W        W19682   5.167  12.637   6.016 -0.1612 -0.0240 -0.2696
 4552W        W19683  11.343  14.538  11.143  0.0282  0.0837 -0.0317
 4553W        W19684  10.987   3.212  11.600  0.1398  0.0075 -0.4449
 4554W        W19685  18.480   7.408   6.497  0.0043 -0.0796 -0.3139
 4555W        W19686  10.711  16.268  16.105 -0.0594  0.2701  0.0633
 4556W        W19687   1.543   9.089  16.106  0.2469 -0.1113 -0.0757
 4557W        W19688   7.090  14.806  15.848 -0.1622 -0.1678 -0.0294
 4558W        W19689  12.338  10.070  11.320  0.4748 -0.0828  0.1892
 4559W        W19690   1.960  10.244  11.755 -0.0846  0.0965  0.0071
 4560W        W19691   9.629   3.858   3.297  0.4011 -0.1499  0.2478
 4561W        W19692   4.474   6.570  13.849 -0.0962  0.1738  0.1425
 4562W        W19693  18.165   1.231  13.932  0.0126  0.0675 -0.2820
 4563W        W19694  12.730  15.773   1.784  0.1890  0.2600  0.1658
 4564W        W19695   0.352   6.209  15.423  0.2042 -0.1883  0.3121
 4565W        W19696  14.763   2.182   1.057 -0.3222 -0.3058 -0.0500
 4566W        W19697  11.070  15.728  16.013 -0.2058  0.1941 -0.1067
 4567W        W19698   0.760   0.095  10.048  0.0695  0.2228  0.0730
 4568W        W19699  12.479   6.757   3.822  0.1940  0.0070  0.2759
 4569W        W19700  16.619   4.289  15.397  0.2311  0.2833  0.0522
 4570W        W19701   5.897  10.154   1.720  0.1063  0.0465 -0.2556
 4571W        W19702   3.970   4.274   1.241 -0.0754  0.2090  0.2193
 4572W        W19703   5.775   8.689   5.796 -0.1454  0.0580 -0.1083
 4573W        W19704  16.098  15.692   3.618  0.0613  0.0498  0.2450
 4574W        W19705  14.765   0.061  11.598  0.2884  0.0829  0.0692
 4575W        W19706  18.353   2.681   0.923  0.1502  0.1228 -0.5270
 4576W        W19707  18.109   4.474  15.584  0.1597  0.0450 -0.0667
 4577W        W19708  10.287   3.251  15.138 -0.1139 -0.2444  0.0516
 4578W        W19709  12.053  18.148  15.020 -0.0961  0.2808 -0.0153
 4579W        W19710   6.934  17.160   3.619 -0.0037 -0.0242 -0.0946
 4580W        W19711  10.255  10.064   6.103 -0.0169 -0.1053  0.1607
 4581W        W19712   6.149  17.220   4.868 -0.2375 -0.1157 -0.0499
 4582W        W19713   9.975  17.951   3.287 -0.2095 -0.3553 -0.1609
 4583W        W19714  14.034   4.300   3.138  0.0826 -0.0458  0.2370
 4584W        W19715   8.377   1.937  13.182  0.4056 -0.0848  0.1377
 4585W        W19716   3.307  14.658   0.663 -0.1723 -0.1431  0.1065
 4586W        W19717   1.977   9.881   0.394  0.1555 -0.2837 -0.0589
 4587W        W19718   1.309   9.251   2.101 -0.1780  0.0172  0.1630
 4588W        W19719   7.672   2.240  10.909  0.0041  0.1939  0.2297
 4589W        W19720  10.295  12.697   3.243 -0.2924  0.3053 -0.2288
 4590W        W19721   9.566   8.469  11.494 -0.0483 -0.0077 -0.0071
 4591W        W19722   6.881   9.825   2.617  0.2304  0.0627  0.3756
 4592W        W19723   9.889  16.740  13.931 -0.3492  0.0264  0.0283
 4593W        W19724   3.941  14.690  10.984 -0.0421  0.0359  0.2949
 4594W        W19725   2.706   2.864  11.007 -0.3313  0.0031  0.1009
 4595W        W19726   7.965   0.784  11.344  0.2044 -0.0539  0.0904
 4596W        W19727   7.848  13.014  15.496  0.1053  0.1380 -0.0858
 4597W        W19728   6.269  17.761  16.043 -0.2613 -0.0843  0.0301
 4598W        W19729   7.594   3.777   4.130  0.1815 -0.2032 -0.1101
 4599W        W19730  12.898   6.409  15.889  0.2509  0.0407 -0.2099
 4600W        W19731   3.438  11.761  11.226 -0.0315 -0.0789 -0.2864
 4601W        W19732  10.549   3.106  13.688  0.2499  0.1697 -0.2721
 4602W        W19733   9.177   0.340  11.159  0.3878 -0.0998  0.1659
 4603W        W19734  15.912   1.306  13.252 -0.2608  0.0709 -0.1864
 4604W        W19735   3.042  16.349   4.429 -0.0205  0.1482 -0.1572
 4605W        W19736   7.064   1.222   0.209  0.2651  0.2406 -0.1098
 4606W        W19737  11.018  17.013  12.781  0.1054 -0.6139 -0.0694
 4607W        W19738   4.456  11.309  15.431  0.1426  0.0350 -0.2396
 4608W        W19739  14.530  16.954  12.385 -0.0581 -0.2781 -0.0163
 4609W        W19740   0.303   3.032  13.170 -0.2727  0.2572 -0.0178
 4610W        W19741   3.495   7.570  13.687  0.1920 -0.1715 -0.2126
 4611W        W19742  10.886  15.360   5.312  0.0039 -0.0227  0.3065
 4612W        W19743   5.156  18.041  13.796  0.0886 -0.0344 -0.0966
 4613W        W19744  12.220   4.262   3.755  0.1530  0.0961 -0.0438
 4614W        W19745   6.753  12.129  11.144  0.1068  0.2690 -0.2538
 4615W        W19746  14.444  16.938  13.001  0.0109  0.2178 -0.1701
 4616W        W19747  10.932   3.975   2.498  0.0980 -0.0082 -0.0247
 4617W        W19748   0.441   1.291   3.478 -0.2773  0.0910 -0.2312
 4618W        W19749   4.175  16.186  15.122  0.0760  0.0160 -0.1654
 4619W        W19750   9.448   0.725  11.191 -0.0917  0.0407  0.0420
 4620W        W19751   8.220  16.255   2.206  0.3952  0.3446 -0.0769
 4621W        W19752   1.263   9.000  12.483  0.0973 -0.0654  0.0760
 4622W        W19753   4.782  18.432  11.883 -0.1416 -0.0993  0.2964
 4623W        W19754   6.454   6.995  13.321  0.2253 -0.0375  0.0489
 4624W        W19755   9.626  16.803  11.081 -0.0582 -0.2587  0.0789
 4625W        W19756  12.756   7.039   2.256 -0.2172  0.1517  0.2640
 4626W        W19757   3.800   7.260  14.741  0.0464 -0.1421  0.1284
 4627W        W19758  17.006  11.890   4.305  0.2069  0.0039 -0.0566
 4628W        W19759  16.955  15.295  15.863  0.3236  0.0102 -0.1815
 4629W        W19760  11.283  14.996  11.156 -0.0225 -0.2671  0.0266
 4630W        W19761   6.706   9.121  14.299 -0.0827  0.5344  0.0553
 4631W        W19762  13.643  17.925   3.689  0.3051  0.4222 -0.0209
 4632W        W19763  14.245  12.108   4.557  0.2938  0.0724 -0.2260
 4633W        W19764   0.305  15.284   3.599 -0.2021 -0.0511  0.0067
 4634W        W19765   6.436  12.287  15.035  0.0648 -0.1328 -0.2193
 4635W        W19766  11.065   1.508   4.578  0.0344 -0.3636  0.0525
 4636W        W19767   0.846   9.255  13.699 -0.0116 -0.0436 -0.2394
 4637W        W19768   5.663   2.677  15.452 -0.2945  0.1012 -0.1150
 4638W        W19769  14.383  13.109  12.332  0.2631 -0.3440 -0.2014
 4639W        W19770  14.158   6.887   2.035  0.1385 -0.1941  0.0764
 4640W        W19771  11.120   5.436  13.017 -0.0381  0.0469 -0.0809
 4641W        W19772   4.118   3.878  12.147 -0.1605 -0.1860  0.0268
 4642W        W19773   9.201   9.621   3.396  0.0834 -0.1377  0.2381
 4643W        W19774   3.858  13.799  13.101 -0.4159 -0.2471 -0.1955
 4644W        W19775  12.833   5.805   0.427  0.0595  0.2989  0.3625
 4645W        W19776   2.507  13.792   1.601 -0.1716  0.1259  0.1638
 4646W        W19777   0.073  11.746   3.475  0.1586 -0.1414 -0.1236
 4647W        W19778  15.618   6.313  13.124  0.1489  0.0260  0.0351
 4648W        W19779  12.958  12.815  12.881  0.1427  0.2257  0.1422
 4649W        W19780  18.318  14.196  10.505 -0.1139  0.2327  0.0241
 4650W        W19781   2.246   3.686  13.096  0.0108 -0.1464 -0.0442
 4651W        W19782   3.397   9.230   3.489 -0.1496 -0.3686 -0.0013
 4652W        W19783   9.027   4.991   2.699  0.0044 -0.1469  0.1176
 4653W        W19784  15.237  15.874   2.008  0.1155 -0.1287 -0.0559
 4654W        W19785   9.767  11.775  12.739  0.2257  0.2097 -0.1646
 4655W        W19786   0.072   7.266   5.438 -0.0968 -0.1832 -0.0692
 4656W        W19787  12.607   6.668  12.667  0.2543  0.1483  0.3085
 4657W        W19788   5.230   0.642   1.373  0.0085 -0.3936  0.0057
 4658W        W19789   5.334  15.907  11.753 -0.0418 -0.0791 -0.0584
 4659W        W19790   0.133  11.083  14.646 -0.1151 -0.1684 -0.1340
 4660W        W19791  11.319   3.365  12.612  0.1697 -0.1311  0.4171
 4661W        W19792   3.202   1.261   3.526 -0.3057 -0.2406  0.0449
 4662W        W19793   9.344   7.088  11.785  0.4096 -0.0460 -0.0359
 4663W        W19794  11.381   8.397   2.392  0.0152  0.0463 -0.2883
 4664W        W19795   7.930  15.208  12.146 -0.3861 -0.0042 -0.2937
 4665W        W19796  13.021   0.503  12.035 -0.1142  0.4483 -0.0499
 4666W        W19797  17.868   8.389  14.112 -0.1533 -0.2376  0.0097
 4667W        W19798  12.323   6.612   1.674  0.1165 -0.1495 -0.0868
 4668W        W19799  15.254  14.072   2.661 -0.2838  0.0821  0.1113
 4669W        W19800   1.336  16.933  10.696  0.1813 -0.4049  0.1631
 4670W        W19801  10.793  11.037  13.544  0.3019 -0.0795  0.0859
 4671W        W19802   0.010   2.380  12.906  0.0703  0.2146 -0.0495
 4672W        W19803  16.572   7.150  13.265  0.0149  0.4183 -0.0218
 4673W        W19804   8.501  11.021   3.821 -0.2091  0.2811  0.0091
 4674W        W19805  16.049   4.530   0.035  0.0176  0.2075 -0.1320
 4675W        W19806  17.335   4.708   2.062 -0.0676  0.3145 -0.1977
 4676W        W19807  10.803   5.095  13.186  0.0842  0.2107  0.0891
 4677W        W19808   3.207  11.445   5.751 -0.2108 -0.0951  0.1093
 4678W        W19809   5.323  16.328   5.013  0.0542 -0.1624  0.0534
 4679W        W19810   9.397   9.314   2.923  0.0675  0.0111 -0.0479
 4680W        W19811  13.675   9.972   1.859  0.1041 -0.0261  0.2487
 4681W        W19812   5.494  17.545  11.685  0.0131 -0.1253  0.2035
 4682W        W19813  16.017   3.896  15.507  0.5579 -0.1047  0.0013
 4683W        W19814  12.547  14.109   2.448 -0.0732 -0.0190 -0.3108
 4684W        W19815  12.905   0.840  15.548 -0.0737 -0.0225  0.0464
 4685W        W19816  16.861  15.613  13.934  0.0426 -0.1549  0.1789
 4686W        W19817  17.576   0.118  11.216 -0.1160 -0.2696  0.0238
 4687W        W19818  18.068  11.853   4.247 -0.0012 -0.2780  0.0813
 4688W        W19819   4.462   7.947   4.140  0.1704  0.0288 -0.0265
 4689W        W19820  16.398   4.196   5.139 -0.3362 -0.1400 -0.0335
 4690W        W19821  12.114   9.015   2.886  0.1475  0.0884 -0.3712
 4691W        W19822   0.508  12.003  15.904  0.1396  0.1869  0.0663
 4692W        W19823   9.874  11.950   4.458  0.0666  0.0371  0.0150
 4693W        W19824  17.625  17.220  13.275 -0.1014  0.2437 -0.1409
 4694W        W19825   6.773   9.559   3.766  0.1953 -0.2577 -0.2795
 4695W        W19826   2.441   1.569   0.932  0.3097 -0.1593  0.0814
 4696W        W19827   9.308  10.682  11.324 -0.0816  0.4433 -0.3327
 4697W        W19828   5.899   3.556   2.687  0.0202 -0.2515 -0.0682
 4698W        W19829   1.139   3.842  12.670 -0.0116 -0.2404  0.2932
 4699W        W19830  11.651   4.615   2.563 -0.1897  0.0813 -0.1701
 4700W        W19831  12.372   8.686  11.758  0.1980 -0.0509  0.3038
 4701W        W19832   1.848   6.860   4.679 -0.1666 -0.1057 -0.2123
 4702W        W19833  17.666   0.554   1.910 -0.1879 -0.0518  0.0885
 4703W        W19834  14.236  16.518  15.868 -0.1718  0.1365  0.0378
 4704W        W19835   3.892  15.169  13.996  0.2276 -0.1576 -0.4011
 4705W        W19836   3.648   5.227   3.058  0.2235  0.0727 -0.1601
 4706W        W19837   3.623  10.401  11.427  0.2475  0.1734 -0.1981
 4707W        W19838  11.476   3.996  13.842  0.1550  0.2293 -0.3436
 4708W        W19839  16.448  14.495   0.062  0.3305 -0.0332  0.0067
 4709W        W19840  10.543  10.668   4.814 -0.0681 -0.1322  0.0679
 4710W        W19841   2.144   7.656   5.477  0.0607 -0.0304  0.1357
 4711W        W19842   8.752  17.477  15.787 -0.0665  0.0217  0.0199
 4712W        W19843   9.848   9.908   1.565  0.0360 -0.1031  0.2582
 4713W        W19844  11.423   7.848   0.630 -0.1716 -0.1091 -0.1221
 4714W        W19845   1.318   8.076   1.393 -0.1083 -0.0336  0.0137
 4715W        W19846   0.472   9.300   0.412 -0.2708  0.0545  0.2995
 4716W        W19847   9.528   5.440   4.250 -0.1596 -0.0599 -0.0782
 4717W        W19848  17.204   1.647   5.296 -0.4072 -0.0026  0.1974
 4718W        W19849   1.187  17.287  10.219  0.1247  0.0249 -0.0269
 4719W        W19850   4.746   1.526   1.317 -0.0279 -0.1553  0.0956
 4720W        W19851  18.174   1.816   2.534 -0.0572  0.1466 -0.0348
 4721W        W19852  11.942   5.649   2.798  0.2572 -0.2441  0.2200
 4722W        W19853  16.671   0.999  13.568  0.0160  0.0412  0.2631
 4723W        W19854   1.035  17.503  11.687  0.6724  0.2057  0.1871
 4724W        W19855  12.294  11.963   2.414 -0.1732  0.0087  0.0210
 4725W        W19856  13.945   7.373  12.727 -0.0190 -0.0613  0.1105
 4726W        W19857  12.915   0.995  10.863 -0.0326  0.4648  0.0474
 4727W        W19858   4.720   3.650  12.153  0.0973  0.0766 -0.3285
 4728W        W19859   7.802  10.997   0.118  0.1145  0.0418 -0.2008
 4729W        W19860  15.352  11.447   2.413  0.0102 -0.1443 -0.1336
 4730W        W19861   4.389   5.625   2.416  0.2943  0.1051 -0.4095
 4731W        W19862   8.762  14.463   2.012 -0.0105  0.1269  0.0366
 4732W        W19863  10.941   4.997   2.782  0.1167 -0.1364  0.2641
 4733W        W19864  16.315  14.918   1.470 -0.3535  0.4195  0.1926
 4734W        W19865  10.026  14.964  14.771  0.2131  0.0274 -0.1873
 4735W        W19866  10.134  18.364  12.421 -0.1360  0.3296 -0.2399
 4736W        W19867  15.014   4.501   1.071  0.2885 -0.2985  0.1775
 4737W        W19868  15.370  18.071   3.257  0.2809  0.1846  0.0865
 4738W        W19869   2.585   9.012   3.093  0.1146 -0.0258 -0.1476
 4739W        W19870   0.421   6.979   0.988  0.1021  0.4393 -0.1351
 4740W        W19871   7.512  12.043   3.532 -0.1015 -0.2499 -0.1993
 4741W        W19872  15.230   8.872   0.460 -0.0034 -0.0725  0.2213
 4742W        W19873  12.249  15.805  14.718 -0.2454  0.4091 -0.0205
 4743W        W19874  13.427   6.972  13.666 -0.1366  0.2767  0.1283
 4744W        W19875  11.265   5.878   4.918 -0.1800 -0.2794  0.0716
 4745W        W19876  10.321  13.113   3.614 -0.1405 -0.0782  0.0011
 4746W        W19877  12.627  10.182   3.079 -0.1645  0.0799  0.1559
 4747W        W19878   5.870  13.502   2.410  0.0258 -0.0598 -0.0061
 4748W        W19879   1.544  16.867  11.692 -0.2554 -0.1299 -0.0131
 4749W        W19880   4.135   3.983  15.850 -0.1179  0.1547  0.1130
 4750W        W19881   4.026  17.641  13.546 -0.1819 -0.0042 -0.1169
 4751W        W19882  14.341   8.030   1.688  0.0208 -0.1632 -0.2312
 4752W        W19883  13.824   7.872   4.403  0.3330  0.2479 -0.1799
 4753W        W19884  15.147   0.400  11.709  0.1528 -0.1435 -0.0018
 4754W        W19885  18.189  14.028   2.096  0.2177  0.1244  0.3510
 4755W        W19886  11.854  13.267  13.402  0.1074  0.1031  0.1018
 4756W        W19887   6.595  16.226   2.222 -0.1643  0.0095 -0.1818
 4757W        W19888  15.263  15.232  13.581 -0.0315 -0.0609 -0.1419
 4758W        W19889   5.007  11.985  14.647 -0.3231  0.1204 -0.2748
 4759W        W19890   9.067  13.085  14.801 -0.0952 -0.0511  0.2582
 4760W        W19891   8.074   5.406   4.752  0.0546 -0.0560 -0.1448
 4761W        W19892  11.880   2.310  11.846 -0.1013  0.0939 -0.1799
 4762W        W19893   8.084   0.199   5.303  0.3161  0.1352 -0.0136
 4763W        W19894   9.345   0.426   1.042 -0.1252 -0.1186 -0.0552
 4764W        W19895  13.055  16.798  12.430  0.1541  0.0163  0.3889
 4765W        W19896   1.884   9.762   5.541 -0.2387 -0.1338  0.3054
 4766W        W19897  13.007   9.962   3.462 -0.0811 -0.4266  0.2037
 4767W        W19898  18.333   2.513  14.599  0.1628  0.1293 -0.0217
 4768W        W19899   3.560   9.982  11.733 -0.2063  0.0039  0.0573
 4769W        W19900   7.400  10.094  15.946 -0.0507 -0.0854 -0.4381
 4770W        W19901  15.818  16.129  12.087  0.0104 -0.0805  0.2285
 4771W        W19902   0.067  11.207   0.056 -0.1660 -0.2254  0.0415
 4772W        W19903  14.544   8.489  14.870  0.2680 -0.0163 -0.0738
 4773W        W19904  12.381   2.633   5.530  0.0760  0.1258  0.3813
 4774W        W19905   9.656   1.025  12.117 -0.4264 -0.1315  0.1190
 4775W        W19906  11.626   6.250   4.785 -0.0333 -0.0836  0.0514
 4776W        W19907  10.842   7.596   1.164  0.1191 -0.1750  0.0183
 4777W        W19908   9.070   5.709   4.368 -0.1568  0.1836  0.0037
 4778W        W19909  10.166  16.599  13.017 -0.1525 -0.0864  0.1237
 4779W        W19910  17.275   5.727   5.791  0.1251 -0.0627 -0.1584
 4780W        W19911   6.800   9.162   1.693  0.0148  0.1489  0.1835
 4781W        W19912   7.922   9.271  14.763  0.1110  0.0900  0.0857
 4782W        W19913   1.675   7.650   4.551  0.0448 -0.0480 -0.0155
 4783W        W19914  10.752   1.320   0.882  0.1393  0.2506 -0.0936
 4784W        W19915  14.386  10.025   2.425 -0.4005  0.0600  0.1144
 4785W        W19916   5.007   1.848   4.491  0.2852 -0.2281  0.1057
 4786W        W19917  10.787  12.760  14.691 -0.1343 -0.0231 -0.3836
 4787W        W19918   6.152  14.375   2.676 -0.2114  0.0249 -0.1195
 4788W        W19919  13.878  10.416   0.602  0.0927 -0.1722  0.1426
 4789W        W19920  16.002   6.397   3.218  0.1623  0.0056 -0.1288
 4790W        W19921   9.704   4.546   5.549  0.2628 -0.0674  0.1402
 4791W        W19922   5.385   1.403  13.127  0.0447  0.3838 -0.1474
 4792W        W19923   8.695   9.529   0.518  0.0822 -0.2073  0.0471
 4793W        W19924   2.217  12.970   4.736 -0.0955 -0.1272 -0.0332
 4794W        W19925  13.600   3.895   6.012  0.2202  0.2278  0.2669
 4795W        W19926  12.818   1.135   0.059 -0.4186 -0.0291  0.1810
 4796W        W19927   1.248   2.979   0.049  0.2354 -0.2579 -0.2477
 4797W        W19928   2.020   5.376   0.810  0.1124 -0.1753  0.1097
 4798W        W19929   4.241   8.169  14.781  0.1118  0.1930  0.0319
 4799W        W19930   8.037  17.538   0.425 -0.2600 -0.0044 -0.1621
 4800W        W19931   2.711  13.974  15.113 -0.2182  0.1751 -0.2495
 4801W        W19932  13.700   1.323   1.460 -0.1618  0.3318  0.1773
 4802W        W19933  12.498   9.576  15.220 -0.0574  0.0048  0.0466
 4803W        W19934   8.716  10.411   0.575 -0.1681  0.4065 -0.0232
 4804W        W19935  12.798   4.342  13.639 -0.0487 -0.2504 -0.1771
 4805W        W19936   1.512   2.806   0.846 -0.0445  0.4041  0.2592
 4806W        W19937   8.694  17.581   3.083  0.2544  0.2129  0.3583
 4807W        W19938  10.812  12.290  13.082  0.0723  0.0610  0.3542
 4808W        W19939   1.213  17.874   2.502  0.3918 -0.2200  0.5453
 4809W        W19940  13.546   6.512   4.607 -0.1882 -0.1179 -0.1924
 4810W        W19941   6.630  12.328   1.099  0.0232 -0.0838 -0.1723
 4811W        W19942   1.118  14.694  14.157  0.0211 -0.0120 -0.0885
 4812W        W19943   9.350  14.576   0.492  0.0395  0.0746  0.0993
 4813W        W19944  16.292   1.210   4.559 -0.1423 -0.1232  0.0651
 4814W        W19945  17.902  13.676   2.424 -0.1947 -0.1331 -0.0102
 4815W        W19946  12.659   2.368   0.793  0.1776  0.2450 -0.1602
 4816W        W19947  13.807   2.002   3.923  0.1551 -0.1610  0.0356
 4817W        W19948  12.076  12.307  15.293  0.1492 -0.0040 -0.3994
 4818W        W19949   9.825   6.171  11.806  0.4765  0.0083  0.0570
 4819W        W19950  11.896  12.489   5.122 -0.1300  0.2358  0.3232
 4820W        W19951  15.682  14.637   1.837  0.1959 -0.1182 -0.0368
 4821W        W19952  12.932  16.162  12.977  0.2256 -0.2111 -0.2648
 4822W        W19953  13.638   8.770   2.353 -0.0262 -0.1362 -0.0315
 4823W        W19954   4.175   6.029  15.589 -0.1826 -0.0339  0.1083
 4824W        W19955   5.749  11.494   5.665 -0.2463  0.2356  0.0775
 4825W        W19956  15.938   8.219  12.309  0.0601  0.2077 -0.0590
 4826W        W19957   6.684   2.285  11.852  0.0026 -0.1529  0.2463
 4827W        W19958   6.066   3.639  13.418  0.2956 -0.2691  0.0424
 4828W        W19959   4.743   5.327  13.816  0.2124 -0.0317  0.1508
 4829W        W19960  12.460   1.690   5.075  0.2973  0.1394  0.2142
 4830W        W19961   5.610  17.255   1.160 -0.0274 -0.0711  0.1082
 4831W        W19962  17.381   9.681  12.551  0.1501 -0.1836  0.2533
 4832W        W19963  10.391   7.017   5.603  0.0699  0.0767  0.2557
 4833W        W19964   3.318   0.531  15.331  0.0141  0.1053  0.1782
 4834W        W19965   6.214  16.388   4.565 -0.0403  0.0833 -0.2248
 4835W        W19966   8.825   9.224  15.772  0.0330 -0.1232 -0.1824
 4836W        W19967  14.497   4.780   5.673 -0.1167  0.1017 -0.0337
 4837W        W19968   2.746   2.691  15.115 -0.1213 -0.1414  0.0622
 4838W        W19969   4.526   4.233   0.120  0.0887 -0.0927  0.1216
 4839W        W19970  17.364   0.028  11.687  0.0124 -0.1158 -0.1671
 4840W        W19971   9.885  11.179   5.255  0.3037 -0.0088 -0.2088
 4841W        W19972   7.120   8.644   0.566 -0.4797 -0.2448  0.0008
 4842W        W19973   9.692   0.341  14.470  0.2280  0.2321  0.1145
 4843W        W19974   2.265  13.996   9.713 -0.0014  0.4254 -0.1045
 4844W        W19975   4.344  14.309  10.822 -0.2428 -0.1341  0.0620
 4845W        W19976  16.342  13.868   2.742  0.0314 -0.1183  0.0514
 4846W        W19977   5.795  17.392  14.861  0.1796 -0.1981 -0.2748
 4847W        W19978   1.954   0.526  12.001  0.2470 -0.1464 -0.3635
 4848W        W19979   1.835   1.292  15.635 -0.1282 -0.1505  0.1107
 4849W        W19980   0.123   3.965   3.401  0.0883  0.0167 -0.1583
 4850W        W19981  17.505   6.323   4.144 -0.3026 -0.2157 -0.2074
 4851W        W19982  14.171   6.789   1.111 -0.1887  0.2425  0.2819
 4852W        W19983   2.299   8.241   3.613  0.0662  0.1939  0.2380
 4853W        W19984   6.910  10.862   2.905  0.1537  0.1588  0.0393
 4854W        W19985  12.550  16.790   1.687  0.2292  0.1175 -0.0458
 4855W        W19986  16.090   8.199  11.136 -0.0581  0.1818 -0.1480
 4856W        W19987  14.576   0.344   6.297  0.0645 -0.0140  0.1905
 4857W        W19988   7.494   5.829   3.021  0.0622 -0.1871  0.0749
 4858W        W19989   2.143   2.633  15.094  0.0182 -0.0235  0.1818
 4859W        W19990  12.155   1.353   5.329 -0.3236  0.2051  0.0348
 4860W        W19991  17.157   5.087  12.700 -0.0644 -0.2547  0.2127
 4861W        W19992   2.144   4.152   4.018  0.0224 -0.0426 -0.1044
 4862W        W19993  12.614   9.605  12.160  0.2821  0.2677 -0.1366
 4863W        W19994   0.784  11.378  10.799  0.0071 -0.3418  0.4021
 4864W        W19995  10.157   2.997   6.087 -0.1482 -0.2937 -0.2949
 4865W        W19996   9.828   8.080   1.964 -0.1401 -0.2269  0.0123
 4866W        W19997   1.545  16.796   2.828  0.5474  0.3236  0.3710
 4867W        W19998  17.519  10.178   5.688 -0.1196  0.0852  0.0665
 4868W        W19999   4.383   2.649   0.689  0.1496 -0.0265 -0.1232
 4869W        W20000  12.562   5.658  11.604  0.0559  0.1069 -0.0726
 4870W        W20001   3.037  16.912   3.541  0.2376  0.0750 -0.0686
 4871W        W20002   1.666   3.667   5.282 -0.2029  0.0629 -0.0428
 4872W        W20003  17.587   8.042  11.028  0.2786 -0.1742 -0.1077
 4873W        W20004   6.591   6.757   3.053  0.3098  0.1960  0.3399
 4874W        W20005   4.237   5.842  15.154  0.1535 -0.0134 -0.1053
 4875W        W20006  10.659  14.641   0.657  0.2398  0.2602 -0.0355
 4876W        W20007  13.644   2.233   3.433 -0.3926  0.0118 -0.0400
 4877W        W20008  15.647   1.325   3.302 -0.1719  0.0044 -0.3394
 4878W        W20009   5.040  18.315  10.387 -0.1905  0.0677 -0.0502
 4879W        W20010  17.096   9.157   1.148  0.2126  0.3814 -0.2390
 4880W        W20011  13.149  18.267  11.646  0.4777  0.2019 -0.1563
 4881W        W20012   6.175  17.922  12.954  0.2904 -0.0031 -0.1413
 4882W        W20013  13.692  11.677  13.140 -0.2012 -0.0597  0.2740
 4883W        W20014   8.270   5.621  14.446  0.1468 -0.0157  0.1913
 4884W        W20015  12.799   6.131   3.172  0.2058  0.0185 -0.2165
 4885W        W20016   3.948  17.210  10.482 -0.2387  0.1603  0.2577
 4886W        W20017   1.242  18.336   3.216  0.0651 -0.1016  0.1796
 4887W        W20018   9.044  10.523   1.854  0.1804 -0.0577 -0.0576
 4888W        W20019   6.840   5.040   3.046 -0.0195 -0.0871  0.1515
 4889W        W20020   9.955  14.366  15.015 -0.0743 -0.1222 -0.3314
 4890W        W20021  17.447  17.369  14.143 -0.1267  0.0116 -0.0906
 4891W        W20022  10.699  17.151   0.501 -0.3378  0.0495  0.2008
 4892W        W20023  17.734  12.777   5.882  0.0520 -0.2597  0.1973
 4893W        W20024  18.428   0.627   5.333  0.4247  0.1565 -0.0875
 4894W        W20025  14.971  12.953  13.121 -0.1486  0.2943 -0.1102
 4895W        W20026  17.000   0.232   2.101 -0.0197  0.0795  0.1060
 4896W        W20027   9.152   7.491   3.454 -0.0050 -0.0097 -0.0287
 4897W        W20028   9.002   6.144   4.090  0.0386 -0.4070 -0.4231
 4898W        W20029  18.194  14.709   4.836 -0.0680 -0.1530 -0.1383
 4899W        W20030   3.151  15.606   2.286 -0.6325 -0.2173 -0.2212
 4900W        W20031  12.291  11.909  16.033 -0.4229 -0.1478 -0.0157
 4901W        W20032  17.939   2.900  14.426 -0.0369 -0.3331  0.0351
 4902W        W20033  12.289  14.796  12.103 -0.2714  0.2277 -0.1483
 4903W        W20034  11.453   2.731   4.163 -0.0051  0.0466 -0.1165
 4904W        W20035  17.271   0.817  14.320  0.2119  0.0449  0.1923
 4905W        W20036  15.682  11.558   3.381  0.4068 -0.0755  0.1633
 4906W        W20037  12.945  17.335  16.058  0.0197 -0.0244 -0.0802
 4907W        W20038  16.711   8.968  11.103 -0.1255 -0.4479  0.0671
 4908W        W20039  16.232   5.361  15.820  0.1926  0.1003 -0.3747
 4909W        W20040  12.941   0.998  12.196 -0.0215 -0.0039  0.1137
 4910W        W20041   6.211  12.753  16.017  0.2013 -0.1029  0.1223
 4911W        W20042   9.385   9.934  15.481 -0.2211 -0.2919  0.0166
 4912W        W20043  13.683  14.899   3.300 -0.1810 -0.1317  0.1364
 4913W        W20044   1.683   9.306  13.301 -0.1454  0.0974  0.0462
 4914W        W20045  16.845   9.890   1.516  0.2587  0.0231  0.0593
 4915W        W20046  17.151   6.141   3.830 -0.1783  0.3680 -0.1510
 4916W        W20047   4.955   7.542   5.573  0.0374 -0.0427  0.1071
 4917W        W20048   2.856   0.541  12.362  0.0226  0.1407  0.2350
 4918W        W20049   7.181   4.173  13.367 -0.1531 -0.0740 -0.0985
 4919W        W20050   2.169  11.559   1.331  0.2168  0.2407  0.0003
 4920W        W20051  12.981  16.744  10.963 -0.2217  0.1191  0.1659
 4921W        W20052  14.662   5.546   5.192 -0.0160  0.0521 -0.0629
 4922W        W20053   2.681   2.417   2.842  0.4364  0.0224 -0.0341
 4923W        W20054   0.284  17.345  12.225 -0.0432 -0.3479  0.2144
 4924W        W20055   4.821   9.817  13.466  0.1174  0.0428  0.0193
 4925W        W20056   7.377  15.781   1.202  0.1042 -0.0120  0.1258
 4926W        W20057   4.641   1.612  11.674 -0.0929  0.3947 -0.2101
 4927W        W20058   3.119  12.437   4.713 -0.1452 -0.2108 -0.0209
 4928W        W20059  14.214  13.777  10.689  0.0160  0.1349 -0.2435
 4929W        W20060   9.811  14.920   5.682 -0.2125 -0.2028 -0.0993
 4930W        W20061   0.143   1.413   5.444  0.1067  0.0587 -0.1126
 4931W        W20062  11.285  10.156  12.625 -0.1302 -0.5063  0.0885
 4932W        W20063   1.846  17.003   3.217 -0.1957 -0.0601 -0.2664
 4933W        W20064  10.967   1.631   1.175 -0.0816  0.1983  0.0246
 4934W        W20065  10.386  15.138  13.163 -0.2357 -0.1599 -0.0673
 4935W        W20066   8.970   4.779   4.555  0.2581  0.0277 -0.2496
 4936W        W20067  10.696   4.442  13.514  0.1028 -0.0158  0.1095
 4937W        W20068  17.591  14.635  15.431 -0.1500 -0.0252  0.1416
 4938W        W20069  14.426   6.644  14.846 -0.0305  0.2102 -0.0967
 4939W        W20070   7.691   5.962   4.240  0.1014 -0.1576  0.0349
 4940W        W20071  10.734   8.711  11.704 -0.0853 -0.6193  0.1351
 4941W        W20072   1.465  17.810  10.664 -0.0420  0.1634 -0.0560
 4942W        W20073  16.902   1.309   2.715  0.0706  0.2391  0.1517
 4943W        W20074   0.533   4.537   2.628  0.0760 -0.2074  0.2530
 4944W        W20075   9.700  17.063  15.417 -0.1773  0.3053 -0.0230
 4945W        W20076   7.393   7.071  13.102  0.2655  0.0723 -0.3410
 4946W        W20077   6.708   1.385  11.217  0.0941  0.1600 -0.2925
 4947W        W20078   1.004   5.784   2.993  0.1688 -0.0018  0.1313
 4948W        W20079   9.011  10.106   1.148  0.1659 -0.1781 -0.2182
 4949W        W20080   6.046  11.443   5.235  0.1027 -0.2673 -0.3861
 4950W        W20081  14.941   1.628  15.085 -0.0936  0.1542 -0.2455
 4951W        W20082   3.760   8.143   0.708  0.1309  0.0916  0.3405
 4952W        W20083   5.461  15.399   3.990 -0.0857  0.0370  0.1178
 4953W        W20084  10.839  15.453   4.759 -0.0376 -0.1625 -0.0862
 4954W        W20085  14.177   7.291   1.079  0.0470 -0.1593 -0.0010
 4955W        W20086  14.432  16.930   0.488  0.0981 -0.0081  0.1234
 4956W        W20087  16.537   8.046  15.712 -0.0823  0.3137  0.4179
 4957W        W20088  15.866   6.883   3.353 -0.1818  0.1453  0.0296
 4958W        W20089   2.494   6.204   0.623 -0.0573  0.2102 -0.0624
 4959W        W20090  14.410  14.759   1.460 -0.0821 -0.0186 -0.0221
 4960W        W20091  17.482  16.257  14.312  0.1105 -0.2232 -0.1559
 4961W        W20092   5.236   7.145   1.745  0.0044 -0.2106 -0.0488
 4962W        W20093   9.351  15.983  14.305 -0.3868  0.1662  0.0304
 4963W        W20094   6.978  12.209  12.745  0.3048  0.3366  0.2934
 4964W        W20095  10.624  13.258   2.114  0.0435 -0.1900  0.1047
 4965W        W20096  10.165   5.561  14.204 -0.0725 -0.1672 -0.0877
 4966W        W20097  11.240  18.372   4.986 -0.0831  0.0786  0.0526
 4967W        W20098  14.749   5.877   0.282 -0.0761 -0.3067 -0.0669
 4968W        W20099  11.255  10.500   1.292  0.1841  0.0406  0.2039
 4969W        W20100   1.164  14.978  13.260  0.3422  0.1519 -0.3841
 4970W        W20101   3.764   4.448  10.984  0.1777 -0.1298 -0.1871
 4971W        W20102  15.107   6.760  16.001 -0.0328  0.2379  0.1200
 4972W        W20103  13.861  12.004  11.824 -0.1554 -0.0980  0.1180
 4973W        W20104  17.162  14.482   9.380 -0.0086 -0.1198 -0.0339
 4974W        W20105  18.466   2.582   3.295 -0.0888 -0.2494 -0.1014
 4975W        W20106   3.174   2.954  12.380  0.0864  0.3102 -0.1748
 4976W        W20107  17.766  14.527   2.793  0.2827  0.3350  0.0447
 4977W        W20108  13.391  10.529   0.537 -0.0833 -0.2026 -0.1999
 4978W        W20109  17.051  17.918   0.937 -0.1289 -0.0399 -0.2658
 4979W        W20110  12.023  10.373  13.702  0.1317  0.0044 -0.2167
 4980W        W20111   1.732  15.212   2.426 -0.2451  0.1099  0.1376
 4981W        W20112   7.078   1.287   5.475  0.4765 -0.2010 -0.1251
 4982W        W20113   8.183  16.571  12.160  0.2063 -0.0428  0.0063
 4983W        W20114   0.525   7.293   0.468  0.1556 -0.0443  0.1528
 4984W        W20115  12.082   1.723   1.283 -0.0599  0.2293  0.0688
 4985W        W20116   8.850   7.389   1.600 -0.0149 -0.0566 -0.0448
 4986W        W20117   3.082   7.239   4.542  0.1316  0.0428 -0.3069
 4987W        W20118   0.193  13.753  11.369 -0.1558 -0.1316 -0.1183
 4988W        W20119  15.696  12.868   6.116 -0.3960  0.0601 -0.1840
 4989W        W20120  15.446   7.202   5.219 -0.0807 -0.2039  0.2201
 4990W        W20121  10.403  15.930  14.318 -0.2624 -0.0598 -0.2057
 4991W        W20122  11.800  10.609  14.219  0.0158 -0.3719 -0.0532
 4992W        W20123   8.899  16.797   0.654  0.0354 -0.1524 -0.2437
 4993W        W20124  11.917   6.584  15.415  0.2248  0.1865 -0.4183
 4994W        W20125  11.220   3.746   4.369 -0.1384  0.1183  0.1028
 4995W        W20126  11.469  15.157   4.782 -0.0109  0.1093  0.0974
 4996W        W20127   8.925  12.276   0.017  0.1135  0.2463  0.0880
 4997W        W20128  17.894   9.247  12.714  0.0747 -0.0197  0.1076
 4998W        W20129  16.108  14.530   4.562 -0.0573  0.3414  0.0160
 4999W        W20130   7.338  10.365   0.730  0.2024  0.0919  0.0044
 5000W        W20131   6.539  17.480   1.634 -0.0717 -0.3471 -0.0926
 5001W        W20132   4.419  17.999  13.577 -0.1208  0.2115 -0.0490
 5002W        W20133   9.731  16.640  15.796  0.1310 -0.0101 -0.3043
 5003W        W20134  12.872  12.574   2.242  0.0414  0.1924 -0.1422
 5004W        W20135  18.087   6.181  13.017 -0.1189 -0.2038  0.1368
 5005W        W20136   9.602   6.539   5.352  0.2110  0.2670  0.1512
 5006W        W20137   2.573   1.997  15.631  0.0216  0.0693 -0.2967
 5007W        W20138   3.361  15.377   4.262 -0.1681 -0.0832 -0.3329
 5008W        W20139  11.029   3.559  15.151  0.2385  0.2617 -0.1655
 5009W        W20140  13.367  14.679  15.286  0.0996  0.3522  0.4483
 5010W        W20141  12.795  14.627  13.599 -0.0226 -0.3512  0.4087
 5011W        W20142  12.343  17.302  12.179  0.1905 -0.2855  0.0121
 5012W        W20143  15.059  18.423  13.757  0.0021  0.0233  0.0635
 5013W        W20144  14.125   6.455  14.500  0.3653 -0.1413 -0.0633
 5014W        W20145   4.676   3.003  12.440  0.0354  0.0481 -0.1026
 5015W        W20146  13.314  12.411  12.442  0.1908 -0.0358 -0.1470
 5016W        W20147   5.118   1.090   1.514 -0.2225 -0.1007 -0.1320
 5017W        W20148  15.830  10.146   4.669  0.2113 -0.1667 -0.0751
 5018W        W20149  13.240   4.430   2.369  0.1604 -0.0542  0.2105
 5019W        W20150  12.702   8.879   1.375 -0.2091 -0.1143  0.1998
 5020W        W20151   3.589   4.221  15.008  0.1103  0.2165  0.0071
 5021W        W20152   7.649  17.615   0.772 -0.1993  0.1451  0.1134
 5022W        W20153  11.099   1.102  12.889 -0.3428  0.2236 -0.1049
 5023W        W20154   6.058   7.562  14.852 -0.4485  0.1007 -0.0657
 5024W        W20155  11.149  14.791  10.689  0.1664 -0.0040  0.0343
 5025W        W20156   5.048   7.148  11.377 -0.4231 -0.0621 -0.0230
 5026W        W20157  17.056   3.171  10.807  0.0196 -0.1023  0.1814
 5027W        W20158  16.699  12.093   5.669 -0.0109 -0.1765  0.0855
 5028W        W20159  13.084  12.126  16.099  0.0449 -0.4086  0.0615
 5029W        W20160  10.094   4.683  13.977 -0.3659  0.0122  0.3580
 5030W        W20161   4.931  18.004   1.109  0.1466 -0.0836  0.3878
 5031W        W20162   4.725  13.008  10.161  0.0617  0.4941  0.1120
 5032W        W20163   3.924   6.729   5.428  0.1015  0.1428 -0.4556
 5033W        W20164  16.179  11.717  12.951 -0.1779  0.2908 -0.3054
 5034W        W20165   2.249  11.178   4.244 -0.1240 -0.1248 -0.3611
 5035W        W20166  17.415  18.417  10.697 -0.0075  0.0615 -0.0813
 5036W        W20167  13.421  13.813  11.781  0.2726  0.0321  0.0772
 5037W        W20168   4.984  18.328  14.196 -0.0899  0.0967  0.0403
 5038W        W20169   8.215   5.545   1.560 -0.0528  0.0659  0.0367
 5039W        W20170   4.791   0.143  10.004 -0.1560  0.0840  0.1570
 5040W        W20171  16.591  14.007  10.815 -0.0441  0.2033  0.4535
 5041W        W20172  14.585   3.634   3.936 -0.1930 -0.0771  0.2505
 5042W        W20173   3.495   4.462  11.992 -0.2567 -0.0580  0.0520
 5043W        W20174  11.576   7.205  10.860  0.0116  0.3162 -0.3528
 5044W        W20175   1.763   6.373  15.324  0.0521  0.0348  0.3155
 5045W        W20176   1.110   6.869   2.410  0.1162  0.0835  0.1684
 5046W        W20177  17.705   2.888   2.348 -0.3919  0.0886  0.0415
 5047W        W20178  13.711   5.047   3.342 -0.0816 -0.2723 -0.1282
 5048W        W20179   2.247   0.669   1.074  0.3366 -0.0515 -0.1653
 5049W        W20180  13.686  16.912   3.170 -0.0266  0.1908 -0.0660
 5050W        W20181  18.472  10.425  13.102 -0.2474  0.0840 -0.1481
 5051W        W20182  10.574   7.952  13.754  0.4588  0.0665 -0.0716
 5052W        W20183  12.197   5.311  11.471  0.0692 -0.3114  0.2545
 5053W        W20184   3.434   2.182  11.098 -0.0758  0.3875  0.1768
 5054W        W20185   4.338   1.516  12.471 -0.0342 -0.0731  0.1661
 5055W        W20186   0.123   5.411  14.114  0.1485 -0.1078 -0.4091
 5056W        W20187  18.037  12.119  12.728  0.1167 -0.0677 -0.0862
 5057W        W20188  12.763   0.169  13.417  0.0073 -0.1260 -0.1077
 5058W        W20189   6.979   9.470  14.074 -0.1506 -0.0034  0.0472
 5059W        W20190  14.397   4.884  12.517 -0.3758  0.1277 -0.0999
 5060W        W20191   1.166  12.737   1.655  0.0717 -0.1664 -0.1087
 5061W        W20192   2.396   4.544  11.213 -0.1441  0.4547  0.0549
 5062W        W20193   3.120   3.732  15.222  0.0340 -0.1046  0.2565
 5063W        W20194   0.753  10.985  15.423  0.0672 -0.1682  0.2754
 5064W        W20195  18.029  12.200  14.068  0.2816 -0.1706  0.0057
 5065W        W20196   6.218   9.906   5.040 -0.2659  0.2426 -0.3539
 5066W        W20197   5.801  11.091  11.907 -0.3376  0.4733 -0.1035
 5067W        W20198   5.748  14.211   1.468 -0.1142  0.0738  0.0426
 5068W        W20199   8.432   9.438  15.514  0.0027 -0.0267  0.1005
 5069W        W20200  14.187  13.100  13.709  0.1259 -0.1053  0.1086
 5070W        W20201  14.251   7.803  12.401  0.1680 -0.1804 -0.1799
 5071W        W20202   0.410  18.466   2.708 -0.2417 -0.4062 -0.2127
 5072W        W20203   4.280  11.489   4.419 -0.0045  0.3061 -0.1530
 5073W        W20204  15.476   4.422   5.249  0.1431 -0.1933  0.0224
 5074W        W20205   9.279  16.828  15.969 -0.2577  0.3069 -0.0220
 5075W        W20206  17.175  10.170   0.880  0.2840  0.0612 -0.0506
 5076W        W20207   6.022  11.503   0.235  0.1691 -0.3571 -0.0930
 5077W        W20208   8.594  16.237  13.372 -0.0365 -0.0125 -0.1775
 5078W        W20209  15.432  14.022   1.110 -0.0688  0.2008  0.0939
 5079W        W20210   2.903   8.401  14.508  0.0361 -0.3130 -0.0438
 5080W        W20211   2.072   7.749   1.010  0.0308  0.0394  0.0977
 5081W        W20212   2.422  10.225  12.129  0.3890  0.0809 -0.1212
 5082W        W20213   2.453   6.778   0.783  0.2431 -0.0331  0.2420
 5083W        W20214   0.658  10.149  15.961 -0.1380 -0.3959 -0.0457
 5084W        W20215  18.010   5.537   2.076  0.3412  0.0129  0.2034
 5085W        W20216   6.805   7.676   3.588  0.0182  0.2765  0.1606
 5086W        W20217  16.102   8.042  15.547 -0.2513 -0.1759  0.1557
 5087W        W20218   6.351  12.336  12.512 -0.2075 -0.2146 -0.2079
 5088W        W20219   3.799   5.667  15.453 -0.0598  0.2986  0.0317
 5089W        W20220   2.915   0.619  14.965 -0.0824  0.0437 -0.1663
 5090W        W20221  14.959   3.187   0.890 -0.2678  0.1666 -0.1978
 5091W        W20222   7.677   7.092  13.519  0.3068  0.2856  0.3901
 5092W        W20223   9.648   7.965  11.445  0.3419  0.3002 -0.1579
 5093W        W20224   8.941  12.832   5.178 -0.3171  0.0653 -0.0916
 5094W        W20225  17.292   9.823  11.689  0.2035 -0.1384 -0.1114
 5095W        W20226   7.667  11.110   5.173 -0.0054  0.2264 -0.2409
 5096W        W20227  12.753  13.792   3.454  0.0606  0.1132  0.1022
 5097W        W20228   6.384  16.412  14.284  0.0953  0.1018 -0.2340
 5098W        W20229   5.810  15.306   1.841 -0.1259 -0.0684  0.1533
 5099W        W20230   8.196   7.352  15.484  0.0908  0.0757 -0.1751
 5100W        W20231  13.757  15.664   2.430 -0.0676 -0.1686  0.0783
 5101W        W20232  13.358  13.481  12.515  0.2478  0.0992  0.1883
 5102W        W20233  13.238  12.540   2.532 -0.0910 -0.2693  0.0409
 5103W        W20234  11.286  13.795  14.470 -0.0890 -0.0013  0.0410
 5104W        W20235   6.816   0.539  14.042  0.6227  0.0506  0.1594
 5105W        W20236   3.411   6.891   4.473  0.0229  0.0652 -0.0567
 5106W        W20237  12.921   5.944   5.004  0.4085 -0.1118 -0.1435
 5107W        W20238  16.946   2.438  12.815 -0.1729 -0.2642  0.1593
 5108W        W20239  17.581  13.349  13.306 -0.0586  0.0418 -0.0991
 5109W        W20240   4.104   1.831   3.926  0.1280 -0.0836  0.2464
 5110W        W20241   7.944  14.826  10.503 -0.0273  0.2491  0.3914
 5111W        W20242  17.732   3.338   2.038 -0.1576  0.0793 -0.0672
 5112W        W20243  17.809   1.698  10.047 -0.1256 -0.0193 -0.2062
 5113W        W20244  13.542  12.609  11.998 -0.0908 -0.5024  0.3207
 5114W        W20245  12.793  15.551   2.241 -0.3105  0.1056 -0.3617
 5115W        W20246  13.120   6.651  11.644 -0.0625 -0.1631 -0.3552
 5116W        W20247   1.599  14.041   2.785 -0.2201 -0.0545  0.0890
 5117W        W20248   6.120  13.498  15.255  0.2330  0.0951 -0.0753
 5118W        W20249  17.146   5.155   2.726 -0.1175  0.1451 -0.0941
 5119W        W20250   2.306   0.420  15.703 -0.4370 -0.0013  0.1899
 5120W        W20251  17.917   0.231  13.906  0.1739 -0.1548 -0.3038
 5121W        W20252   1.494  11.901  14.684  0.1236 -0.0138 -0.1282
 5122W        W20253  17.872   5.156   3.801  0.0704  0.1524  0.0252
 5123W        W20254   2.005   2.785  13.230 -0.1753  0.2280 -0.0856
 5124W        W20255  11.719  16.084   2.931  0.0944  0.3825 -0.1951
 5125W        W20256  12.362  13.099   3.947  0.0844 -0.5522  0.0539
 5126W        W20257  13.390  10.511  13.045  0.2138  0.0195 -0.4092
 5127W        W20258   6.954   2.879  13.658  0.0419  0.1034  0.1242
 5128W        W20259   2.490   7.026   6.572  0.3269  0.1306  0.0889
 5129W        W20260   1.618   2.951  12.890 -0.0532  0.3399  0.1754
 5130W        W20261   2.418   7.548  14.160 -0.3269 -0.0021  0.3640
 5131W        W20262  15.889   0.596  13.799 -0.1461  0.0216  0.3874
 5132W        W20263  17.821  13.820   4.603  0.0113  0.0789 -0.0160
 5133W        W20264   7.073   0.352   2.222  0.0433  0.2102  0.0662
 5134W        W20265   9.884  14.330   2.244  0.0470  0.3728  0.2141
 5135W        W20266  14.127   9.135   2.562 -0.1231 -0.0784  0.1432
 5136W        W20267  11.269   6.250  12.631 -0.2611 -0.2384  0.2573
 5137W        W20268  16.562  13.575  15.790 -0.0777 -0.3499  0.0225
 5138W        W20269   0.046  10.287  13.958 -0.0759 -0.3057 -0.2473
 5139W        W20270   7.849  13.470  14.739  0.1562 -0.0173  0.0431
 5140W        W20271   8.220   4.937   0.600 -0.1494  0.0586 -0.0093
 5141W        W20272  10.129  16.531  13.517  0.0864 -0.1758  0.2247
 5142W        W20273  16.027  13.181   5.055 -0.2824 -0.3080  0.0276
 5143W        W20274  13.932   8.436   5.288  0.3034  0.2029  0.0656
 5144W        W20275  11.597   4.912   3.410  0.0952 -0.2396  0.0921
 5145W        W20276   5.988  17.614  11.686  0.3388 -0.0701  0.1732
 5146W        W20277   2.797   1.917  14.806  0.0719  0.1197 -0.1438
 5147W        W20278  13.159   0.699  12.514  0.0515  0.2874  0.0240
 5148W        W20279  10.076   5.913  12.667 -0.0102 -0.0029 -0.0015
 5149W        W20280  13.511  11.030   4.060  0.1420  0.2666 -0.3733
 5150W        W20281   6.324  18.323   3.186  0.3148  0.2422  0.3631
 5151W        W20282  16.780   9.631   3.051  0.4453 -0.0998 -0.1053
 5152W        W20283   5.120   5.117   3.463 -0.0380 -0.2184 -0.3116
 5153W        W20284   1.134   3.428   2.645 -0.2553 -0.0596 -0.1710
 5154W        W20285   6.243   8.535  12.660 -0.3252  0.0143  0.1484
 5155W        W20286  14.656  10.042   1.934 -0.0465  0.0272  0.1371
 5156W        W20287   4.359  10.833   4.889 -0.0766 -0.0476  0.1379
 5157W        W20288   9.814  18.169   2.796  0.2037 -0.0692  0.0245
 5158W        W20289   6.828  11.882  15.666 -0.0464 -0.1434 -0.0617
 5159W        W20290   5.063   2.031  15.251  0.0552 -0.1661  0.0717
 5160W        W20291  11.096   3.288  12.089  0.1323 -0.1293  0.2192
 5161W        W20292   4.023   4.053  12.647 -0.2116 -0.1061  0.3890
 5162W        W20293   4.185  18.296  12.321  0.1461 -0.2404 -0.2215
 5163W        W20294   4.863   5.913  13.947 -0.3241 -0.2287 -0.1821
 5164W        W20295   9.558   7.713   3.272  0.1234 -0.0944 -0.0608
 5165W        W20296  11.845  17.162  12.954 -0.2420 -0.0125 -0.0596
 5166W        W20297   6.179   8.791  11.867 -0.4323  0.3116  0.4035
 5167W        W20298   7.458   0.191   3.845 -0.1077  0.1567 -0.1349
 5168W        W20299   5.263  10.604   4.642 -0.3008 -0.0599 -0.0062
 5169W        W20300   1.237  13.097  10.132  0.1403  0.0090 -0.0298
 5170W        W20301  12.287   3.704  13.233  0.2580 -0.2708 -0.3552
 5171W        W20302  17.078  16.332   1.036  0.1004 -0.1574 -0.1389
 5172W        W20303   6.516  13.061   5.048  0.0084 -0.1096 -0.1547
 5173W        W20304   7.510   3.393   0.081 -0.1079 -0.1016  0.1219
 5174W        W20305  11.747  11.078   2.382 -0.2263 -0.0607 -0.0117
 5175W        W20306  14.618   0.083   4.146  0.1281 -0.1787 -0.0875
 5176W        W20307  10.784   2.172  13.309 -0.2063 -0.3537 -0.1277
 5177W        W20308   7.593  14.071   0.655 -0.0097  0.3129 -0.2211
 5178W        W20309  18.144  13.752  13.366 -0.0221  0.0364 -0.1591
 5179W        W20310   8.739  10.934   4.619 -0.3642 -0.0898  0.0073
 5180W        W20311  16.673   8.397   0.359  0.3221  0.3115  0.2636
 5181W        W20312   9.169   8.235  15.096  0.0275  0.1702 -0.2397
 5182W        W20313   6.427   2.678   2.855 -0.2036  0.1049 -0.0665
 5183W        W20314  13.503   2.800   0.534 -0.2419  0.3695 -0.4063
 5184W        W20315  11.330  17.824   3.308  0.1639 -0.2148  0.0357
 5185W        W20316   8.372  17.748  11.420  0.2121 -0.0707 -0.0321
 5186W        W20317   4.102  10.018  15.480 -0.0833 -0.0445  0.4694
 5187W        W20318  16.475  15.164   2.767 -0.1566 -0.0825 -0.2125
 5188W        W20319   4.885   9.245   1.366  0.2204  0.1206  0.2168
 5189W        W20320  15.050   1.892  12.958  0.1810  0.0353  0.0107
 5190W        W20321   4.850   0.042   9.521  0.1442  0.1003 -0.1309
 5191W        W20322  12.736  17.608  14.246  0.0940  0.0718  0.3884
 5192W        W20323   7.752  16.235   5.910 -0.0215 -0.3107  0.0143
 5193W        W20324  15.237  12.636   1.591  0.0964 -0.0532  0.0949
 5194W        W20325   9.576  11.877  15.167  0.0537 -0.0526  0.2725
 5195W        W20326  13.119   4.783   6.266 -0.4114  0.1052 -0.2870
 5196W        W20327   8.362   6.350   0.167  0.0493 -0.0146  0.0883
 5197W        W20328  13.466  13.318   1.371  0.0690 -0.0065 -0.3115
 5198W        W20329  14.092  11.514   5.428 -0.0567 -0.0624 -0.0591
 5199W        W20330  11.641  16.056   3.575 -0.2286 -0.2589  0.4645
 5200W        W20331   9.468  13.594  12.182 -0.1268  0.0913  0.0413
 5201W        W20332  16.432   3.467   1.620  0.0858  0.2106  0.1221
 5202W        W20333  17.326   9.985   3.469  0.2291  0.1629 -0.3334
 5203W        W20334   1.416   1.574   3.785 -0.1033  0.1044 -0.1135
 5204W        W20335  11.727  14.216  15.207  0.0419 -0.1651 -0.0841
 5205W        W20336   3.848   5.468  10.730  0.0427 -0.2246  0.3144
 5206W        W20337  18.284   4.437   2.385  0.0530  0.0047 -0.3415
 5207W        W20338   7.933  12.634  15.135  0.1297 -0.3394  0.1528
 5208W        W20339  10.818   0.598   4.658  0.0117  0.0587 -0.0749
 5209W        W20340   3.050   5.851   5.251 -0.0964 -0.4424  0.0387
 5210W        W20341  13.905  11.910  13.499  0.1346  0.4202  0.2578
 5211W        W20342  10.509   2.214  11.937  0.2046 -0.0287 -0.0975
 5212W        W20343   9.739   8.153  13.561 -0.2021  0.0537 -0.1307
 5213W        W20344   1.148  13.618   2.919  0.2112  0.2590  0.0930
 5214W        W20345   0.913  15.473  12.444  0.1247 -0.2200  0.2177
 5215W        W20346  17.709  12.038   1.778  0.1902 -0.4273  0.2017
 5216W        W20347  18.100  17.915   4.431 -0.1843  0.1142  0.3204
 5217W        W20348  15.637   0.741  15.879 -0.1288  0.0791  0.0260
 5218W        W20349   8.361   1.042  15.233  0.2689  0.1551 -0.0788
 5219W        W20350   5.076   8.569  12.113 -0.0373 -0.0328  0.0156
 5220W        W20351  13.989  13.610   2.183  0.0797 -0.1304 -0.1284
 5221W        W20352   6.931  10.305   5.297  0.0999  0.3741 -0.0812
 5222W        W20353   2.261   5.717  11.345  0.1286 -0.3522 -0.0236
 5223W        W20354  12.860  15.100  12.240 -0.0675  0.2691 -0.0748
 5224W        W20355  17.053  14.301  14.382  0.0944 -0.2839 -0.1658
 5225W        W20356   4.020   9.027   0.806 -0.1777 -0.0879  0.2019
 5226W        W20357  10.403   0.875   4.563 -0.0673  0.0821 -0.1118
 5227W        W20358   7.253   7.052  11.371 -0.1785 -0.2297 -0.0649
 5228W        W20359  18.383   7.864   2.671 -0.0260 -0.1061  0.2113
 5229W        W20360   3.287   5.195  14.754 -0.0754  0.0706  0.0750
 5230W        W20361   2.616   7.635   4.026 -0.1674 -0.0594 -0.3586
 5231W        W20362  11.077   6.158   6.016 -0.3202  0.0181 -0.2746
 5232W        W20363   8.391   4.098  12.752  0.3927 -0.0593  0.0270
 5233W        W20364   7.865  10.021   1.606  0.2033 -0.0348 -0.1873
 5234W        W20365  14.941   4.894   5.571  0.1458 -0.1055  0.0793
 5235W        W20366   9.125  17.815  15.860  0.1384  0.0068 -0.2193
 5236W        W20367  10.859   3.149  13.353 -0.4143  0.1009 -0.1523
 5237W        W20368  11.228   1.234   1.541  0.0446 -0.0741 -0.2265
 5238W        W20369   7.545  14.833   1.739  0.0411  0.0094 -0.1340
 5239W        W20370   6.455   4.865   5.307 -0.0034 -0.4394 -0.0309
 5240W        W20371  17.255  15.616  10.420  0.2847 -0.0036  0.0983
 5241W        W20372   9.426   2.172   4.142 -0.0166 -0.0514 -0.0001
 5242W        W20373   3.233   4.450   2.872  0.2154  0.0834  0.2958
 5243W        W20374   1.002   7.966  11.342 -0.1402 -0.0613 -0.2775
 5244W        W20375   2.661   1.305   1.895 -0.1001 -0.1200  0.0506
 5245W        W20376  13.796   0.034  13.534  0.2684  0.0625  0.0828
 5246W        W20377   8.474   5.374   5.050  0.1548 -0.1235 -0.1069
 5247W        W20378  16.385  12.380  11.076  0.2422  0.2182  0.1324
 5248W        W20379   7.335   6.620  11.719  0.0206  0.0632  0.0404
 5249W        W20380   1.690  10.231   4.261  0.3812  0.1583 -0.0103
 5250W        W20381  18.003   5.689   2.525  0.0236 -0.0101  0.1065
 5251W        W20382   9.763   0.963  10.784 -0.2371  0.2467 -0.1461
 5252W        W20383   3.683   5.808  13.670  0.1828  0.2391  0.1661
 5253W        W20384   7.641   2.952  10.902  0.2080  0.1138  0.1728
 5254W        W20385   4.409   6.381   0.513  0.0026  0.1456 -0.0370
 5255W        W20386  13.803   4.683  13.674 -0.0988 -0.0327  0.2065
 5256W        W20387   1.092  10.808  16.105  0.1325  0.2811  0.0314
 5257W        W20388  17.521   7.194  11.483 -0.2693 -0.0636 -0.2515
 5258W        W20389  13.126   8.540   1.010  0.0814  0.1131  0.1233
 5259W        W20390   3.200   4.286  12.342  0.0019  0.3140  0.2756
 5260W        W20391  16.260  13.025  13.911  0.1896  0.0563 -0.1157
 5261W        W20392  13.239   0.806  10.397 -0.0341 -0.3394 -0.4311
 5262W        W20393   5.847   1.036   2.722 -0.0412  0.1156 -0.1439
 5263W        W20394  13.819  18.135   3.241 -0.0468  0.0943  0.3272
 5264W        W20395  12.083  17.043   0.310 -0.1403 -0.1457 -0.1996
 5265W        W20396  13.810  17.729  10.945  0.0290 -0.4031 -0.1733
 5266W        W20397  13.694   0.981   1.848  0.0636 -0.0124 -0.3054
 5267W        W20398  16.246  12.531   0.381  0.1642 -0.0897  0.0012
 5268W        W20399  10.494  15.211   2.930  0.2807 -0.0011  0.0096
 5269W        W20400   7.019   9.214   0.598 -0.2513  0.2474 -0.0286
 5270W        W20401  10.231   4.633   4.059 -0.0211 -0.1107  0.0503
 5271W        W20402  14.491   8.988   2.220  0.0184 -0.1962  0.1473
 5272W        W20403  12.425   8.066   3.783  0.0810  0.1358 -0.1194
 5273W        W20404   3.554  10.284  15.439  0.1585  0.1316 -0.0037
 5274W        W20405   8.621   8.824   4.589  0.3848  0.1390 -0.5381
 5275W        W20406   0.293   0.318   3.957 -0.0184 -0.0423  0.0066
 5276W        W20407  16.501   2.179   4.730 -0.3214  0.1524 -0.2006
 5277W        W20408   1.747  13.486   3.847  0.0950  0.2532  0.2600
 5278W        W20409   6.237  11.307   1.482  0.0878 -0.2717  0.0484
 5279W        W20410  17.996  15.456   1.069 -0.0975 -0.0945 -0.3577
 5280W        W20411   9.790   9.657  14.926 -0.3142 -0.1783 -0.3896
 5281W        W20412  10.858  18.049   5.856 -0.2515  0.0327 -0.0772
 5282W        W20413   9.018   1.353  12.626  0.0871  0.0624 -0.0836
 5283W        W20414   2.384   8.624  13.682  0.0515  0.3059  0.0283
 5284W        W20415  15.233  10.104  12.074 -0.1262 -0.1390 -0.1506
 5285W        W20416   6.641  15.385   0.651 -0.4473  0.1426  0.1759
 5286W        W20417  17.340  15.101  11.265 -0.1050  0.0428  0.0963
 5287W        W20418  10.009   4.384   4.567 -0.4638 -0.0490 -0.1498
 5288W        W20419   7.170   4.631   3.858 -0.1247 -0.0848 -0.0645
 5289W        W20420   2.334   3.713   3.885 -0.2288  0.3032 -0.0312
 5290W        W20421   5.130   3.478  13.685 -0.3291 -0.1031 -0.0934
 5291W        W20422  13.005   1.328   4.066 -0.1061  0.1543 -0.0282
 5292W        W20423   4.151   0.309  11.744 -0.3173  0.1516  0.1252
 5293W        W20424   1.870  15.210   1.479  0.0333 -0.0248  0.1366
 5294W        W20425   6.640   7.765  11.442  0.0319  0.0392 -0.3235
 5295W        W20426   4.913  10.944   4.882 -0.0721  0.1630  0.0151
 5296W        W20427   2.955  17.973   0.713 -0.4342 -0.1246 -0.1975
 5297W        W20428  12.731   2.425   1.821  0.2630  0.1820 -0.0879
 5298W        W20429  12.702   4.978   1.480 -0.0956 -0.0219 -0.0418
 5299W        W20430   8.758  18.326  14.253  0.2188  0.0726 -0.0863
 5300W        W20431  13.756   8.784  13.656 -0.3247 -0.0759  0.2694
 5301W        W20432  15.836   0.571  12.768 -0.0049 -0.1575 -0.1490
 5302W        W20433  13.743  14.042   2.946 -0.2523  0.1319 -0.1184
 5303W        W20434   5.092  15.092   4.077 -0.2237 -0.3859  0.2342
 5304W        W20435   6.865  10.399  14.651 -0.0617 -0.0692  0.4969
 5305W        W20436  17.180   6.235  16.028  0.4847 -0.3009 -0.2874
 5306W        W20437  16.358  16.212   1.765  0.0723 -0.0959 -0.1950
 5307W        W20438  16.391  13.539   0.491  0.0763 -0.2961 -0.2015
 5308W        W20439   5.343   4.107   4.675  0.1916 -0.0399  0.3358
 5309W        W20440  14.179  15.677   3.725  0.0266 -0.1412 -0.2612
 5310W        W20441   4.671  14.265  11.438 -0.2467  0.0235  0.0763
 5311W        W20442   2.220   3.555  15.559 -0.2341 -0.0172 -0.2608
 5312W        W20443  14.971  10.037   5.376  0.2640 -0.0367 -0.0829
 5313W        W20444  14.317   5.616  14.956 -0.0236  0.3203 -0.0229
 5314W        W20445   6.241   0.597  10.511 -0.0329  0.1409 -0.3595
 5315W        W20446  15.431   8.212  14.295 -0.0689  0.0219  0.1763
 5316W        W20447  10.951   8.022  16.101  0.2114 -0.0647  0.3621
 5317W        W20448   9.832   3.694   2.858 -0.0923 -0.0880  0.1078
 5318W        W20449  15.763  15.792  10.486 -0.1085 -0.5399 -0.2118
 5319W        W20450   0.603  12.840  15.981 -0.2225  0.0418  0.4015
 5320W        W20451  16.285   0.823  14.555 -0.2194 -0.1810 -0.0102
 5321W        W20452   1.347   2.222  11.934 -0.0221 -0.1919  0.1539
 5322W        W20453  15.815  13.865  14.122  0.0097  0.3021  0.2537
 5323W        W20454   4.064  15.644   3.113 -0.0018 -0.1971 -0.0518
 5324W        W20455  13.128  13.483  11.514  0.1353  0.3361 -0.1446
 5325W        W20456  15.372   4.894   5.361 -0.1212  0.0604 -0.0676
 5326W        W20457  16.346  12.093   2.274 -0.1744 -0.1595 -0.0051
 5327W        W20458   9.244   0.609  13.085 -0.0101 -0.0673 -0.0535
 5328W        W20459  17.895  11.436  12.170  0.3984 -0.0042 -0.0713
 5329W        W20460  11.424   7.446  14.822  0.2229 -0.1435  0.1069
 5330W        W20461  13.944   4.569  11.723  0.0296  0.0375 -0.1434
 5331W        W20462  15.109   5.294  15.930  0.4345  0.1406 -0.2435
 5332W        W20463  13.452   9.083  13.358  0.1628  0.2297  0.2827
 5333W        W20464   7.573   8.245   2.681 -0.2931 -0.3401 -0.1404
 5334W        W20465   3.694  12.153  15.973  0.0667  0.3000  0.0400
 5335W        W20466  16.665   9.273   5.882  0.1112 -0.2604  0.1891
 5336W        W20467   0.543   4.717   3.129 -0.1070  0.0278  0.1714
 5337W        W20468  12.657   5.912  14.580 -0.0394  0.2336  0.1252
 5338W        W20469   1.806   0.003  15.527 -0.3305 -0.1646  0.1004
 5339W        W20470  11.086  10.686  13.041 -0.0353  0.0528  0.1046
 5340W        W20471   5.038  13.786  13.419  0.1013 -0.1127 -0.3103
 5341W        W20472  17.238   1.136  15.404  0.0245  0.3776 -0.4184
 5342W        W20473  12.958  18.190   1.927  0.2571  0.0873 -0.2531
 5343W        W20474  10.151  16.793   1.253 -0.0654 -0.1194 -0.2317
 5344W        W20475  14.807  14.910  15.166  0.1617 -0.0063 -0.4137
 5345W        W20476   6.644  10.355  11.997 -0.2177  0.2629  0.0342
 5346W        W20477   2.828   5.523  15.608 -0.0773 -0.0807  0.1651
 5347W        W20478  18.371  11.005  14.078  0.1252  0.1694  0.1450
 5348W        W20479  12.530  17.632   0.060 -0.1820 -0.2250  0.3558
 5349W        W20480   5.703   8.946   3.457  0.2111  0.0514 -0.0999
 5350W        W20481   9.944  14.489   2.712 -0.2772 -0.0462  0.1596
 5351W        W20482  12.050   0.976  12.485 -0.1674  0.1925 -0.0865
 5352W        W20483  15.861   8.305   3.937 -0.1699 -0.0858  0.1643
 5353W        W20484   2.143   0.264  12.711  0.2666 -0.0120  0.1621
 5354W        W20485  13.324   4.829   3.083  0.3179  0.1653 -0.2182
 5355W        W20486   0.689   8.099   3.870 -0.1336 -0.0683 -0.3245
 5356W        W20487  11.737   3.718  12.565 -0.1546  0.1016 -0.3340
 5357W        W20488  14.175  14.444  14.022 -0.4382  0.3187 -0.1071
 5358W        W20489   4.214   3.139   4.156 -0.2822  0.1704 -0.0837
 5359W        W20490   1.390   7.078  13.779  0.0750  0.3104 -0.0982
 5360W        W20491   3.394  18.085  12.529 -0.1157  0.0023 -0.0762
 5361W        W20492  13.461   1.133   2.948 -0.1000  0.5280  0.5762
 5362W        W20493  13.338   8.662   4.822 -0.2770  0.0451 -0.1980
 5363W        W20494  13.706   4.409   1.327 -0.0667  0.1766 -0.2890
 5364W        W20495  10.645   7.308   5.122 -0.2060  0.0324 -0.0564
 5365W        W20496  16.450   7.335  16.101  0.2234 -0.2321 -0.1544
 5366W        W20497   6.570   1.035  11.986 -0.0674 -0.1852  0.1122
 5367W        W20498  12.307  11.279  14.442 -0.0554  0.2781 -0.1174
 5368W        W20499   3.833  15.564   1.388  0.3111 -0.2250 -0.0280
 5369W        W20500   1.217  12.513   0.813 -0.0670  0.0458 -0.0353
 5370W        W20501   2.693   6.876  16.052  0.1840 -0.2022 -0.1135
 5371W        W20502  11.564  14.957  15.638 -0.2261 -0.3939 -0.2737
 5372W        W20503   9.770  12.321  14.937 -0.4728 -0.3797 -0.0086
 5373W        W20504   2.979  14.401  15.439 -0.0765  0.2228 -0.0847
 5374W        W20505   7.266   9.064   3.454 -0.0548 -0.0080  0.0243
 5375W        W20506  16.033   7.811  13.283 -0.1316 -0.0125  0.0594
 5376W        W20507  17.605   8.788   4.650  0.1541  0.1619 -0.2878
 5377W        W20508  14.748  18.131  11.236  0.3232  0.3798  0.0123
 5378W        W20509   0.886   5.592   2.517 -0.1477  0.0633  0.0035
 5379W        W20510   0.773  17.499   1.216 -0.3002  0.4429  0.1060
 5380W        W20511  10.575  11.586   4.606 -0.3690  0.3353  0.0603
 5381W        W20512   3.279   2.729   1.547  0.0317  0.0622  0.3246
 5382W        W20513  10.757   7.220  11.485 -0.1919  0.2636  0.3520
 5383W        W20514  18.097   9.545  13.910  0.0636 -0.4868  0.0795
 5384W        W20515  11.414   8.283   5.612 -0.0649  0.0525  0.2183
 5385W        W20516  14.160   2.227   3.139  0.0720 -0.4508 -0.0199
 5386W        W20517   8.602  12.501   3.913 -0.2417 -0.1016 -0.0531
 5387W        W20518  13.875   1.070  13.219 -0.1901 -0.1547  0.4189
 5388W        W20519   1.486  10.386   5.005 -0.0832  0.0943 -0.0283
 5389W        W20520  17.901   6.208  14.756 -0.1170  0.1495 -0.0410
 5390W        W20521   0.483  15.915  11.114 -0.2800 -0.2085 -0.0955
 5391W        W20522   0.581   4.168   3.984 -0.1582  0.0538  0.1182
 5392W        W20523  18.107  13.775   5.070  0.0508  0.1974 -0.0120
 5393W        W20524   0.091  11.284   0.863  0.2377  0.1129 -0.1841
 5394W        W20525  13.598   2.805   4.104 -0.0398  0.1163 -0.0710
 5395W        W20526  15.926  13.043  14.340  0.3483 -0.1451  0.1855
 5396W        W20527  10.503   6.284  14.780 -0.0732 -0.3083 -0.2175
 5397W        W20528   0.276   3.902  15.139 -0.0728  0.1588 -0.0472
 5398W        W20529  12.531   4.451  15.750 -0.1927  0.1577 -0.3058
 5399W        W20530  11.441   1.924   1.349 -0.0751  0.2317 -0.0850
 5400W        W20531   7.088   8.402   1.006  0.1134 -0.0007 -0.3190
 5401W        W20532  11.080   5.818  11.886 -0.1758 -0.1255 -0.1147
 5402W        W20533  13.020  17.876  16.013 -0.1595 -0.2006 -0.4779
 5403W        W20534   7.926   4.731  15.532 -0.2147 -0.2437 -0.0268
 5404W        W20535  12.339   5.907   2.889 -0.3211 -0.0615 -0.1557
 5405W        W20536   3.972  14.983  15.397 -0.1659 -0.2634  0.0917
 5406W        W20537  11.225   8.809   4.831 -0.1821  0.1767 -0.2881
 5407W        W20538   8.040   2.306   2.542  0.0524  0.0011  0.2446
 5408W        W20539   4.724  13.725  12.034  0.0094 -0.1708 -0.2902
 5409W        W20540  15.491  14.409  10.238 -0.0062  0.0542 -0.4251
 5410W        W20541  17.700  10.650   3.012 -0.2768 -0.2352 -0.0975
 5411W        W20542   5.143  16.775   4.213 -0.0164  0.3461 -0.2484
 5412W        W20543  10.768  13.758   1.856  0.1495 -0.0660 -0.0490
 5413W        W20544   3.557   1.827   1.788 -0.1361  0.1446 -0.1215
 5414W        W20545   1.568  11.819   3.349 -0.1665 -0.2047 -0.1426
 5415W        W20546   5.070  15.299  10.434 -0.0448  0.2045 -0.1006
 5416W        W20547   3.610  12.326  12.010 -0.3057 -0.2451 -0.0371
 5417W        W20548   9.015  14.234  12.172 -0.2491 -0.2779 -0.0721
 5418W        W20549  11.277  13.633  12.773 -0.0803 -0.1053  0.2709
 5419W        W20550  11.851   9.855   1.836 -0.0682 -0.2629 -0.3760
 5420W        W20551   3.875  10.986  12.188 -0.1789 -0.1624 -0.0650
 5421W        W20552   6.576   1.118  14.073 -0.1718 -0.1421 -0.1264
 5422W        W20553   2.966   0.817   3.879 -0.0786  0.2402  0.2100
 5423W        W20554   9.500  11.539   2.619  0.1380 -0.1028  0.0179
 5424W        W20555  17.496   6.698   0.172  0.1807 -0.2542 -0.0871
 5425W        W20556   1.802   2.481   4.059  0.0402 -0.2338 -0.0596
 5426W        W20557   4.908   7.064   5.747 -0.5918 -0.2182 -0.1361
 5427W        W20558   6.226   1.130   5.600 -0.3811  0.2015 -0.2163
 5428W        W20559  15.130   7.240  13.179 -0.0908  0.0513 -0.0254
 5429W        W20560  10.970  17.322   4.053 -0.2289 -0.2567 -0.1349
 5430W        W20561  10.788  18.156   4.788  0.0751  0.0587  0.0725
 5431W        W20562  16.331   5.961   6.579 -0.0086 -0.2250  0.0488
 5432W        W20563   9.393  12.889  13.900  0.2003  0.1097 -0.1447
 5433W        W20564  16.356   1.580   2.907  0.1613  0.2135  0.1492
 5434W        W20565  18.211  18.024  11.868 -0.0080 -0.0129 -0.0431
 5435W        W20566   0.384   6.175  14.430 -0.0079  0.0466  0.0517
 5436W        W20567   4.869  10.078   2.016 -0.0827 -0.1531  0.2082
 5437W        W20568   0.135  17.485   3.745 -0.1527 -0.1670  0.2048
 5438W        W20569   6.534   6.019  14.888 -0.0368 -0.0812  0.2217
 5439W        W20570   6.552   3.502  10.358  0.0395 -0.4110 -0.2323
 5440W        W20571   7.880  15.841  14.567 -0.0336 -0.2486 -0.4043
 5441W        W20572   4.893   7.479   6.213  0.3201  0.1076  0.1697
 5442W        W20573  10.265  16.639   0.382  0.4850  0.0580  0.0861
 5443W        W20574   0.865  11.386  14.363 -0.1261  0.4417 -0.2607
 5444W        W20575   6.130  15.840  12.193 -0.2494 -0.1429  0.1717
 5445W        W20576  12.377   2.335  13.654  0.1720 -0.0928  0.1081
 5446W        W20577  13.104   4.304  11.682  0.0979 -0.0194  0.1992
 5447W        W20578  12.823  16.614  13.636 -0.0956  0.0574 -0.1899
 5448W        W20579   8.890   5.218   4.298 -0.1023  0.4508 -0.2503
 5449W        W20580  13.413   4.876   2.129 -0.0576  0.2666 -0.1245
 5450W        W20581  12.055  14.631   1.353  0.0789 -0.0195  0.0705
 5451W        W20582  12.460   0.741  13.463 -0.2940  0.1177 -0.3096
 5452W        W20583  16.653   1.748   5.043  0.3497 -0.3445  0.2789
 5453W        W20584   9.759   3.016   2.877  0.5111 -0.0475  0.0060
 5454W        W20585  10.835   1.934  14.716 -0.0087  0.0441  0.2778
 5455W        W20586   1.247   8.633  12.101  0.4312  0.2283 -0.2649
 5456W        W20587   2.620  17.929   2.568 -0.0325 -0.1032 -0.3400
 5457W        W20588   3.348  15.841   4.222  0.0924 -0.0678 -0.3851
 5458W        W20589   9.775  12.619   2.760  0.0785  0.1365 -0.0520
 5459W        W20590   3.227  17.670   3.330 -0.0472  0.0349 -0.0951
 5460W        W20591   9.170   3.827  15.893 -0.1833  0.1804 -0.1197
 5461W        W20592   3.208  14.480  12.497 -0.0739 -0.0058 -0.1911
 5462W        W20593  12.050  17.571   4.769 -0.2329  0.1615 -0.2441
 5463W        W20594   1.383  14.241  11.318 -0.1360 -0.3122 -0.1476
 5464W        W20595  12.373   8.692  11.258  0.1391  0.2057  0.2239
 5465W        W20596   9.027  10.178   3.291  0.0555  0.0314  0.1582
 5466W        W20597  10.463   1.531  12.450 -0.1219  0.2399 -0.0615
 5467W        W20598  12.742  10.125   1.734  0.4352  0.3241  0.0403
 5468W        W20599   6.479   9.347   0.614 -0.2170 -0.0028 -0.0393
 5469W        W20600   6.228   3.718   4.310  0.0836 -0.1400  0.0908
 5470W        W20601  14.904   8.480  12.345  0.2134 -0.0377  0.1984
 5471W        W20602   3.926   1.096  13.386 -0.1772  0.4794 -0.0722
 5472W        W20603   5.562  18.309   5.014 -0.4515  0.0441  0.2771
 5473W        W20604  15.797   9.938  13.093 -0.1994 -0.2998 -0.0347
 5474W        W20605  16.542  14.328  11.734 -0.0558 -0.0518  0.3287
 5475W        W20606   3.497   1.593  12.808 -0.0337  0.0986 -0.5046
 5476W        W20607  13.533  10.612  15.329 -0.0514  0.1907  0.0508
 5477W        W20608   8.682   4.425   5.434  0.1406  0.0196 -0.0947
 5478W        W20609  13.747   7.152  15.486 -0.3342 -0.4004  0.0330
 5479W        W20610  15.698   8.264  15.846 -0.1071  0.0461 -0.0787
 5480W        W20611   8.528   6.626  11.350 -0.2556  0.1586  0.0813
 5481W        W20612  17.786  10.559   4.105 -0.1038  0.2192 -0.2469
 5482W        W20613   0.493  13.114   2.517 -0.3112  0.1001  0.2642
 5483W        W20614   1.001  13.525  11.901  0.0235 -0.0721  0.0264
 5484W        W20615   7.317  15.321  10.994 -0.0691 -0.0960 -0.2637
 5485W        W20616   3.540   1.679   2.759  0.2973 -0.0663  0.1424
 5486W        W20617   8.021  13.251   3.399 -0.1167  0.3262  0.2466
 5487W        W20618   7.694  14.095  11.839  0.2520  0.1055  0.1457
 5488W        W20619   8.649  10.399  13.231  0.3675  0.0459 -0.0761
 5489W        W20620   2.345  17.443   9.855  0.0675  0.2123  0.0891
 5490W        W20621  10.791   0.759   3.755 -0.0055  0.1117 -0.0668
 5491W        W20622   2.281   6.570   3.184 -0.0412  0.3044 -0.0515
 5492W        W20623   8.807  12.446   2.285 -0.1403 -0.1749  0.3799
 5493W        W20624  17.424  16.646   2.626  0.0754  0.0407 -0.2021
 5494W        W20625  14.026   8.131  12.015 -0.1167  0.5213  0.2006
 5495W        W20626   4.806  15.143   2.789  0.0098  0.0430  0.0085
 5496W        W20627   9.080  12.413   1.377  0.1960 -0.2645  0.1203
 5497W        W20628  16.949  14.883   0.771 -0.2006  0.1131 -0.1575
 5498W        W20629  17.666  15.556   3.678 -0.1071 -0.2495 -0.0243
 5499W        W20630  16.540   1.058   1.648  0.0322 -0.1293  0.1147
 5500W        W20631  11.992   4.942   5.371 -0.1160 -0.3605  0.1280
 5501W        W20632  18.438   5.882   2.553  0.3317  0.0920  0.1766
 5502W        W20633  14.088  13.570  13.472 -0.0837 -0.0483 -0.1161
 5503W        W20634   7.548  12.272   4.157  0.1312  0.0291  0.0597
 5504W        W20635  16.524  18.070  11.204 -0.0945  0.3036 -0.1672
 5505W        W20636  14.056  12.147  11.354  0.1998 -0.2434 -0.2670
 5506W        W20637   1.868   9.524  13.739 -0.1897 -0.0562  0.1027
 5507W        W20638  12.335  15.987  15.925  0.2330 -0.0324 -0.0058
 5508W        W20639   9.193   5.823   0.853 -0.2082 -0.1475  0.1969
 5509W        W20640   7.732  18.170  11.761  0.0863 -0.0596  0.0315
 5510W        W20641  17.968   4.199  11.855  0.0747 -0.1091  0.1656
 5511W        W20642  10.360  10.229   5.120 -0.3198  0.1705  0.0164
 5512W        W20643  17.830  18.112   2.872 -0.0155 -0.1631 -0.0179
 5513W        W20644   0.611  17.640   2.899  0.4308  0.1281 -0.0410
 5514W        W20645   9.065  13.774   3.471 -0.0477 -0.0443 -0.0395
 5515W        W20646   3.093  16.753   2.777  0.4440  0.1318 -0.0303
 5516W        W20647   6.707   4.131   2.586 -0.2617  0.3630 -0.1077
 5517W        W20648   0.437  14.909   1.111 -0.1532  0.0256  0.0225
 5518W        W20649  12.869  13.621  15.617 -0.0631  0.0489 -0.1796
 5519W        W20650   1.040  11.920  15.765  0.1796  0.1735  0.2366
 5520W        W20651   2.812  13.424   1.620 -0.3433  0.2156  0.0063
 5521W        W20652   2.913   3.497  14.148  0.0659  0.1883  0.0150
 5522W        W20653   2.602   2.305  12.847 -0.2328  0.0108  0.1115
 5523W        W20654   5.671  12.762   5.089  0.2320 -0.0058  0.1608
 5524W        W20655  11.579  10.426   1.665 -0.3879 -0.1297  0.2205
 5525W        W20656   3.425  15.857  15.690  0.2186  0.2320 -0.2427
 5526W        W20657  17.492   5.497  14.768 -0.0544 -0.0895 -0.1442
 5527W        W20658   3.503   4.169   1.529  0.0272 -0.0069 -0.2664
 5528W        W20659   8.572   3.843  10.242  0.0669 -0.2012 -0.1431
 5529W        W20660  16.079   5.050   5.883  0.0316 -0.2267  0.0647
 5530W        W20661  11.268   3.902   6.173  0.2379  0.0868 -0.1611
 5531W        W20662   8.334  16.193  14.398 -0.1475  0.1259  0.0693
 5532W        W20663   9.848  10.986  12.285 -0.1502  0.2050  0.0873
 5533W        W20664   4.883  16.769  11.719  0.0249 -0.3629 -0.4891
 5534W        W20665  14.171  14.531  11.218  0.2218 -0.0235  0.0096
 5535W        W20666   2.140   9.136   3.340 -0.0575  0.0371  0.0402
 5536W        W20667  16.757  10.499  13.830 -0.0668  0.0621 -0.1121
 5537W        W20668   7.385  17.709   5.944  0.0807  0.1741 -0.2181
 5538W        W20669  14.995  18.074   3.889 -0.0836  0.1477 -0.4519
 5539W        W20670   0.666   7.971   1.139 -0.0674 -0.1561 -0.2336
 5540W        W20671   4.386   6.515  13.291  0.0380 -0.0278  0.0256
 5541W        W20672  10.336   0.704   2.078 -0.3138  0.1094 -0.3519
 5542W        W20673   6.049   8.244   0.843 -0.1598  0.1174  0.1355
 5543W        W20674  18.333  14.845  11.841 -0.0543 -0.1143 -0.0984
 5544W        W20675  14.367   1.825   1.960  0.1011 -0.1256  0.1803
 5545W        W20676   2.526   3.825  13.975 -0.0538  0.0537 -0.1233
 5546W        W20677   6.613   3.366  14.952 -0.3974 -0.3421 -0.0972
 5547W        W20678   3.990  13.390   3.121 -0.1568  0.2872  0.0812
 5548W        W20679   0.014   3.107  13.730  0.2308  0.1246  0.1371
 5549W        W20680   1.478   8.961  13.028  0.1380  0.3210 -0.0410
 5550W        W20681  10.371   5.195  12.063  0.0683  0.0394  0.0865
 5551W        W20682   0.837  14.464   5.371  0.2551 -0.0202  0.1074
 5552W        W20683  16.396   3.572  11.075  0.4083  0.3409 -0.1991
 5553W        W20684   6.402  18.256   4.641  0.3584  0.2033 -0.7211
 5554W        W20685  13.411   1.203  14.777 -0.2174 -0.1488 -0.0237
 5555W        W20686  15.093   8.744   1.428  0.3430 -0.0223  0.2368
 5556W        W20687   2.293   1.401  11.759  0.1183  0.3855 -0.0595
 5557W        W20688  17.595  14.378  14.429  0.0698  0.2564 -0.1061
 5558W        W20689   7.699   2.601   2.000 -0.0375  0.0821 -0.0773
 5559W        W20690   1.624   0.908  10.731 -0.0076 -0.0326  0.2341
 5560W        W20691  14.015  14.137   2.517  0.2584  0.1238  0.0526
 5561W        W20692  16.382   9.047   0.030 -0.2877 -0.0897  0.0608
 5562W        W20693  10.065   0.929  15.855  0.0489  0.2636  0.0338
 5563W        W20694   3.469  18.313  15.074  0.1191  0.0265  0.2293
 5564W        W20695   4.131  11.172  14.043 -0.0915 -0.4098  0.2363
 5565W        W20696   6.270   3.157   3.414 -0.0552 -0.0684  0.0677
 5566W        W20697  11.721   3.649  15.811  0.1819  0.0561 -0.2770
 5567W        W20698   6.233  12.279  14.054  0.1324  0.2079 -0.1134
 5568W        W20699  16.896   1.945  11.632  0.1880 -0.0918 -0.0527
 5569W        W20700  11.525  15.773  11.077 -0.0215 -0.0253  0.2974
 5570W        W20701   4.468   3.656   1.001 -0.4381 -0.3498 -0.1322
 5571W        W20702  14.990  14.994   1.346 -0.1478  0.0383  0.1941
 5572W        W20703  10.029   1.179   0.195 -0.1010 -0.0876  0.1700
 5573W        W20704   4.711   3.768   5.772  0.0613 -0.0741 -0.0260
 5574W        W20705   3.865  12.996  15.758  0.0928 -0.0004  0.2164
 5575W        W20706   7.542  13.473   0.054 -0.2792 -0.0096  0.3797
 5576W        W20707   4.298  13.095   5.190 -0.4108 -0.1723 -0.1763
 5577W        W20708  11.049   2.901   3.352  0.0031 -0.2065 -0.1607
 5578W        W20709   1.657   8.910  10.609 -0.2214 -0.2712 -0.0234
 5579W        W20710   2.072  11.719   4.413 -0.0493  0.3877 -0.0007
 5580W        W20711  12.111  17.400  11.695  0.1152  0.0307  0.2201
 5581W        W20712   2.583   5.135  14.034 -0.2203  0.1365 -0.0541
 5582W        W20713   4.739  10.891   3.504  0.3024  0.0183 -0.1990
 5583W        W20714   7.724   6.385   1.380 -0.1834  0.1023 -0.1080
 5584W        W20715   8.016   7.052   5.353 -0.1018 -0.0469  0.2918
 5585W        W20716   0.975   7.753   1.796  0.2583 -0.1712 -0.0317
 5586W        W20717  17.338   9.035   0.079 -0.1138 -0.1045  0.1276
 5587W        W20718   4.588   6.208  15.124 -0.3877  0.0433 -0.1433
 5588W        W20719  11.295   5.531  12.263  0.0466 -0.1087  0.4792
 5589W        W20720  15.639  16.476  12.348  0.0318 -0.0978 -0.0231
 5590W        W20721  11.857  11.933  15.620  0.1078  0.2478  0.0219
 5591W        W20722   6.048   1.941  13.775 -0.0748  0.2038  0.1236
 5592W        W20723  12.038  13.972   5.543  0.1075 -0.0517  0.3091
 5593W        W20724  11.265  10.058   1.592  0.0348  0.3436 -0.1028
 5594W        W20725  10.510   4.714  11.563  0.0984  0.2966  0.1215
 5595W        W20726  16.184  17.629   4.222  0.4341 -0.1289  0.1190
 5596W        W20727   9.879   8.698   4.777  0.0860 -0.0900  0.1869
 5597W        W20728  10.571   4.391   0.226  0.2038  0.0015 -0.3022
 5598W        W20729  10.122   4.644  12.203  0.0063  0.0077 -0.1082
 5599W        W20730   7.156   5.007  13.372 -0.0926  0.0378 -0.1012
 5600W        W20731   4.739   8.639   2.139 -0.2062 -0.1043 -0.0388
 5601W        W20732   3.632  11.036  12.652  0.0193  0.2420 -0.0354
 5602W        W20733  13.452  18.249  13.277 -0.0369  0.0885 -0.1236
 5603W        W20734   7.495  10.448   2.289  0.2381  0.0687 -0.0686
 5604W        W20735   6.563  14.082   4.868 -0.1387  0.2718 -0.1142
 5605W        W20736  10.467   8.051  11.410  0.1543 -0.3848 -0.3231
 5606W        W20737   4.506  17.314   3.956  0.0346 -0.2695 -0.1564
 5607W        W20738   8.031   9.882   0.966  0.3263  0.2661  0.1529
 5608W        W20739   0.890   3.780   2.951  0.1953 -0.2560 -0.0630
 5609W        W20740   0.915   6.273   1.579 -0.3671  0.0620  0.1107
 5610W        W20741   0.857  16.317   4.415  0.1209 -0.3664  0.1278
 5611W        W20742  12.265   9.929   5.257  0.3466  0.1530 -0.1588
 5612W        W20743  16.013   2.518  11.889 -0.0721 -0.0567  0.1675
 5613W        W20744  13.125  10.287  12.060  0.0655  0.2396  0.4373
 5614W        W20745  15.341   4.886  15.658 -0.1605  0.3204  0.3510
 5615W        W20746   5.633   3.505  14.781  0.0357  0.0478 -0.1472
 5616W        W20747   5.571   4.202   1.952 -0.0964  0.0721  0.0539
 5617W        W20748  15.524   7.992  13.076  0.0981  0.3796 -0.1858
 5618W        W20749   5.437   1.559   4.778 -0.0221  0.2231  0.1984
 5619W        W20750  17.372  10.912  10.997  0.2576  0.0811 -0.1760
 5620W        W20751  11.819   0.068  13.716 -0.1121 -0.3486  0.2577
 5621W        W20752   8.375   8.608   2.892  0.1938  0.1054  0.0809
 5622W        W20753  16.231  18.142  11.799 -0.0268 -0.2316 -0.1255
 5623W        W20754  16.675   8.663   4.391 -0.1471 -0.2165 -0.1905
 5624W        W20755  18.116   4.432   3.127  0.1717  0.0921 -0.1257
 5625W        W20756  18.288  18.082   4.931  0.2265  0.1717  0.1931
 5626W        W20757   3.688   3.894   3.793  0.0794 -0.2360 -0.1028
 5627W        W20758   6.699   1.754  14.712  0.4657  0.1660 -0.1038
 5628W        W20759  13.467  10.572   5.432 -0.2773  0.1545  0.0048
 5629W        W20760   3.161  14.882   3.367 -0.0122  0.0322 -0.1138
 5630W        W20761  14.846   9.218   0.514  0.0817  0.0836 -0.0692
 5631W        W20762   1.887   4.648   1.452  0.1700  0.0506  0.2099
 5632W        W20763   4.784   8.906   4.061  0.2063  0.0294  0.1480
 5633W        W20764   7.631  17.460   3.244  0.1780 -0.0764  0.4108
 5634W        W20765   3.381   3.899  11.823 -0.3391  0.0917  0.3112
 5635W        W20766  11.964   0.423   3.503  0.0280 -0.1068  0.1531
 5636W        W20767  12.690  10.020   5.410  0.1018 -0.4293 -0.0695
 5637W        W20768  13.824  13.217  12.540 -0.0271 -0.1154  0.0074
 5638W        W20769  12.910  15.437   3.148  0.1488 -0.1818 -0.2457
 5639W        W20770   9.334  12.611  14.893 -0.3308  0.0593  0.1011
 5640W        W20771   1.336  18.195  14.052 -0.0445 -0.2847  0.0153
 5641W        W20772  10.468   1.128   2.886  0.0225  0.1496  0.4658
 5642W        W20773  11.558   3.224  14.376  0.3468 -0.1558 -0.2800
 5643W        W20774   8.795   2.600  10.177 -0.2410  0.1320  0.0304
 5644W        W20775  12.538   7.700  13.044  0.0835  0.2492  0.3326
 5645W        W20776  10.174   0.743   1.452  0.0812 -0.2130  0.1263
 5646W        W20777   4.704   5.346   4.126 -0.3019 -0.0469 -0.1048
 5647W        W20778   8.050  15.787   0.091  0.0163  0.1987 -0.4122
 5648W        W20779   1.364  17.517   1.107 -0.0864 -0.2074  0.0796
 5649W        W20780   8.807   3.723   3.382 -0.1113 -0.1287  0.0436
 5650W        W20781   5.389  13.587   9.897 -0.0502 -0.0110 -0.0305
 5651W        W20782   4.017  17.386  12.051 -0.1732  0.0154 -0.2305
 5652W        W20783   2.724  12.385   0.237  0.0790  0.2380 -0.1016
 5653W        W20784  11.057   9.151  15.278  0.1280 -0.1019  0.0997
 5654W        W20785  13.953  12.567   4.472 -0.3364 -0.0354  0.1424
 5655W        W20786  18.419  17.852  10.657  0.1046 -0.3691 -0.1049
 5656W        W20787  15.194  10.090  15.999  0.2317  0.5163 -0.1428
 5657W        W20788  12.701   7.911  10.448  0.0493  0.2452 -0.0653
 5658W        W20789  13.734  15.255  11.322 -0.2117  0.0102 -0.0238
 5659W        W20790   8.712   8.231   5.641 -0.2573  0.3052  0.0811
 5660W        W20791  10.477  17.960   3.130 -0.0069 -0.2705  0.2114
 5661W        W20792   2.197   9.332  13.331  0.0425  0.0098 -0.1010
 5662W        W20793  10.904   2.300  11.635  0.1731  0.1047 -0.1958
 5663W        W20794  18.484  12.616  14.657 -0.1507 -0.3011  0.1851
 5664W        W20795   1.967  15.508  16.102  0.2902  0.0999  0.0909
 5665W        W20796  13.431   4.717   0.933 -0.2810  0.1929  0.3384
 5666W        W20797  10.827   1.383  14.375  0.1466  0.3297 -0.2467
 5667W        W20798   8.083  14.509   3.495  0.0522 -0.0308  0.2679
 5668W        W20799   6.424   1.919   0.149 -0.0831 -0.0411 -0.3487
 5669W        W20800   6.086  17.624  12.174 -0.0581 -0.0157  0.1525
 5670W        W20801  17.388   8.089   6.289 -0.0318  0.1171  0.0028
 5671W        W20802  17.577   1.854  14.750 -0.0165 -0.0305 -0.2877
 5672W        W20803   6.887  15.902   2.529 -0.0554  0.0362  0.0637
 5673W        W20804   8.034   1.463   4.310  0.1763  0.0636 -0.1357
 5674W        W20805   2.670   7.577  15.338  0.0038 -0.2096 -0.2441
 5675W        W20806   4.114   8.968  14.343 -0.1401 -0.2585 -0.2064
 5676W        W20807   8.790   3.943  11.523  0.0137 -0.0706 -0.0030
 5677W        W20808   3.578   2.341  14.792 -0.2174  0.1063  0.0034
 5678W        W20809  14.579   3.059   3.157 -0.2482  0.2937  0.0473
 5679W        W20810  17.197   1.730   1.579  0.0178 -0.2221 -0.1550
 5680W        W20811   6.038  14.466  13.128 -0.0131 -0.1187 -0.0080
 5681W        W20812  14.282   3.361  14.671 -0.0398  0.0671 -0.0288
 5682W        W20813   3.400  17.089  15.638  0.2282 -0.2645  0.2690
 5683W        W20814  15.021  13.384   4.547 -0.0538 -0.1838 -0.1488
 5684W        W20815   3.042  14.838  10.971  0.2163  0.0312 -0.0248
 5685W        W20816  17.653  11.784  11.879 -0.1898  0.1123 -0.2550
 5686W        W20817   2.547   0.789  14.678 -0.0748  0.2043  0.2070
 5687W        W20818   8.581   6.936   6.599  0.1553  0.1609  0.2387
 5688W        W20819  16.086   6.027   0.180 -0.1829  0.4604  0.0248
 5689W        W20820   0.862   1.232   3.229  0.0192  0.1518 -0.1881
 5690W        W20821  10.288   2.725  12.133 -0.2253 -0.3677 -0.0379
 5691W        W20822   2.836   2.504   2.357 -0.1506 -0.1039 -0.2171
 5692W        W20823   8.327   4.342   5.042  0.1513  0.0939  0.1202
 5693W        W20824  15.011   3.840  14.160 -0.3163 -0.0291 -0.1057
 5694W        W20825   1.907  14.003   0.823 -0.1318  0.2355  0.2593
 5695W        W20826   6.994  10.753   4.447  0.0669  0.1293 -0.0274
 5696W        W20827   3.411  11.774  15.175  0.2622 -0.0480  0.2361
 5697W        W20828   2.407   2.091   1.205  0.0909 -0.1494  0.1038
 5698W        W20829   2.535  17.059  12.662 -0.0790  0.0806 -0.3198
 5699W        W20830  14.765   5.232   3.629 -0.2930  0.3103  0.0832
 5700W        W20831  17.731   5.958  13.496  0.2768  0.1945  0.0025
 5701W        W20832   5.610  12.267   2.628 -0.0260 -0.3059 -0.3741
 5702W        W20833  11.574   7.676   5.690 -0.0407 -0.0421 -0.1391
 5703W        W20834   9.993   0.839  12.506 -0.0014 -0.0629  0.0361
 5704W        W20835  14.623  12.604  10.814 -0.0694 -0.1708 -0.0090
 5705W        W20836  13.815   6.516   0.289 -0.0344 -0.3202 -0.2133
 5706W        W20837  12.403  10.450  13.302  0.1627  0.1490 -0.3576
 5707W        W20838  17.795   6.296   2.359 -0.0897  0.3152  0.0132
 5708W        W20839  15.466  11.400  11.160 -0.2290  0.0733 -0.0701
 5709W        W20840  13.881  15.593  15.695  0.2250 -0.2327  0.2021
 5710W        W20841   3.431   1.613   2.212  0.0866  0.0272 -0.3246
 5711W        W20842  12.842  13.418   3.910 -0.1640  0.3297 -0.1067
 5712W        W20843   6.980  16.659   3.567  0.0003 -0.0036  0.3867
 5713W        W20844   6.630  16.810   3.908  0.3465 -0.0721  0.0821
 5714W        W20845   5.218   3.368  13.158 -0.0859 -0.2851  0.0053
 5715W        W20846  18.409  14.933   2.703  0.0393  0.0529 -0.0083
 5716W        W20847   8.564  11.760   1.141 -0.0887  0.0048  0.3692
 5717W        W20848   7.805  13.005   5.415  0.2678 -0.5931 -0.0605
 5718W        W20849   6.522   2.576   4.322  0.0774 -0.2595 -0.2610
 5719W        W20850  10.441   7.117   6.128  0.3347 -0.0025 -0.1011
 5720W        W20851  17.623   9.330  13.632  0.0408  0.0618  0.1030
 5721W        W20852  15.610   5.794   3.711  0.3238 -0.3599  0.0899
 5722W        W20853  18.449   7.933  14.494  0.3981 -0.0985  0.2563
 5723W        W20854   6.944  14.607   1.161  0.1944  0.0578 -0.0267
 5724W        W20855   5.719   8.826   5.062  0.1380 -0.1785  0.1036
 5725W        W20856   8.904  13.556   4.716  0.2790 -0.2409  0.1044
 5726W        W20857  10.711  16.197  13.895  0.0734 -0.0494 -0.1366
 5727W        W20858   9.669   0.321   3.828  0.0195 -0.2982  0.1268
 5728W        W20859   8.206  18.311  12.917  0.0468 -0.1520 -0.1079
 5729W        W20860  13.688   9.476   6.323 -0.1860 -0.0157  0.1100
 5730W        W20861   6.105   9.093   2.026  0.1446 -0.1079 -0.0686
 5731W        W20862  12.863  11.299  13.074  0.2286  0.0850  0.0712
 5732W        W20863   6.216  13.176   5.466  0.1023 -0.2738  0.4964
 5733W        W20864  11.392  12.813   9.999  0.1053 -0.0081 -0.0357
 5734W        W20865  14.660  13.038   4.620 -0.1330  0.1527  0.4252
 5735W        W20866  13.934  10.333   5.051 -0.0678 -0.3951  0.5013
 5736W        W20867   0.762   6.285   0.245  0.0555 -0.0646  0.0019
 5737W        W20868  13.960  16.118   2.355  0.1929 -0.1462  0.0284
 5738W        W20869   4.878  10.991   0.240  0.0851  0.3389 -0.2624
 5739W        W20870   1.522  15.028  12.929  0.0802  0.3518  0.1284
 5740W        W20871  10.400   7.908   5.669  0.0150  0.2073 -0.1614
 5741W        W20872  12.248  15.479   3.232 -0.2628 -0.6975  0.1341
 5742W        W20873   2.742   2.814  13.933  0.1117  0.2401 -0.1133
 5743W        W20874   9.918  18.204   5.097  0.1901  0.0506  0.1133
 5744W        W20875   2.588   2.657  14.403  0.0477 -0.0405 -0.0179
 5745W        W20876  10.827  14.741  11.059 -0.1487  0.1204  0.0994
 5746W        W20877  17.866  18.266   5.575  0.0155  0.1622  0.0695
 5747W        W20878   0.205   9.005   3.753  0.1282  0.3551  0.0848
 5748W        W20879  11.119  14.515   0.304  0.1131  0.3533  0.0620
 5749W        W20880   2.632   9.823   3.647  0.2902  0.2168 -0.2306
 5750W        W20881  13.035  13.423  13.454 -0.2440  0.3053 -0.1272
 5751W        W20882  12.250   2.963  11.228  0.0484 -0.0572 -0.1538
 5752W        W20883   0.855   9.771  13.472  0.3398  0.1881 -0.1900
 5753W        W20884   9.875   0.187   2.835  0.0134 -0.0034  0.2236
 5754W        W20885   5.458   0.384   2.920  0.2593  0.2755  0.0024
 5755W        W20886   4.521  12.840   0.404  0.0792  0.0654 -0.0789
 5756W        W20887  10.705   8.404  15.675 -0.0970  0.0546  0.1591
 5757W        W20888  17.521   9.506   0.416 -0.3182 -0.2090 -0.0724
 5758W        W20889   0.315   4.819   1.063  0.0024  0.1831 -0.2733
 5759W        W20890   9.281  13.665  14.045  0.1486  0.1503 -0.0334
 5760W        W20891   6.505  17.489   1.148 -0.0161  0.0930  0.1574
 5761W        W20892  10.584   6.638   1.601  0.1436  0.3337  0.0440
 5762W        W20893   1.547  12.010  14.226 -0.0998 -0.0722 -0.1307
 5763W        W20894   8.892  12.737  12.451  0.1056  0.4636 -0.0654
 5764W        W20895  14.811  10.253   0.388 -0.3483 -0.0590  0.2629
 5765W        W20896  15.537   7.548   0.951  0.2098 -0.1473 -0.1042
 5766W        W20897  17.199   0.820   3.102 -0.1232 -0.0481 -0.1153
 5767W        W20898   8.740  15.656   2.890 -0.2246  0.0469  0.1853
 5768W        W20899   4.183  16.067   3.431  0.1118 -0.1190  0.0329
 5769W        W20900   5.672   7.455  12.048  0.0312  0.2725 -0.1934
 5770W        W20901  15.068   4.464   3.156 -0.2543 -0.2197 -0.0864
 5771W        W20902  10.927   5.357   5.831 -0.0967 -0.3008  0.1376
 5772W        W20903   8.785  16.131  11.454 -0.0455 -0.0099  0.0773
 5773W        W20904  12.862  17.102  13.437 -0.0695 -0.1457  0.0644
 5774W        W20905  17.837  13.604  11.128 -0.1162  0.0642  0.1402
 5775W        W20906  17.222   7.026   0.506 -0.1587 -0.2341  0.2823
 5776W        W20907  18.100  13.030  11.313  0.2696  0.3931  0.1681
 5777W        W20908   9.391  11.091   2.810  0.1559 -0.2452  0.4111
 5778W        W20909  10.744   7.239   0.055  0.0482 -0.2164  0.1487
 5779W        W20910  15.806  13.551  11.163  0.2192  0.0031  0.0672
 5780W        W20911   7.335   5.606   4.091  0.0352  0.1514  0.1927
 5781W        W20912   2.564   9.601   1.591 -0.2077 -0.1244 -0.0367
 5782W        W20913   8.797  17.367  15.309  0.3954 -0.0500 -0.3241
 5783W        W20914  15.043  14.879  14.748  0.0833 -0.1663 -0.3525
 5784W        W20915   1.121  12.831  10.988 -0.1151 -0.0727 -0.1453
 5785W        W20916  17.388  13.230  15.180 -0.0087 -0.3160  0.2619
 5786W        W20917  14.557  13.893  12.722 -0.2949 -0.1845  0.2991
 5787W        W20918   7.514  18.193  12.608  0.0410  0.2903 -0.0211
 5788W        W20919  10.771   2.527   3.131  0.0461  0.3030 -0.0843
 5789W        W20920  16.636  15.015   4.759 -0.0183 -0.0374 -0.0256
 5790W        W20921  10.556   0.006   4.379 -0.1538 -0.1706  0.4554
 5791W        W20922   6.350   3.636   1.266 -0.0847  0.1235  0.0445
 5792W        W20923   9.942   9.818  16.080 -0.0559  0.3648 -0.3477
 5793W        W20924  10.374   7.738   0.184  0.1645  0.1766 -0.0865
 5794W        W20925   8.716   1.693   2.288 -0.0413  0.3906  0.2853
 5795W        W20926  13.316  14.082  11.367 -0.1796  0.0372  0.0500
 5796W        W20927   7.856   9.864   0.265 -0.1501  0.2411  0.3759
 5797W        W20928  15.248   1.477  13.258 -0.0655  0.2056  0.1457
 5798W        W20929  13.064  13.174  15.311  0.1760 -0.1405  0.0996
 5799W        W20930  16.371  12.135  15.012 -0.2252  0.2250  0.0852
 5800W        W20931  18.446   2.077   3.494 -0.0315  0.0381  0.2921
 5801W        W20932   2.616   1.006  15.766 -0.1261  0.0048 -0.3373
 5802W        W20933  12.023   4.644  13.504  0.2957 -0.1917 -0.0753
 5803W        W20934   4.511   7.184   3.292 -0.4970 -0.0305 -0.1223
 5804W        W20935   1.762  18.304   3.014 -0.1396 -0.1904  0.2592
 5805W        W20936   9.487   5.982  14.308 -0.2123  0.3091 -0.1103
 5806W        W20937   9.091  17.039   4.355 -0.0169  0.2703  0.0909
 5807W        W20938  16.460   8.556   2.789 -0.0116 -0.0969  0.1813
 5808W        W20939   2.663  13.645  10.624 -0.0359  0.1406  0.1078
 5809W        W20940  10.879  17.387  11.378 -0.1002 -0.1765 -0.0611
 5810W        W20941   2.344  14.732  12.321  0.3544  0.1323 -0.2249
 5811W        W20942  17.894  18.182   9.630 -0.1731  0.1944  0.0756
 5812W        W20943  12.379  16.675   3.840 -0.0716  0.3027 -0.1645
 5813W        W20944  11.382   4.890   0.818  0.2733 -0.0573  0.1724
 5814W        W20945  17.988  18.401   4.568 -0.1100 -0.0730 -0.3341
 5815W        W20946  11.818   8.165   2.180 -0.1194  0.4876 -0.0833
 5816W        W20947   6.839   4.643   3.414  0.2731  0.1329  0.1795
 5817W        W20948   5.642   3.183  12.841 -0.0229  0.0619  0.3703
 5818W        W20949   0.826   7.473  11.416  0.2833  0.0118  0.1848
 5819W        W20950   8.832   7.989   5.076  0.0577 -0.2336  0.2508
 5820W        W20951   7.988   4.680  12.416  0.3343  0.2230  0.0525
 5821W        W20952  16.074   8.032  14.557 -0.0632 -0.0993  0.2917
 5822W        W20953   6.811   9.650  15.875  0.0582  0.0536  0.0290
 5823W        W20954   7.170   9.200  12.114  0.0858  0.0463  0.1555
 5824W        W20955   1.810   1.035  13.850 -0.2126 -0.1828  0.2170
 5825W        W20956  18.381   7.358  11.695  0.4635  0.0043  0.4047
 5826W        W20957   8.763  18.163   3.400  0.2543 -0.1544 -0.1813
 5827W        W20958   7.416  14.502   5.450  0.2340  0.0553 -0.4489
 5828W        W20959   5.331   2.773  11.559 -0.3022 -0.0011 -0.2469
 5829W        W20960   0.687  18.428   1.905  0.0975  0.2710  0.0823
 5830W        W20961   7.806   6.015   2.599 -0.1956 -0.2073  0.2050
 5831W        W20962  10.243  11.691  12.844  0.2694  0.1336  0.3293
 5832W        W20963   9.082   6.714   4.003  0.0005 -0.2286  0.2170
 5833W        W20964  14.842   9.364  12.603 -0.0326 -0.1617  0.0112
 5834W        W20965   7.127   1.681   2.813 -0.0905  0.3793  0.1065
 5835W        W20966  15.466  13.347   3.480  0.0759 -0.1055 -0.3045
 5836W        W20967   5.356   9.876   6.018 -0.0375  0.0455  0.0266
 5837W        W20968   1.438   2.924  10.903 -0.1294  0.3312  0.3799
 5838W        W20969  11.876   3.568   4.785  0.0838  0.0780 -0.2326
 5839W        W20970  10.385   1.778   3.913  0.0297  0.1068  0.1771
 5840W        W20971   5.497  11.599   1.945 -0.0453  0.0550  0.0619
 5841W        W20972   9.851  13.290   4.994  0.3046  0.1390 -0.0268
 5842W        W20973  16.269   0.409  11.200 -0.0499 -0.0537 -0.0667
 5843W        W20974   5.694   0.441  13.386  0.2241 -0.2562 -0.2245
 5844W        W20975  15.897   4.792   3.145  0.2319 -0.0103 -0.3368
 5845W        W20976   0.665   4.913   4.526  0.0508  0.1230  0.0635
 5846W        W20977   5.960   9.706   2.836  0.3046  0.1513 -0.1284
 5847W        W20978  18.481   8.507   4.352 -0.0232 -0.0299 -0.3516
 5848W        W20979  13.120   5.028  11.796 -0.2205  0.0105  0.3432
 5849W        W20980   6.999   9.934  14.304 -0.4669 -0.0552  0.0853
 5850W        W20981   5.113  17.120  15.480  0.0407  0.3771 -0.1431
 5851W        W20982  14.170  11.843   0.910  0.2855 -0.1757  0.3007
 5852W        W20983   7.820   6.618  11.893  0.1088  0.3598 -0.0988
 5853W        W20984  16.053  14.574  15.872 -0.2341 -0.1127  0.1759
 5854W        W20985   8.990  17.090   2.344 -0.1299 -0.1053  0.1114
 5855W        W20986   0.340   0.014  14.728  0.1231  0.0989 -0.0574
 5856W        W20987   7.501   9.686  15.529  0.3371 -0.0360  0.1820
 5857W        W20988  13.481   9.278  15.492 -0.0831 -0.2243  0.1924
 5858W        W20989  11.656  17.010  11.803 -0.1689 -0.1880  0.3823
 5859W        W20990  18.441   8.480   5.686  0.1608  0.0907  0.1049
 5860W        W20991   9.436  14.528  12.003 -0.0523  0.1859 -0.0315
 5861W        W20992   4.871   9.264  12.768 -0.2685  0.1935  0.1745
 5862W        W20993  12.453  13.220   3.366  0.0623 -0.0667 -0.0273
 5863W        W20994   4.078   6.275  13.705  0.3063  0.2361  0.0434
 5864W        W20995  10.372   1.117   1.864  0.0290  0.2564 -0.1427
 5865W        W20996  17.312   9.736  14.862  0.0172 -0.1187 -0.1284
 5866W        W20997  15.147  13.092  10.563  0.2165  0.1483 -0.0426
 5867W        W20998  10.820  14.505  12.780 -0.1456  0.3702  0.4359
 5868W        W20999   9.493   3.843   1.652  0.1079  0.1262  0.1012
 5869W        W21000   5.027   0.847  12.178 -0.1276 -0.0281 -0.1912
 5870W        W21001   9.585  10.498   2.351  0.5776 -0.0688 -0.1465
 5871W        W21002  18.378  12.072   1.180  0.0342  0.0174 -0.4234
 5872W        W21003   5.329  16.239   3.973  0.0829  0.0378 -0.0251
 5873W        W21004  12.307  14.375  15.828 -0.1565  0.2362  0.4629
 5874W        W21005   9.809  10.929   4.262 -0.3625 -0.1662  0.1177
 5875W        W21006   4.999  18.190   1.944 -0.0960  0.0871 -0.0639
 5876W        W21007   4.437   4.914   2.246 -0.0567 -0.1593 -0.2132
 5877W        W21008  16.496  16.757  14.993  0.1340  0.1866 -0.2995
 5878W        W21009  14.949  13.909  14.916  0.0063  0.3453 -0.0126
 5879W        W21010   2.753  15.682   1.331  0.1668  0.4213 -0.0804
 5880W        W21011   9.364  12.570   2.381 -0.1970  0.1609  0.1172
 5881W        W21012   9.067   4.474   2.916  0.2888 -0.0936  0.0136
 5882W        W21013  14.202   0.800   2.016  0.3868  0.0461 -0.0877
 5883W        W21014  12.952   7.896  13.235 -0.0656  0.0574  0.2258
 5884W        W21015   2.682  18.427  14.099 -0.0107  0.0172  0.2016
 5885W        W21016   9.226  10.830   0.134 -0.0602 -0.2999 -0.0151
 5886W        W21017   2.515  10.892  12.185  0.2796  0.6419 -0.3583
 5887W        W21018   1.573  13.843   4.181 -0.0652  0.0266 -0.2151
 5888W        W21019   7.034   7.902   5.379  0.2773 -0.1406  0.2161
 5889W        W21020  15.109  14.520   5.081 -0.2074 -0.2571  0.0701
 5890W        W21021   0.484   4.522   1.458 -0.1374  0.2360 -0.1547
 5891W        W21022   3.801  14.177  10.826 -0.3776  0.0120  0.3162
 5892W        W21023  13.433  15.179  13.822  0.0994 -0.4328  0.2162
 5893W        W21024   3.463   5.257  13.786  0.0628  0.3661  0.2070
 5894W        W21025  14.179   9.056  14.386  0.1876  0.2266  0.0874
 5895W        W21026  11.703  14.677   3.269 -0.0686  0.2881 -0.2150
 5896W        W21027   9.965   8.812   5.631 -0.0426  0.2106 -0.0451
 5897W        W21028  16.532  10.702  10.988  0.0027  0.1880  0.3087
 5898W        W21029   3.020   0.906   0.811 -0.3199  0.0838  0.1354
 5899W        W21030  10.542   2.807   4.195 -0.2029  0.3350 -0.0207
 5900W        W21031   1.453  10.715   5.628 -0.0643  0.0661  0.0429
 5901W        W21032  18.407   0.649  13.450  0.2312 -0.2571 -0.0754
 5902W        W21033  18.121  15.802  14.241  0.0792 -0.0189  0.5022
 5903W        W21034  17.080   9.798   0.522 -0.3307 -0.0574 -0.0616
 5904W        W21035   5.271  10.367  12.040 -0.3851 -0.0867  0.0056
 5905W        W21036  12.260  17.264  10.433  0.1844  0.0381  0.0703
 5906W        W21037   8.029   3.162   5.963  0.0390 -0.1346 -0.2502
 5907W        W21038  16.205   9.817   4.670  0.2471  0.2045 -0.0441
 5908W        W21039  14.187   4.013   0.577 -0.0662  0.4696 -0.2003
 5909W        W21040  11.441   3.132  14.888 -0.1814  0.2851 -0.3026
 5910W        W21041   4.382  12.425  11.603  0.0711  0.1510 -0.0495
 5911W        W21042   8.728  11.552  14.165 -0.1094  0.0755  0.0235
 5912W        W21043   7.843  16.152   2.652 -0.1446  0.0336 -0.0296
 5913W        W21044  16.829   8.794   0.939 -0.0859 -0.1912 -0.0073
 5914W        W21045   3.542  12.913   3.491  0.4350  0.2810  0.1441
 5915W        W21046   8.871  15.725   4.418 -0.0130 -0.0215  0.2990
 5916W        W21047   2.295   6.255  13.973 -0.0941 -0.2339  0.2591
 5917W        W21048  13.120  15.868  12.178 -0.1604  0.1038  0.1536
 5918W        W21049   8.006   5.637   5.187 -0.0064 -0.0313 -0.3320
 5919W        W21050  16.383   5.888   3.069  0.3332  0.1638  0.0271
 5920W        W21051  17.001  14.565   3.741  0.1583 -0.0196 -0.1127
 5921W        W21052  17.161  10.223   2.899  0.0026  0.2073  0.0836
 5922W        W21053  16.379  14.070   1.421  0.1646  0.0866  0.2328
 5923W        W21054  10.993  11.658   5.607  0.2742  0.0723 -0.2297
 5924W        W21055   9.067   1.824  14.329 -0.1454 -0.2979  0.0560
 5925W        W21056  10.259   6.153   5.757  0.2145  0.0310 -0.0023
 5926W        W21057  16.738  11.407  12.826 -0.1139 -0.3386 -0.1513
 5927W        W21058   2.621   8.221   5.975 -0.2854 -0.0067  0.0380
 5928W        W21059   0.607  16.284   3.979  0.3396 -0.2544 -0.1940
 5929W        W21060   4.441   9.901  13.143 -0.2891  0.2276 -0.1128
 5930W        W21061  15.547  12.727   4.482  0.0404  0.0987  0.0954
 5931W        W21062  14.561  15.926  14.649 -0.1679 -0.1884 -0.2111
 5932W        W21063  16.012  16.845  11.709 -0.1116 -0.2450  0.0577
 5933W        W21064  11.712   1.443   4.886 -0.2139 -0.2407 -0.5499
 5934W        W21065  13.719  12.882  14.492  0.2344 -0.0885  0.2055
 5935W        W21066  12.613   0.282  12.749 -0.2008 -0.1693 -0.0043
 5936W        W21067   5.163   0.409   4.343  0.0755 -0.2469  0.0760
 5937W        W21068   2.385   4.272  13.841 -0.1633 -0.0761  0.0836
 5938W        W21069   8.892   2.455  14.364 -0.2502  0.1353 -0.0297
 5939W        W21070   2.961  14.144   3.234 -0.0273 -0.1081 -0.0095
 5940W        W21071   4.916   8.730   1.134 -0.3305 -0.3140 -0.0314
 5941W        W21072  12.743   5.401   2.651 -0.2380  0.2737 -0.1807
 5942W        W21073   2.983   8.702   5.177 -0.0686 -0.1208 -0.2966
 5943W        W21074   4.760  11.513  11.306 -0.2114  0.0148 -0.0061
 5944W        W21075   8.804   0.013  11.181 -0.1929  0.2596  0.0732
 5945W        W21076  12.574  16.417   5.320 -0.2566 -0.1001 -0.2844
 5946W        W21077  11.943   7.445   6.618 -0.0438 -0.0158 -0.0311
 5947W        W21078   6.480   7.771  11.971 -0.2627  0.0092 -0.1630
 5948W        W21079  17.445   2.351   0.251 -0.0794 -0.0098  0.0339
 5949W        W21080   5.640   2.290  10.783  0.1203  0.1180 -0.1016
 5950W        W21081   5.374  12.792   1.978  0.4345 -0.2566 -0.3593
 5951W        W21082   8.518   7.344   4.691 -0.0747 -0.0370 -0.1403
 5952W        W21083  13.975  16.179   5.874  0.1919 -0.0323  0.1592
 5953W        W21084   0.528   1.446   0.935 -0.2015  0.1435 -0.1837
 5954W        W21085   8.165   3.843  15.922 -0.0559  0.0528  0.1290
 5955W        W21086  14.451  12.249   6.304  0.0703  0.0349  0.1296
 5956W        W21087   5.578  14.580  12.833 -0.1904 -0.2046 -0.1912
 5957W        W21088   6.598  18.019   3.469 -0.0741 -0.1085 -0.1750
 5958W        W21089  14.801  12.948   0.861 -0.3014  0.0035 -0.0272
 5959W        W21090  14.434   4.224   4.468  0.5420  0.4444 -0.3329
 5960W        W21091   5.176   7.259   4.925  0.1677 -0.1446  0.1023
 5961W        W21092   4.423  13.448  12.818  0.3804 -0.2176 -0.0087
 5962W        W21093   4.121  13.960   0.274  0.1484 -0.3378 -0.0172
 5963W        W21094   9.803   3.134  15.352  0.0742 -0.3020  0.3094
 5964W        W21095   5.585   0.073  11.852  0.1061 -0.1498  0.3724
 5965W        W21096  15.404   0.731  13.809  0.0953  0.2474 -0.1498
 5966W        W21097   8.796  10.457  14.399 -0.3277  0.2878  0.2075
 5967W        W21098  14.406   7.538   5.568 -0.0406 -0.1460 -0.1097
 5968W        W21099   0.300  16.439   1.475  0.0097 -0.1995  0.1734
 5969W        W21100   8.889  15.938  10.997  0.3088  0.1065  0.3527
 5970W        W21101   9.429   8.643  15.289  0.0057 -0.0113  0.2560
 5971W        W21102  14.096  13.318  14.643 -0.1641  0.0953  0.2675
 5972W        W21103   1.198   9.911  12.704 -0.0248  0.1210 -0.2719
 5973W        W21104   4.478   7.337  10.791 -0.0655  0.4482 -0.0486
 5974W        W21105   4.572   2.310   1.788 -0.1340 -0.1602  0.2180
 5975W        W21106   7.045  13.415  12.157 -0.1650  0.1706 -0.0216
 5976W        W21107  12.911  17.597  15.641 -0.0716  0.0096  0.1193
 5977W        W21108  10.096   0.475  14.098 -0.2911  0.0651 -0.3488
 5978W        W21109  17.405   1.848  14.230 -0.0281 -0.0999  0.1317
 5979W        W21110   7.174  11.389  11.207 -0.0773 -0.3213  0.1837
 5980W        W21111  13.867  13.007   4.955 -0.3061  0.0265  0.0874
 5981W        W21112  12.975   1.696  11.458 -0.3086 -0.0406 -0.3315
 5982W        W21113  10.860   3.135  12.865 -0.1043  0.1232  0.0657
 5983W        W21114  12.965  14.437   4.049  0.1170 -0.3383  0.3237
 5984W        W21115  16.133  15.651   2.246  0.1936  0.0671  0.1578
 5985W        W21116   2.033   8.134   2.596 -0.1768  0.3994  0.2273
 5986W        W21117   7.272   9.762   2.936 -0.0440  0.2303 -0.1345
 5987W        W21118  16.977  14.281  10.617 -0.3924 -0.1448 -0.1393
 5988W        W21119  17.465   4.006  11.783 -0.1997 -0.1598  0.0935
 5989W        W21120   8.695  17.093   4.815 -0.1494  0.2548  0.0195
 5990W        W21121  11.314   5.226  14.521 -0.0223  0.0960 -0.0892
 5991W        W21122  14.568   4.120  12.109 -0.2150 -0.0331  0.1226
 5992W        W21123  13.917   9.353  15.837  0.2633 -0.1007 -0.1145
 5993W        W21124   7.826  17.219   1.038 -0.3016  0.0285  0.1759
 5994W        W21125   9.099   2.999  14.794  0.0401 -0.0043 -0.0616
 5995W        W21126   3.405  17.191   3.142  0.1093  0.0133 -0.0160
 5996W        W21127   9.725   1.844   2.217  0.0922  0.1814  0.3082
 5997W        W21128  16.654  15.471   3.632 -0.3283  0.0124 -0.0091
 5998W        W21129  12.295   6.516   0.201  0.0059  0.1726  0.0372
 5999W        W21130   0.831   1.967  15.411  0.1836 -0.1039 -0.2039
 6000W        W21131  14.389  14.293  12.298  0.1869 -0.1147 -0.0121
 6001W        W21132  14.541   2.143   2.822 -0.0938 -0.1319  0.1786
 6002W        W21133  17.531  14.242   4.564 -0.3608  0.2099 -0.4157
 6003W        W21134   0.069   2.233  14.980 -0.0315 -0.2421 -0.2441
 6004W        W21135  15.611   0.997   0.320 -0.0607 -0.0259  0.0742
 6005W        W21136   6.384   6.301   1.687 -0.0940  0.0124 -0.0076
 6006W        W21137  17.287  13.204  11.638 -0.0099 -0.2606 -0.0209
 6007W        W21138   5.749  14.987  14.974 -0.1541  0.0326 -0.1563
 6008W        W21139  14.332  15.843   5.209 -0.2287 -0.4222  0.0157
 6009W        W21140  12.262   5.264   3.605  0.0615 -0.0830  0.1170
 6010W        W21141   0.787  10.308   2.721 -0.2376  0.0221 -0.0760
 6011W        W21142   7.714  14.841  11.784 -0.0990  0.0643 -0.0050
 6012W        W21143  11.605  10.780   2.032 -0.4887 -0.0255 -0.1160
 6013W        W21144   7.304  15.520   3.174 -0.2595 -0.2133  0.0977
 6014W        W21145  16.732   4.990   0.948 -0.2415 -0.2102 -0.2184
 6015W        W21146  16.343   8.574  14.625 -0.0839 -0.0075 -0.0783
 6016W        W21147  16.731  13.554   2.949 -0.0391  0.0667 -0.1082
 6017W        W21148  12.570  15.993   3.226 -0.0860  0.1501 -0.3134
 6018W        W21149   9.239   1.019   0.608  0.2169 -0.0020  0.2267
 6019W        W21150   0.442   2.546  12.014 -0.1768 -0.1033 -0.1978
 6020W        W21151   1.586   1.139   4.037  0.0969 -0.0317 -0.0417
 6021W        W21152   8.654   9.424  12.247 -0.1085 -0.1433 -0.4896
 6022W        W21153   8.253   3.663   3.946 -0.0320  0.0898  0.0349
 6023W        W21154   0.949  13.215  13.761 -0.1265 -0.2782 -0.2576
 6024W        W21155  12.320  15.059   3.846  0.3455 -0.0225 -0.3419
 6025W        W21156   6.651  12.954   1.075  0.3868 -0.1607  0.4280
 6026W        W21157  13.143  17.844  14.029  0.2924 -0.0798 -0.2021
 6027W        W21158   0.351   5.949   4.313 -0.0354  0.3171 -0.0388
 6028W        W21159  12.322  12.653   2.968  0.0825  0.0357 -0.1735
 6029W        W21160   6.867  11.285  14.350  0.3035 -0.3506 -0.0236
 6030W        W21161  13.986  14.573   2.944 -0.2208 -0.0039  0.1547
 6031W        W21162   9.509  10.182  10.967  0.0923  0.0732 -0.0277
 6032W        W21163  14.870  12.013  13.034  0.0053 -0.0093  0.1198
 6033W        W21164   7.957   3.225  12.872  0.1984  0.1361  0.2323
 6034W        W21165   9.973  15.312  15.128 -0.2845 -0.0165  0.2390
 6035W        W21166  16.595  14.022  14.576 -0.1964  0.0553 -0.1510
 6036W        W21167   1.340  15.810  14.553  0.2142 -0.0930 -0.1190
 6037W        W21168   8.608  16.366   1.706  0.0006  0.1272  0.2548
 6038W        W21169  11.186  15.329  12.263 -0.0875 -0.1180  0.1995
 6039W        W21170   1.780  12.326  14.518 -0.0478 -0.2055  0.3915
 6040W        W21171   0.047  16.972  16.105  0.0054 -0.0388 -0.3174
 6041W        W21172   1.371   3.666   3.779  0.1220 -0.0069 -0.1137
 6042W        W21173   0.159   8.081   4.152  0.2514  0.0619  0.2507
 6043W        W21174  14.197   4.990  11.945 -0.2733 -0.0519  0.0229
 6044W        W21175  16.432   0.398   0.739  0.1421  0.0463  0.2568
 6045W        W21176   9.315  11.837  11.342 -0.3197  0.0299 -0.3090
 6046W        W21177  11.780  16.584   4.306  0.0936 -0.0690 -0.0022
 6047W        W21178   9.666   2.150  15.196 -0.2614 -0.0750  0.3692
 6048W        W21179   5.465   5.205  12.874 -0.1111  0.1805 -0.1905
 6049W        W21180   7.561   3.988   0.893 -0.0475 -0.0245 -0.1146
 6050W        W21181   1.600  11.085  15.927  0.0079 -0.0021  0.0700
 6051W        W21182  11.191   0.452   1.052 -0.1309 -0.0613 -0.2701
 6052W        W21183  14.899  17.623   3.579  0.1679 -0.0456  0.0996
 6053W        W21184  14.757   2.471  11.361 -0.4033 -0.1840  0.4733
 6054W        W21185  12.546  15.193  15.635  0.2237  0.0947  0.1666
 6055W        W21186  16.304   4.875  15.862  0.0774 -0.0067  0.1343
 6056W        W21187  14.242  12.820   2.845  0.0354  0.1917 -0.1220
 6057W        W21188  15.556   8.510   5.462 -0.0382 -0.0916  0.1819
 6058W        W21189  15.911  14.028  10.960  0.1070 -0.1639 -0.3624
 6059W        W21190  13.797   3.376  13.084 -0.1359  0.0983 -0.0193
 6060W        W21191  16.516  17.407  10.676  0.1482 -0.1016 -0.0180
 6061W        W21192  17.168  16.139  10.134  0.1739 -0.3323 -0.0518
 6062W        W21193   6.563   7.114  12.393 -0.0101  0.0311  0.0720
 6063W        W21194  17.142  12.282   4.000  0.1139  0.0482 -0.3575
 6064W        W21195   5.065   1.405  16.062  0.2839  0.1095 -0.0214
 6065W        W21196  16.030  16.413   0.238 -0.0500 -0.0023 -0.2577
 6066W        W21197   7.316   5.505  11.237 -0.0134 -0.2503  0.0610
 6067W        W21198   3.252  14.509  11.539  0.2889 -0.0601 -0.0131
 6068W        W21199   8.433  16.736  13.484 -0.2357 -0.3151  0.1358
 6069W        W21200   9.482  12.137   3.366 -0.0423  0.2258 -0.0058
 6070W        W21201   4.012   9.825  11.775 -0.1092  0.0849  0.2471
 6071W        W21202  12.902   8.153   1.219 -0.1377  0.2834  0.3701
 6072W        W21203   0.093  10.656  14.332 -0.2940  0.0928  0.1681
 6073W        W21204   5.205  12.456   2.424 -0.0517 -0.2551  0.2294
 6074W        W21205   8.170   7.167  13.813  0.0840  0.1703  0.3346
 6075W        W21206   5.151   7.743  14.549  0.0451 -0.2314 -0.1457
 6076W        W21207   7.724  17.313  12.070 -0.0962  0.0152  0.2972
 6077W        W21208  13.293  13.491   2.913  0.1176  0.1190  0.0128
 6078W        W21209  11.168   6.302  11.595 -0.1946  0.0589 -0.4461
 6079W        W21210  17.626   1.561   1.873  0.0782 -0.0619  0.1922
 6080W        W21211  16.519  18.381   0.585 -0.2320 -0.1074 -0.2168
 6081W        W21212   0.586   9.032   2.911  0.1133  0.0328  0.2320
 6082W        W21213  10.832  11.763  11.137 -0.3827 -0.2615 -0.0826
 6083W        W21214  15.756   2.377   0.335  0.1304 -0.0881 -0.0574
 6084W        W21215   4.848   6.037  10.289  0.3451 -0.0992 -0.1300
 6085W        W21216   3.496   9.976   5.035  0.1596  0.0843 -0.2827
 6086W        W21217  12.707   6.854  13.270 -0.3325 -0.1335  0.1770
 6087W        W21218   9.446   3.339   3.175 -0.1301 -0.1288 -0.1677
 6088W        W21219  11.601  10.588   4.386  0.1694  0.0737  0.1909
 6089W        W21220  14.974  14.157   2.201  0.1049  0.1840  0.2559
 6090W        W21221  17.132   9.298   5.544 -0.0747  0.0244 -0.2698
 6091W        W21222   0.495   8.614   5.578 -0.0044  0.0450 -0.2396
 6092W        W21223  13.922   8.956   4.305  0.1983 -0.0338 -0.4518
 6093W        W21224   2.396   0.386   0.128 -0.1603  0.4483  0.1105
 6094W        W21225  18.325   2.675   4.176  0.0365 -0.0085 -0.1156
 6095W        W21226   5.335   4.830  14.914 -0.1443  0.3601  0.0535
 6096W        W21227   1.592  12.059  15.731  0.0214  0.1109 -0.5481
 6097W        W21228  17.979   1.203  15.949  0.1495  0.0053 -0.1041
 6098W        W21229   8.150   2.270   5.294 -0.0877 -0.1156 -0.1251
 6099W        W21230  12.056  17.331  13.420 -0.1254  0.2787 -0.3120
 6100W        W21231   0.953   6.648  15.619 -0.1036 -0.0795  0.0434
 6101W        W21232   1.319   3.135   4.556 -0.1774 -0.3145  0.1846
 6102W        W21233   7.625  13.644   3.618 -0.2318 -0.0962 -0.0009
 6103W        W21234   1.667  18.219   5.498 -0.0295 -0.0071 -0.1922
 6104W        W21235   8.429   0.908   0.133  0.0081 -0.3656 -0.2841
 6105W        W21236  11.648   0.056   3.698  0.3053  0.0578  0.5699
 6106W        W21237   2.909  17.092  16.004  0.0198  0.1853  0.0546
 6107W        W21238  12.299   6.542  12.998 -0.0106  0.2082 -0.0039
 6108W        W21239   5.719   0.451  12.379 -0.1300  0.1088  0.2549
 6109W        W21240   5.138   3.225  10.238 -0.0884  0.0336 -0.2176
 6110W        W21241  18.036  13.557   1.941  0.1979 -0.0948  0.2611
 6111W        W21242  12.513  11.545   2.697 -0.0137  0.0268  0.0207
 6112W        W21243  15.872   1.232   4.196  0.1835  0.1959 -0.0893
 6113W        W21244  12.554   9.951  15.613  0.4103 -0.0846  0.1593
 6114W        W21245  12.468   7.247  12.830  0.0238  0.1702 -0.3105
 6115W        W21246   4.173  12.642   1.019 -0.2466 -0.3897  0.1302
 6116W        W21247   9.692  14.893  12.280 -0.1849 -0.0541 -0.0348
 6117W        W21248  10.902  11.605  11.634  0.1350 -0.0770  0.1910
 6118W        W21249   5.256   0.833  11.602 -0.0490 -0.1405  0.0864
 6119W        W21250  14.996  10.266   2.845 -0.0416 -0.0942 -0.3087
 6120W        W21251  10.178   0.444   3.855 -0.0108 -0.0916  0.0168
 6121W        W21252   9.310   6.396  15.306 -0.3387 -0.0849 -0.0659
 6122W        W21253   7.920  18.015   0.604  0.1386  0.0802 -0.1127
 6123W        W21254   2.158  15.962  15.913  0.0310 -0.2706  0.1347
 6124W        W21255  15.115  15.816  15.581  0.3675 -0.1106  0.0443
 6125W        W21256   5.238   0.513  13.637 -0.0930 -0.0619  0.1257
 6126W        W21257   4.966   7.748   6.648 -0.1680 -0.3441  0.0738
 6127W        W21258   2.680   8.261  13.451 -0.4077 -0.1332  0.1723
 6128W        W21259  15.025  13.258   3.201 -0.1111 -0.0756  0.0427
 6129W        W21260   3.221   8.301   3.352  0.2143 -0.0137  0.1822
 6130W        W21261   8.982  12.106  11.651  0.0870 -0.0308  0.2093
 6131W        W21262   3.077   3.399  11.092 -0.1893  0.0689  0.3464
 6132W        W21263  10.454  16.655   0.850  0.2718  0.1552 -0.0821
 6133W        W21264   3.232  18.383  15.634  0.0766  0.1943  0.0719
 6134W        W21265  16.701  13.620   5.741  0.0631 -0.0973  0.0152
 6135W        W21266  18.311   9.877   4.046 -0.0075  0.1235 -0.1155
 6136W        W21267   4.305  16.462   4.209  0.1207 -0.1890  0.2034
 6137W        W21268   0.181   1.978  10.855 -0.1143  0.0124 -0.3485
 6138W        W21269  16.861  16.937   3.980  0.2235 -0.1450 -0.0834
 6139W        W21270  13.803  13.396   4.568 -0.1193  0.3187  0.0038
 6140W        W21271   6.130  16.688   2.607  0.2199 -0.0598  0.2981
 6141W        W21272  10.226   1.050  12.909  0.3730  0.2029 -0.0668
 6142W        W21273  17.525  10.984  12.362  0.3189 -0.1130  0.0609
 6143W        W21274   8.409   1.327   4.739  0.0917 -0.0356  0.1433
 6144W        W21275   4.716   9.400   0.678 -0.1651 -0.0421 -0.3847
 6145W        W21276  14.883  17.239   1.179 -0.0348 -0.0109 -0.1493
 6146W        W21277   6.660   6.735   5.820  0.1725 -0.0334  0.0017
 6147W        W21278   8.900   5.123   4.965 -0.0104 -0.0120 -0.2497
 6148W        W21279   9.825   9.595  13.024  0.0165 -0.0334 -0.0359
 6149W        W21280  18.375  10.982  13.322 -0.2226 -0.2436 -0.0436
 6150W        W21281  14.933  13.050   2.107 -0.4216 -0.3084 -0.1457
 6151W        W21282  10.654   6.465  11.557  0.1826  0.0667 -0.2743
 6152W        W21283   5.668   6.836  14.105 -0.0385 -0.0922 -0.1963
 6153W        W21284   1.520   5.479   0.819  0.3713 -0.2507 -0.1444
 6154W        W21285  16.315  10.052   0.280 -0.4080 -0.2982  0.2720
 6155W        W21286  10.660  16.523  11.830  0.0606 -0.0579 -0.0247
 6156W        W21287  18.414   4.687  10.685 -0.1209  0.0729  0.2148
 6157W        W21288   1.824  11.214   4.520 -0.0062  0.2564 -0.4786
 6158W        W21289   7.846   7.709  12.917 -0.0910 -0.0122  0.0981
 6159W        W21290  13.042  15.698  12.691  0.0260  0.2298  0.0280
 6160W        W21291   3.347   8.353   0.960  0.2452 -0.1598 -0.1481
 6161W        W21292   9.305  15.078  11.971  0.0401  0.3215  0.0851
 6162W        W21293  16.329   9.768  13.161  0.3659  0.0161  0.4618
 6163W        W21294   8.337   8.020  16.059  0.0110 -0.6394  0.0885
 6164W        W21295  10.846   3.444   5.254 -0.1181  0.2860 -0.2636
 6165W        W21296  12.807   6.308   6.084  0.0050  0.0863 -0.1023
 6166W        W21297   5.594   0.447  15.818  0.3070  0.1701 -0.2362
 6167W        W21298  16.643   5.910   4.517 -0.1526 -0.1590  0.0213
 6168W        W21299   2.892  12.995   2.907  0.0116 -0.0342 -0.1754
 6169W        W21300  12.382  11.192   4.790 -0.1039  0.0653  0.1892
 6170W        W21301   5.352   5.816   3.086 -0.1542 -0.2989  0.0469
 6171W        W21302   6.151  11.827  12.144  0.2308  0.1508  0.2619
 6172W        W21303   3.201  17.652  14.488  0.0192  0.0045  0.1407
 6173W        W21304   0.824   8.090   4.404 -0.0341 -0.2017  0.1759
 6174W        W21305  13.382   1.006  14.356 -0.1980 -0.0899 -0.0285
 6175W        W21306   9.732   4.987   0.249 -0.0050 -0.0419 -0.2566
 6176W        W21307  17.343   7.679   2.860  0.0243  0.0541  0.2037
 6177W        W21308   7.332   4.880   2.184 -0.0486  0.3523 -0.1244
 6178W        W21309   4.399   6.675  14.401  0.2769  0.0969 -0.2138
 6179W        W21310   0.526   5.825  11.658 -0.4351  0.1505 -0.0470
 6180W        W21311  14.902   3.939  11.788 -0.1750  0.0295  0.1888
 6181W        W21312   1.495   5.380   4.046 -0.2437  0.1076  0.3045
 6182W        W21313  14.170   6.288   3.235  0.1085  0.0270 -0.3375
 6183W        W21314   3.810   2.100   4.940  0.0011  0.0531  0.3017
 6184W        W21315   1.996  16.209  15.464  0.0130 -0.0003  0.0983
 6185W        W21316   2.838   8.364   1.004  0.1319  0.1987 -0.1302
 6186W        W21317   7.008   7.721  11.872 -0.1016  0.0739  0.2346
 6187W        W21318   3.867   8.541   0.036  0.2654 -0.1462  0.0847
 6188W        W21319   1.520   2.188   4.441 -0.1815  0.1027  0.0392
 6189W        W21320   8.678   4.108  14.197  0.0498  0.0619 -0.1982
 6190W        W21321   0.313  17.824  13.525  0.0885  0.2854 -0.1427
 6191W        W21322  11.528  12.899  13.100  0.1467 -0.1851 -0.3694
 6192W        W21323   9.626   9.381  15.732  0.0454 -0.3390  0.0339
 6193W        W21324  12.520  11.009  11.067 -0.1150  0.1164 -0.1877
 6194W        W21325  10.369  15.833   1.780 -0.0713 -0.1755 -0.4373
 6195W        W21326   8.199   0.886   2.730  0.0724 -0.1419  0.0689
 6196W        W21327   5.002  17.847  15.034  0.0554 -0.1450  0.0519
 6197W        W21328  13.979  11.641  11.421  0.1155  0.4474  0.1605
 6198W        W21329  14.743  13.744   2.549 -0.0880 -0.2019  0.0282
 6199W        W21330  11.641  14.716   1.024 -0.0767  0.0029 -0.0694
 6200W        W21331   8.064  16.203   1.235 -0.1101 -0.2312  0.2510
 6201W        W21332   3.905   3.710  11.219 -0.2897  0.1634  0.0998
 6202W        W21333  16.695   1.293  15.395  0.1445  0.0128 -0.2081
 6203W        W21334  11.725   5.391   5.297  0.4029 -0.0824 -0.0583
 6204W        W21335  10.581  12.692  14.248 -0.0244  0.1573 -0.1045
 6205W        W21336   5.259  16.356  11.488 -0.1461 -0.0683 -0.1954
 6206W        W21337   7.883   5.914   0.367 -0.1316  0.1910  0.1383
 6207W        W21338  17.326   2.924   0.655  0.0410 -0.3046  0.1343
 6208W        W21339   3.873   6.400   3.026  0.4279  0.4882 -0.1072
 6209W        W21340   2.330   9.696   2.382  0.0285  0.2895 -0.1631
 6210W        W21341   6.627  13.489  16.060 -0.0488 -0.1712 -0.0769
 6211W        W21342   4.250  12.773   1.645  0.0293  0.0866 -0.1422
 6212W        W21343  16.128  11.085  13.721  0.4452  0.1507  0.0685
 6213W        W21344   7.034  16.066   2.947  0.1127  0.2336  0.0379
 6214W        W21345   0.284   6.734  13.126 -0.0308  0.0854  0.2268
 6215W        W21346   1.470  18.075   4.602  0.3405  0.0499  0.1153
 6216W        W21347   5.948  10.835   3.589  0.2411 -0.2782  0.0363
 6217W        W21348   9.582   7.542   0.015 -0.1769  0.0745 -0.2034
 6218W        W21349  12.937  12.698  14.291 -0.1701 -0.3557 -0.2096
 6219W        W21350   0.521  17.105   4.018  0.0457  0.1081 -0.2265
 6220W        W21351  10.741   3.319   2.543  0.0676 -0.0090  0.2584
 6221W        W21352   3.729   0.363  11.330  0.1486  0.0186 -0.2401
 6222W        W21353   7.191   4.477  13.976  0.5040  0.3949 -0.2295
 6223W        W21354  11.578  13.672   4.735 -0.2966 -0.0919  0.0486
 6224W        W21355  17.244   7.872   0.956  0.0850  0.0798 -0.0039
 6225W        W21356  18.158   5.839  13.353 -0.1616  0.1125 -0.1376
 6226W        W21357  13.924   6.889  12.864  0.0932 -0.2413 -0.1934
 6227W        W21358  14.657   0.973   3.443  0.0477 -0.0414 -0.2292
 6228W        W21359   2.851   8.871  15.257  0.2863  0.2505  0.2314
 6229W        W21360  14.832   2.000   1.831  0.0030 -0.2267 -0.1826
 6230W        W21361  10.301  15.606  13.067  0.1523 -0.0605 -0.0426
 6231W        W21362   8.142  15.401  14.550 -0.0917  0.0780  0.0994
 6232W        W21363   8.065   2.635   5.615 -0.2046  0.0131  0.0585
 6233W        W21364  13.768   2.611   4.707  0.2472  0.0776  0.0738
 6234W        W21365   8.351  15.809  14.782  0.0726 -0.1129 -0.4686
 6235W        W21366  14.129   0.327   1.532  0.0665  0.0189  0.0759
 6236W        W21367   9.030   7.341   0.779 -0.0802  0.2231  0.3050
 6237W        W21368  17.238  15.717  11.468 -0.1450  0.2282  0.1105
 6238W        W21369   5.830   6.579  15.635  0.1990 -0.0074 -0.0354
 6239W        W21370   7.843  14.228  11.261  0.2550 -0.0172 -0.2994
 6240W        W21371   1.961  13.035   3.126  0.1394  0.2828 -0.2423
 6241W        W21372  16.002  10.429  14.515  0.1344 -0.0224 -0.2801
 6242W        W21373  18.345   5.227   3.569  0.3353  0.3749 -0.0057
 6243W        W21374  10.034  12.622   1.875  0.0139 -0.0444 -0.2462
 6244W        W21375   4.960   5.001   3.018 -0.1031 -0.2071 -0.0639
 6245W        W21376   4.034  16.730   2.019 -0.3302  0.0641 -0.0859
 6246W        W21377   5.530   5.750  15.654 -0.0183 -0.1512  0.0480
 6247W        W21378  16.364  15.680   2.696 -0.1510 -0.2340 -0.0962
 6248W        W21379  18.361  15.033  10.765  0.3954 -0.0863  0.1910
 6249W        W21380   2.633   2.043   2.506  0.0600  0.0429 -0.2349
 6250W        W21381  13.593   7.814   2.116 -0.1537 -0.2325 -0.1762
 6251W        W21382   7.466   7.548  12.179 -0.0417 -0.1204  0.2390
 6252W        W21383   2.566   2.438  12.009 -0.0127  0.0645 -0.0040
 6253W        W21384  10.548  11.651  12.453 -0.0959  0.1570 -0.2662
 6254W        W21385   8.072  15.489   5.179 -0.0362  0.0106 -0.0162
 6255W        W21386  11.164   1.114  11.355  0.2327  0.1821  0.1745
 6256W        W21387  11.463  17.691  15.768 -0.1022 -0.0087 -0.0635
 6257W        W21388  16.294   8.837  15.140  0.1498 -0.1387  0.2063
 6258W        W21389   1.213   7.635   3.064 -0.2235 -0.5076 -0.2739
 6259W        W21390  12.171   3.522  11.354  0.2842  0.3606 -0.1153
 6260W        W21391  16.663   6.257  10.782 -0.1334  0.0745 -0.2204
 6261W        W21392  16.816  18.289   5.717 -0.0623 -0.1597 -0.1744
 6262W        W21393  14.159   0.137  13.071 -0.2377  0.3062 -0.1515
 6263W        W21394   2.515   0.674  13.330  0.0675  0.1020 -0.0901
 6264W        W21395   8.837   2.073   1.417  0.5429  0.0457 -0.1611
 6265W        W21396  15.485   5.437  15.171 -0.0993  0.0924 -0.0737
 6266W        W21397   4.427  11.160   2.517 -0.0799  0.1308 -0.0480
 6267W        W21398   5.974   1.062   0.984 -0.1619  0.1190 -0.0253
 6268W        W21399  17.175   2.965   2.680  0.1832  0.1876 -0.1834
 6269W        W21400  16.795   7.794  11.405 -0.4149  0.0279  0.0001
 6270W        W21401  12.787   1.053   1.577 -0.0988 -0.2194 -0.0102
 6271W        W21402   8.583  16.849  12.186 -0.0328 -0.2235 -0.0391
 6272W        W21403  11.072   9.704  13.377  0.0186 -0.0085  0.1473
 6273W        W21404  18.271  14.447   2.535  0.0474  0.0057  0.1024
 6274W        W21405   9.194  13.715   2.896  0.1757  0.0295 -0.1574
 6275W        W21406   8.688  14.478  15.978  0.0792  0.2821  0.1691
 6276W        W21407   8.926   0.492   5.921  0.0029 -0.0843 -0.1034
 6277W        W21408  14.929   1.559  13.731 -0.2327  0.0711  0.1093
 6278W        W21409   0.766   1.096   4.989 -0.1182 -0.1580 -0.0091
 6279W        W21410  12.731   2.712   0.132  0.5889  0.1428  0.1861
 6280W        W21411   7.631   0.226  14.489 -0.1905  0.2597  0.4810
 6281W        W21412   6.318   1.629   4.761 -0.0724  0.0722 -0.1507
 6282W        W21413   8.266   9.798   1.858 -0.1270  0.1878 -0.0155
 6283W        W21414  16.881  17.699  13.420 -0.0814 -0.2780 -0.0920
 6284W        W21415   4.712  12.907  15.833 -0.1775  0.1265  0.1135
 6285W        W21416  11.244   2.766  12.729 -0.1375  0.0192  0.3752
 6286W        W21417   7.739  17.889   0.130 -0.1308 -0.0260  0.2905
 6287W        W21418  17.965   2.341   0.062  0.1824  0.0907 -0.3785
 6288W        W21419   4.733   8.792  15.823  0.1461 -0.0885 -0.0747
 6289W        W21420   1.869  17.679   1.937  0.0968 -0.4495  0.2416
 6290W        W21421   9.560   3.390  11.858 -0.2568  0.1953  0.2350
 6291W        W21422   1.561   2.245   2.661  0.0969  0.2502 -0.0776
 6292W        W21423  12.847   3.732   2.079 -0.0239  0.1041  0.1329
 6293W        W21424  13.966  12.883  14.969 -0.0586  0.2400  0.2857
 6294W        W21425   2.553  13.923   3.743  0.0755 -0.2351  0.0434
 6295W        W21426   5.095   2.312   4.305 -0.3100 -0.0119  0.2588
 6296W        W21427   7.538  13.863  11.399 -0.2684 -0.1436  0.0272
 6297W        W21428   1.710   1.446   2.023  0.2903 -0.2639  0.3701
 6298W        W21429  16.673   2.956  14.373 -0.2465  0.0983  0.3655
 6299W        W21430  12.098  11.390  12.657  0.0440 -0.3459 -0.1420
 6300W        W21431  13.646   9.292   3.499 -0.1996  0.0308  0.0285
 6301W        W21432  16.746  14.537  14.764 -0.2147 -0.0163 -0.0986
 6302W        W21433   2.429  16.688  14.634 -0.1082 -0.2887  0.1711
 6303W        W21434  14.841   7.769   5.590 -0.0526 -0.0004  0.0614
 6304W        W21435  13.316  15.147  15.055  0.3233  0.0349 -0.0113
 6305W        W21436  10.765   7.175  11.980  0.0200 -0.0828 -0.3675
 6306W        W21437  16.629  10.542   0.005 -0.0089  0.0464  0.0943
 6307W        W21438  10.069  16.087   5.499  0.0533  0.1787 -0.0190
 6308W        W21439  16.811   2.433  11.476 -0.0781 -0.0005 -0.1838
 6309W        W21440   9.486   9.544  14.206 -0.5379 -0.2253  0.0404
 6310W        W21441  11.047   8.844  11.317  0.0200  0.0748 -0.0832
 6311W        W21442   6.086  15.125   1.492 -0.4078 -0.1231 -0.1229
 6312W        W21443   3.571   7.199  11.255  0.2140 -0.0319  0.1608
 6313W        W21444   2.621   4.501   3.105  0.1149 -0.1637 -0.1695
 6314W        W21445  10.551   8.990  15.332 -0.0142  0.0575 -0.3825
 6315W        W21446   6.803   8.153   4.747  0.3643 -0.2127 -0.0884
 6316W        W21447   2.357  14.615  15.132 -0.0912 -0.0223  0.2106
 6317W        W21448   8.990  12.312   3.571 -0.0286  0.2545 -0.1057
 6318W        W21449   0.647  10.917   1.899 -0.0536 -0.0923  0.0088
 6319W        W21450   7.294   8.740  13.496 -0.1228 -0.0509  0.0655
 6320W        W21451  15.864   4.889  11.598 -0.1169  0.4459 -0.2393
 6321W        W21452   8.628  15.967   4.083 -0.0889 -0.0059 -0.3258
 6322W        W21453   4.079   2.608   1.991  0.0612 -0.1535  0.4739
 6323W        W21454   8.135   0.557  15.253  0.1375 -0.1574  0.3308
 6324W        W21455   9.059  11.395   4.693  0.0655  0.0259 -0.0438
 6325W        W21456   6.998  15.579  11.723  0.0609  0.2523  0.0782
 6326W        W21457  18.049   3.718  11.599 -0.2416 -0.0801  0.0703
 6327W        W21458   3.103  13.149   3.655 -0.1596 -0.0645  0.0615
 6328W        W21459   6.715   4.660  11.966 -0.2148  0.3887  0.0381
 6329W        W21460   0.959  15.558  11.891 -0.0216  0.3016 -0.0229
 6330W        W21461  18.079   4.168   1.136  0.0154 -0.0422 -0.0083
 6331W        W21462  14.875   4.998   0.769 -0.0335 -0.0314  0.1682
 6332W        W21463  13.801   8.801   2.866 -0.0681  0.2383 -0.0593
 6333W        W21464   1.353   5.980   1.879  0.1658 -0.0781 -0.1269
 6334W        W21465  16.745  16.823  11.188  0.0505  0.0738 -0.0335
 6335W        W21466   1.349  16.685   3.562  0.2198  0.0753 -0.0099
 6336W        W21467  10.119   7.256  15.483 -0.1596 -0.0068 -0.2337
 6337W        W21468   6.438   9.935   2.684  0.3416  0.1857 -0.1043
 6338W        W21469  13.296  17.132   0.595 -0.3182 -0.1946  0.3269
 6339W        W21470  15.886   6.832   1.617  0.3021 -0.1866  0.1682
 6340W        W21471   0.382  10.051   5.361 -0.0650  0.4597  0.0917
 6341W        W21472  18.138  17.295   3.087  0.2101 -0.0427  0.0105
 6342W        W21473  12.352   4.683   5.144 -0.0350 -0.0664  0.4940
 6343W        W21474   7.732  15.879  13.441  0.2235  0.0607 -0.1643
 6344W        W21475   3.200  12.249   5.285  0.3094  0.0793  0.1177
 6345W        W21476  11.519   2.794  10.457  0.0184 -0.2587 -0.0947
 6346W        W21477  13.891   3.450   2.706 -0.2801  0.1115  0.1027
 6347W        W21478  16.594   9.370   3.786 -0.1719  0.4086 -0.1016
 6348W        W21479   0.868   8.727   1.358 -0.0067  0.2748 -0.0541
 6349W        W21480  13.572   7.870  11.824 -0.0975 -0.1917  0.0708
 6350W        W21481  16.010   2.180  12.791 -0.0011  0.3805 -0.2000
 6351W        W21482  16.732  14.752  15.262  0.3913  0.3137  0.2641
 6352W        W21483  10.283  10.448   3.028 -0.1423  0.2273 -0.2382
 6353W        W21484  11.814   3.817   4.358  0.3701  0.3125  0.0023
 6354W        W21485   0.086  12.720  14.147 -0.3009 -0.3832 -0.1615
 6355W        W21486   4.145  14.412   9.996  0.0192  0.1013  0.2621
 6356W        W21487  18.273   7.942  12.748 -0.0175  0.0375 -0.1242
 6357W        W21488  16.683   7.637  14.963  0.5357  0.0234 -0.0980
 6358W        W21489  12.918  13.137   2.964 -0.1117  0.0092  0.2971
 6359W        W21490  13.661   0.542  13.920 -0.2070  0.2281  0.0178
 6360W        W21491  10.082  10.167  13.276  0.1144  0.3029  0.0754
 6361W        W21492   0.574  13.185   1.183 -0.0306  0.1675  0.1886
 6362W        W21493  10.645  17.098   2.521 -0.1646  0.1454 -0.2539
 6363W        W21494   9.123  14.638   9.635 -0.0554  0.0151 -0.2698
 6364W        W21495  11.368   8.875   4.329  0.1764 -0.0545 -0.0588
 6365W        W21496   7.336  13.916   4.436 -0.1343 -0.0504  0.0148
 6366W        W21497  17.955   0.092  10.698  0.0612 -0.2033 -0.0167
 6367W        W21498  17.742  18.347   1.020 -0.4095  0.0233  0.0010
 6368W        W21499   8.043   1.829   3.092  0.1512  0.1391 -0.0994
 6369W        W21500  16.568   1.502  11.935  0.0927  0.0899 -0.0596
 6370W        W21501   4.815   5.908  11.541 -0.0948 -0.1472 -0.1657
 6371W        W21502   4.855  17.221   1.072 -0.1074  0.2353 -0.1028
 6372W        W21503   4.972  17.587   0.675  0.1412 -0.0563 -0.2295
 6373W        W21504   1.053  17.215   0.803 -0.1525  0.0238  0.1501
 6374W        W21505  14.170   6.278  12.188  0.2139  0.1231 -0.1013
 6375W        W21506  12.738   4.584  15.212  0.0876  0.1210  0.0334
 6376W        W21507   8.264   8.334  11.659  0.1207  0.0147  0.1685
 6377W        W21508  12.001   1.599  14.285  0.1426  0.2196  0.1241
 6378W        W21509   2.100   1.256  12.609  0.1317 -0.1314 -0.0377
 6379W        W21510  18.121   1.899   1.371 -0.0826 -0.3015  0.3378
 6380W        W21511  10.309   7.312   2.229 -0.1851  0.2152 -0.2918
 6381W        W21512  16.920  13.318   3.579  0.0318 -0.0076  0.1238
 6382W        W21513   6.231   3.756  11.300 -0.2014 -0.2550  0.0096
 6383W        W21514   6.750   8.647  14.114 -0.1629 -0.4880 -0.1367
 6384W        W21515  18.345   2.455  11.351 -0.1103 -0.2505 -0.1987
 6385W        W21516  12.285  10.119   0.538 -0.1331 -0.0465 -0.2303
 6386W        W21517   1.956  12.829  12.632 -0.1025  0.2246  0.0069
 6387W        W21518   4.986  15.113  12.554 -0.2682 -0.3454 -0.0937
 6388W        W21519   2.938  17.977  14.177 -0.3099 -0.1369 -0.2203
 6389W        W21520  13.889  16.588   3.552  0.0290 -0.0667 -0.1098
 6390W        W21521   5.784   8.789   6.629  0.1533  0.0165  0.0115
 6391W        W21522   0.548  16.371   2.466 -0.0122 -0.3365 -0.1022
 6392W        W21523   2.818   2.967   1.693  0.3021 -0.2225 -0.1000
 6393W        W21524  13.681   5.299   4.619  0.0361 -0.0953  0.0017
 6394W        W21525   2.513   2.836   2.611  0.0047 -0.0417 -0.1079
 6395W        W21526   0.121   1.499   0.033  0.1876  0.3172 -0.1203
 6396W        W21527   4.034  17.489  11.135 -0.1794  0.0923  0.2242
 6397W        W21528  16.795  18.195  11.962  0.3701 -0.0626  0.0033
 6398W        W21529  18.268   5.872  14.715  0.1792 -0.0736  0.0610
 6399W        W21530  11.649   5.710   3.238  0.2847  0.0970 -0.0225
 6400W        W21531  12.139   4.823  11.763 -0.0868 -0.1732 -0.3054
 6401W        W21532   2.807   9.201   1.972 -0.3798 -0.0194  0.0713
 6402W        W21533   6.832   6.084   4.269  0.0283  0.2334  0.1205
 6403W        W21534  16.120   7.783  12.467  0.3716 -0.2710 -0.3735
 6404W        W21535   9.484  14.541  15.349 -0.1856 -0.1716 -0.2132
 6405W        W21536  11.881   2.224  12.632 -0.1068 -0.1175  0.2531
 6406W        W21537  12.893   2.622   5.304  0.0126  0.2579  0.0707
 6407W        W21538   8.759   3.482   5.521  0.2405 -0.0826  0.0201
 6408W        W21539   6.122  14.536  14.173  0.0182 -0.1180 -0.0013
 6409W        W21540  15.204  18.060  15.307 -0.1588 -0.4251 -0.2435
 6410W        W21541  10.886  13.833   4.932 -0.2746  0.2081  0.0980
 6411W        W21542   7.250  16.967   1.710  0.2307 -0.0053 -0.0728
 6412W        W21543   6.473  15.699  13.263 -0.1035  0.0922 -0.0464
 6413W        W21544  17.405  11.575  12.819 -0.2867  0.0401 -0.1863
 6414W        W21545   2.699  13.778  14.102 -0.1000 -0.1177  0.3040
 6415W        W21546   4.861   1.877   1.674 -0.0728  0.0503  0.2320
 6416W        W21547   6.515   6.559  13.708  0.0106  0.2026  0.4626
 6417W        W21548  13.341  16.876  13.645 -0.2169  0.0237 -0.0618
 6418W        W21549  16.721   9.814  14.989 -0.0266  0.1691  0.2496
 6419W        W21550   7.690  17.196  11.369 -0.0351 -0.0111 -0.1440
 6420W        W21551   6.515   2.337  14.585  0.0675  0.2392 -0.0614
 6421W        W21552   3.977  16.337   3.828  0.0249 -0.1069 -0.3585
 6422W        W21553  13.830   5.144   2.809 -0.3278 -0.0036 -0.1557
 6423W        W21554   1.804  12.373  12.877 -0.1154 -0.2385 -0.1020
 6424W        W21555  13.264  10.661   2.825 -0.3701  0.1541  0.1276
 6425W        W21556  16.791   5.202  11.749  0.0787 -0.0847 -0.1364
 6426W        W21557  11.002  13.396   4.758 -0.4081  0.3759 -0.0136
 6427W        W21558  14.128   2.262  10.917  0.2443  0.0448 -0.1486
 6428W        W21559  15.834   3.761   5.272 -0.1717 -0.0557 -0.0382
 6429W        W21560  12.167  12.262  13.250  0.0962  0.0122 -0.0853
 6430W        W21561   0.134   3.252  14.224 -0.0059 -0.0656  0.1374
 6431W        W21562   0.651   5.781   4.680 -0.0027 -0.0028 -0.1019
 6432W        W21563   9.900  18.252   5.550 -0.0032 -0.0687 -0.1531
 6433W        W21564  12.701   9.709  11.368 -0.0252 -0.0507  0.4304
 6434W        W21565  10.613  18.328  12.261  0.0585 -0.1099  0.2255
 6435W        W21566   3.362  13.828  13.650 -0.1689 -0.1886  0.2230
 6436W        W21567   2.725  10.726   2.690  0.0816  0.0910 -0.2829
 6437W        W21568  16.429   7.694  14.452 -0.1839 -0.7497  0.2478
 6438W        W21569  16.398  17.031   4.643 -0.1566 -0.0616 -0.3184
 6439W        W21570   8.021   5.351  11.973  0.0911 -0.3060 -0.0525
 6440W        W21571   3.355  15.370   0.057 -0.1990  0.0074  0.1481
 6441W        W21572  14.753   8.194  13.591  0.2537 -0.2180 -0.2597
 6442W        W21573  11.195  16.477   0.011  0.2304  0.0129  0.1397
 6443W        W21574   7.140   4.084   2.770 -0.1794 -0.0074 -0.1658
 6444W        W21575   7.808   7.044   2.064  0.4384 -0.2077 -0.0566
 6445W        W21576   6.513  15.421  15.386  0.1074 -0.0907  0.1461
 6446W        W21577  13.836  18.188  12.875  0.4302  0.2370  0.2640
 6447W        W21578   0.376  10.790  13.793 -0.0323  0.1297 -0.1098
 6448W        W21579   4.652   0.432   4.156 -0.0675 -0.1278  0.3984
 6449W        W21580   1.319   3.798  16.031 -0.2456 -0.2884 -0.1687
 6450W        W21581   0.868  12.157  13.803  0.0756 -0.1349  0.0040
 6451W        W21582  11.786  11.950   3.139 -0.0243  0.1536 -0.2083
 6452W        W21583   1.870  14.647   1.577  0.1412  0.0429  0.1019
 6453W        W21584  12.261  13.295   0.283  0.0506 -0.0242  0.0882
 6454W        W21585  11.913   5.524   4.861  0.4875  0.2419 -0.2960
 6455W        W21586   4.254  10.969   3.693 -0.0825 -0.2020  0.4044
 6456W        W21587   7.865  14.554  13.210 -0.1953 -0.1425  0.0800
 6457W        W21588  11.134   7.703  12.625  0.1364 -0.1463 -0.2195
 6458W        W21589   9.929   2.939  11.655  0.1408  0.0223 -0.3398
 6459W        W21590  11.364  11.352   3.409 -0.0186  0.1937  0.0123
 6460W        W21591  12.807   6.775   5.922  0.0794 -0.2541 -0.1112
 6461W        W21592  10.968   4.658   4.547  0.0795  0.3208 -0.0675
 6462W        W21593  15.316  11.281   1.408 -0.3724 -0.1829 -0.0565
 6463W        W21594   2.863  15.045   4.128 -0.0108  0.0573 -0.4866
 6464W        W21595   8.660   3.757   1.065 -0.1560  0.1938 -0.2060
 6465W        W21596  15.184   0.924  10.992 -0.0849 -0.1266  0.2046
 6466W        W21597   6.148  17.036   0.938  0.0677 -0.1434 -0.0317
 6467W        W21598  10.697   0.879  13.091  0.1043 -0.2735 -0.3004
 6468W        W21599  12.081   9.189   3.809  0.0552 -0.1382 -0.1080
 6469W        W21600   7.197  18.151   0.912  0.0629  0.0629 -0.3270
 6470W        W21601   2.813   0.044  12.274 -0.0751 -0.2364 -0.1247
 6471W        W21602  13.127   0.111   0.407 -0.0529 -0.5620 -0.1500
 6472W        W21603  11.492   9.697   4.952  0.4616 -0.0746  0.0002
 6473W        W21604  11.659   0.734   5.174  0.3751  0.4045  0.1056
 6474W        W21605  11.071  12.881   4.697 -0.0140  0.1237 -0.0721
 6475W        W21606   2.690  11.396  10.477 -0.1757 -0.0596 -0.1435
 6476W        W21607  12.109  13.360   1.240 -0.1718 -0.0037  0.1537
 6477W        W21608   9.963   4.600  15.163  0.0996 -0.0931  0.1277
 6478W        W21609  10.983   6.274  15.838 -0.0179  0.0638  0.1440
 6479W        W21610  16.520  10.946  13.910 -0.3081 -0.1918 -0.1526
 6480W        W21611  17.201  16.081  11.831  0.4049  0.0968 -0.3348
 6481W        W21612  13.818   9.148   4.779 -0.2566  0.0514 -0.1898
 6482W        W21613   0.744   7.021  12.029  0.0295  0.0840 -0.2339
 6483W        W21614  12.470   5.980   3.995  0.1178 -0.0715  0.0210
 6484W        W21615   2.633   7.609  12.083  0.1612 -0.3154  0.0220
 6485W        W21616   7.878   3.329   4.848  0.1425  0.0716  0.2600
 6486W        W21617   2.282   6.539   4.601 -0.0440  0.0926  0.4784
 6487W        W21618  18.372   2.058   2.145  0.0474 -0.0526  0.0177
 6488W        W21619   5.018   8.392  12.611 -0.2367  0.0429  0.0617
 6489W        W21620   3.132   4.385   0.730 -0.0507 -0.3162 -0.2461
 6490W        W21621   5.123  11.256   1.808  0.0231 -0.1187  0.1589
 6491W        W21622  15.944   1.317  16.050  0.1892  0.0212  0.2611
 6492W        W21623  14.912  12.733  10.039  0.3295 -0.2550  0.1366
 6493W        W21624  13.508  18.196   4.142 -0.0318 -0.3435  0.0775
 6494W        W21625   6.303   7.344   0.474  0.0032 -0.0962 -0.0596
 6495W        W21626   7.996   6.583   2.348  0.3211 -0.0824 -0.2368
 6496W        W21627   4.602   3.035   5.671 -0.1697  0.0524  0.2881
 6497W        W21628   1.018   9.723   0.060 -0.2049  0.5112 -0.1253
 6498W        W21629  17.042   6.917   1.026 -0.0326  0.0498 -0.1305
 6499W        W21630  14.385   2.122   0.710  0.0344  0.2271  0.1366
 6500W        W21631  14.683   6.388   5.775 -0.0341  0.0806 -0.1285
 6501W        W21632  16.629  13.572   2.032 -0.3695  0.1629  0.4889
 6502W        W21633   2.319  10.581   1.325  0.0828  0.0471  0.0938
 6503W        W21634  10.085  14.370   5.644  0.1092  0.2771 -0.0411
 6504W        W21635   3.123   4.766  12.597  0.0511  0.2951  0.0815
 6505W        W21636   1.022  15.736   3.579  0.2898 -0.2470  0.1025
 6506W        W21637   8.103   5.935  15.429  0.0412 -0.0211  0.1142
 6507W        W21638  14.997  12.233   5.170 -0.1409 -0.2062 -0.3857
 6508W        W21639  11.059  12.704  13.034 -0.2127  0.5981  0.0532
 6509W        W21640  17.201   6.416  13.514 -0.1314 -0.1098 -0.0564
 6510W        W21641   0.768   8.878  13.364  0.1172 -0.0125  0.5114
 6511W        W21642   9.480   7.103   2.081 -0.0489  0.0804 -0.0742
 6512W        W21643  17.314   7.397  12.918 -0.2882 -0.0873 -0.1012
 6513W        W21644  16.422  11.223   2.437 -0.0902 -0.0868 -0.0174
 6514W        W21645   7.895   9.149   2.737  0.2348 -0.2320  0.2907
 6515W        W21646   2.707   4.663  13.774  0.0201  0.2200  0.2189
 6516W        W21647   6.932  15.484   2.872  0.0853  0.0445 -0.0821
 6517W        W21648  17.415  11.899  15.688  0.0093  0.1131 -0.1089
 6518W        W21649   9.419  11.617  15.897  0.0592 -0.0259 -0.2381
 6519W        W21650  12.095   9.091  11.615  0.3973 -0.0120 -0.0521
 6520W        W21651  14.318   1.296   2.937  0.1289 -0.0172  0.1635
 6521W        W21652   6.766  11.136   1.565  0.0524 -0.0569  0.0964
 6522W        W21653   6.055   9.715   1.409  0.3338  0.1872  0.1478
 6523W        W21654  11.392  13.425  13.260  0.0961  0.0872  0.1797
 6524W        W21655   6.792   4.128   4.552  0.3096  0.2182 -0.1227
 6525W        W21656   4.318   2.857  13.493 -0.2619 -0.1794  0.1333
 6526W        W21657   9.597   9.159   6.399 -0.1624  0.1217  0.0710
 6527W        W21658   9.427  14.410  13.495  0.3399 -0.2093 -0.0104
 6528W        W21659  12.415  18.451  10.911  0.2520  0.1533  0.1301
 6529W        W21660   7.799   6.377   0.137 -0.4011 -0.3072  0.0585
 6530W        W21661   3.921  12.860  14.254 -0.0547  0.0945  0.0050
 6531W        W21662   9.148  10.239   0.092 -0.2622 -0.3431 -0.0764
 6532W        W21663   2.497   9.692  12.976  0.2725 -0.1143  0.2351
 6533W        W21664  16.536  10.169  11.363  0.0238  0.1844 -0.0922
 6534W        W21665   8.795  17.859  15.457  0.0781 -0.1904  0.1783
 6535W        W21666  14.009  17.001   4.372 -0.2676 -0.2642 -0.0604
 6536W        W21667   5.071   0.348  10.399  0.0170 -0.0916  0.0557
 6537W        W21668  12.162   7.028  15.308  0.2070  0.0239  0.0295
 6538W        W21669   3.820   9.867  11.266  0.2832  0.0476 -0.1033
 6539W        W21670   9.106   5.108  11.921 -0.0315  0.0775 -0.1078
 6540W        W21671  10.916   6.359   1.889  0.0978  0.0992  0.2144
 6541W        W21672   8.920   8.577  15.507  0.1811 -0.0908 -0.1799
 6542W        W21673   9.701  13.625  14.372  0.1304 -0.2068  0.1220
 6543W        W21674   1.390   4.159   0.921 -0.0684  0.3732 -0.1639
 6544W        W21675  11.465  16.696  15.009  0.1970 -0.1521 -0.1781
 6545W        W21676  12.878  14.793  11.780  0.1854 -0.1044  0.1376
 6546W        W21677  17.005   5.830  11.290 -0.0025  0.1674 -0.0995
 6547W        W21678  11.631   6.792   4.715  0.3102  0.2736 -0.1655
 6548W        W21679   5.931   3.044   1.810  0.0782 -0.1214  0.1267
 6549W        W21680   8.339   9.605  14.862 -0.2401 -0.0546 -0.1261
 6550W        W21681   3.245  17.841  10.639  0.1247 -0.0725 -0.0351
 6551W        W21682  12.040  13.005  14.484  0.0818 -0.0902  0.2497
 6552W        W21683  17.732  13.680  15.219 -0.2057 -0.0404 -0.3513
 6553W        W21684  11.334   0.919   0.862 -0.4614 -0.2105 -0.0112
 6554W        W21685   3.341  10.480  14.480  0.1043 -0.0154 -0.2274
 6555W        W21686  11.974   7.264  10.463 -0.0826  0.0506 -0.0679
 6556W        W21687   9.947   6.071   2.425  0.0950 -0.1734 -0.1273
 6557W        W21688  17.731  11.522   1.659  0.1413  0.2092 -0.1269
 6558W        W21689   6.237   6.754  12.386 -0.0298 -0.1520 -0.3514
 6559W        W21690  11.261   5.366  11.789  0.0379  0.0988 -0.0276
 6560W        W21691   6.745   3.406  12.751  0.0717  0.1650  0.3246
 6561W        W21692   2.126   0.016   3.450  0.1085 -0.1099 -0.1412
 6562W        W21693  17.605   8.909  11.390  0.1421  0.1566  0.1323
 6563W        W21694  10.523  10.198   3.468 -0.1712  0.2783 -0.2948
 6564W        W21695  17.675  18.134   1.600  0.4095  0.3845  0.2968
 6565W        W21696   3.920  16.468  11.270 -0.1678 -0.0189 -0.2130
 6566W        W21697   9.808   6.819   1.587  0.1262  0.0789 -0.2309
 6567W        W21698   5.149   5.750   1.451  0.0422  0.0979 -0.1813
 6568W        W21699  14.075   5.873  15.541  0.1082 -0.2659  0.0491
 6569W        W21700  13.007  17.826  12.647  0.0332 -0.0514 -0.0360
 6570W        W21701  12.914   8.302  13.604  0.1298 -0.1180  0.2207
 6571W        W21702   2.536   2.087  14.395  0.0066 -0.2495 -0.0593
 6572W        W21703  16.450  12.019  11.499  0.0747 -0.0582 -0.2597
 6573W        W21704  12.201  10.039   1.013 -0.0286  0.4580 -0.0055
 6574W        W21705   4.475  17.050  13.054  0.2537  0.0189 -0.2741
 6575W        W21706  11.567  17.545   1.029  0.2461 -0.0872 -0.1486
 6576W        W21707   6.145   2.157  11.150 -0.1820 -0.1300  0.0368
 6577W        W21708   4.455   9.133  14.801 -0.1903  0.0743  0.0346
 6578W        W21709  15.023  14.379   0.099  0.0648 -0.2371  0.2606
 6579W        W21710   1.457   4.271   2.694 -0.0593 -0.3974  0.1178
 6580W        W21711   3.937   0.160   4.088  0.1289  0.1385 -0.2704
 6581W        W21712  15.566  15.722  12.451 -0.3131 -0.1997  0.2352
 6582W        W21713   5.557  16.041  16.046 -0.2972 -0.3377  0.0587
 6583W        W21714   9.612   0.648  11.675 -0.3019 -0.0934  0.0415
 6584W        W21715   5.861  14.754  12.462 -0.1587 -0.1195 -0.2534
 6585W        W21716   6.740  16.058  12.980 -0.0829  0.0611  0.0392
 6586W        W21717   3.748  12.286  13.088  0.0360 -0.2572  0.0332
 6587W        W21718   0.180   8.458  15.884  0.3877 -0.1430 -0.2066
 6588W        W21719   6.939  11.388  15.570  0.0750 -0.4027  0.2645
 6589W        W21720  16.704   6.960   0.505  0.2481  0.2164 -0.2134
 6590W        W21721  17.246  10.689   2.681  0.0793 -0.0283  0.0715
 6591W        W21722  13.676   9.566   4.492 -0.1102  0.0177 -0.1185
 6592W        W21723  10.329  11.829  13.498  0.0246 -0.0168 -0.1010
 6593W        W21724  16.444   2.080   0.913 -0.2698 -0.1032 -0.2149
 6594W        W21725   6.763   6.189  15.347  0.0151 -0.4365 -0.0153
 6595W        W21726   9.365   4.279  11.298  0.0337  0.2024  0.0877
 6596W        W21727  16.404  10.466  11.813  0.2989 -0.1031  0.0672
 6597W        W21728   0.347  16.550  13.849 -0.1711  0.1348  0.1339
 6598W        W21729   5.634  15.203  13.305  0.0083 -0.3609 -0.1414
 6599W        W21730  14.012  15.348   4.066  0.0094  0.3608  0.0803
 6600W        W21731   5.486   4.237   2.550  0.1943 -0.1145  0.0116
 6601W        W21732   4.240  16.626   3.280 -0.3602  0.1038 -0.1035
 6602W        W21733   3.623  18.477   3.157 -0.0713 -0.0947  0.0913
 6603W        W21734  13.577  13.293  11.765  0.0111  0.1907  0.0687
 6604W        W21735   1.859  17.199   4.198 -0.1480  0.0986 -0.1859
 6605W        W21736   0.274  14.247   0.328  0.4803  0.0646 -0.4009
 6606W        W21737   7.561   6.708  15.516  0.0264 -0.0986 -0.1073
 6607W        W21738   0.976   3.913   4.676 -0.2012 -0.2475  0.0164
 6608W        W21739  13.405  12.123  11.921  0.1558 -0.2203 -0.0386
 6609W        W21740  13.589   6.622   2.078 -0.1698  0.2273 -0.0109
 6610W        W21741   3.666  11.201   5.216  0.0061 -0.0200  0.0264
 6611W        W21742   6.919   3.196   2.921 -0.2130  0.1250  0.0129
 6612W        W21743   4.212   5.740  14.551  0.2897 -0.3538  0.0569
 6613W        W21744   7.308  10.648  13.407 -0.0198  0.0743  0.1288
 6614W        W21745   4.439  18.142   1.225 -0.0793 -0.1636 -0.0557
 6615W        W21746  10.918   9.740  11.720  0.0700  0.3190 -0.1120
 6616W        W21747   3.405   6.832  15.345  0.0552 -0.0572  0.2046
 6617W        W21748  16.765  15.165  12.532  0.0739  0.2434 -0.2861
 6618W        W21749   8.516   4.974  12.701  0.0387  0.1812  0.0398
 6619W        W21750   5.725  16.054  14.019  0.4708 -0.0469  0.4408
 6620W        W21751  15.880   0.971  11.621 -0.1119  0.0258  0.1859
 6621W        W21752  16.622   0.620  10.871  0.3762  0.0538 -0.0778
 6622W        W21753  11.036  16.841   9.865 -0.1865  0.0356  0.0978
 6623W        W21754  12.556   8.354   4.693 -0.0771  0.0373  0.0157
 6624W        W21755   0.998   3.642  10.570  0.5785  0.1240 -0.1935
 6625W        W21756  16.946   4.779  15.981 -0.2153 -0.1731  0.1838
 6626W        W21757  12.812  17.070   2.687 -0.0543 -0.1330 -0.0893
 6627W        W21758   0.237  11.547  15.799  0.0409  0.0612  0.0057
 6628W        W21759   1.370  12.428  14.819  0.2244 -0.0296  0.1968
 6629W        W21760   3.134  18.346   3.225 -0.1666  0.2146  0.3260
 6630W        W21761   8.179  17.665   0.913 -0.2357 -0.0995 -0.0059
 6631W        W21762   0.817  15.103  11.777  0.2016  0.2491  0.0930
 6632W        W21763   0.542  13.971  14.210 -0.3441  0.1327 -0.2461
 6633W        W21764   7.991  11.350   1.184  0.2883  0.2401 -0.2441
 6634W        W21765   9.960   0.337  12.583  0.2335 -0.2392 -0.0668
 6635W        W21766  16.119  17.176  11.062 -0.1312  0.2209 -0.2656
 6636W        W21767  16.662  16.482   1.532 -0.1158 -0.0304  0.0713
 6637W        W21768   9.095   0.586  15.104  0.3562 -0.1859  0.2654
 6638W        W21769   1.117   9.534   5.111 -0.3834  0.1588 -0.0764
 6639W        W21770  14.142  15.977   4.687 -0.3701  0.1253 -0.1449
 6640W        W21771   0.040  12.151  14.960  0.2644  0.2596  0.4686
 6641W        W21772  13.044  15.519   0.156 -0.4854  0.2070  0.0978
 6642W        W21773   9.484   8.308   4.908 -0.2235  0.3064 -0.2721
 6643W        W21774  15.490  15.483  15.868 -0.1271 -0.0062 -0.2912
 6644W        W21775  14.144  10.418  13.857  0.2612  0.0740 -0.1415
 6645W        W21776   2.179  10.023   4.251  0.1372  0.1776 -0.0506
 6646W        W21777  18.086   9.382   1.705 -0.0881 -0.1715 -0.0492
 6647W        W21778   4.486   2.971  15.951  0.2906  0.2102  0.0003
 6648W        W21779  11.981   5.188  13.445 -0.1709  0.2645  0.2868
 6649W        W21780  13.535   3.373  11.262 -0.2402 -0.3914 -0.0522
 6650W        W21781  12.805  10.922   4.608 -0.2492  0.0164  0.0001
 6651W        W21782  10.652   3.821   6.496 -0.0088 -0.2734 -0.2564
 6652W        W21783   3.732  10.424  12.869 -0.2244  0.1086  0.2332
 6653W        W21784  12.118   8.232  11.966 -0.1040 -0.4390  0.3414
 6654W        W21785  13.980   6.238  11.715  0.4279  0.0869 -0.0171
 6655W        W21786  12.439  17.886   4.720  0.2126  0.1925  0.0218
 6656W        W21787  17.570  15.320   3.147 -0.0109  0.0641 -0.2125
 6657W        W21788  13.164  11.656   1.958  0.2896 -0.0142  0.0844
 6658W        W21789  14.818  14.537   1.577 -0.1222  0.0351 -0.1651
 6659W        W21790   1.029   6.193  11.633  0.0227 -0.1104 -0.0181
 6660W        W21791  13.596   0.406   1.765  0.0052  0.0420  0.2687
 6661W        W21792   3.587   2.103   2.461  0.0317  0.2265 -0.3523
 6662W        W21793   6.953  14.262  11.749  0.1279  0.0124 -0.0866
 6663W        W21794   8.517   0.955   3.445  0.0010 -0.0336 -0.1200
 6664W        W21795   7.944  16.412   3.959  0.1358 -0.0815  0.2077
 6665W        W21796  10.896  17.322   1.130  0.4279 -0.0003 -0.3707
 6666W        W21797  16.266  16.561   4.810 -0.2601 -0.3177  0.0550
 6667W        W21798   6.985  10.350   4.777 -0.0202 -0.0316 -0.0113
 6668W        W21799  15.981   9.956   1.177  0.2547 -0.0847  0.0861
 6669W        W21800  16.838   0.823   2.510 -0.1310  0.2927 -0.0908
 6670W        W21801  17.141   3.181  13.075 -0.2172 -0.1743  0.4146
 6671W        W21802  12.735  18.092  14.461 -0.0416 -0.2686  0.1276
 6672W        W21803  17.126  15.369  12.958  0.0968 -0.2900 -0.3980
 6673W        W21804   1.049  10.468   0.468  0.2370  0.0366 -0.1920
 6674W        W21805  15.582   5.537   4.160 -0.2807  0.3109  0.0676
 6675W        W21806  17.308  15.279   1.713 -0.0344 -0.1060  0.0868
 6676W        W21807  13.250   1.713   4.972  0.0208  0.3912  0.0139
 6677W        W21808   7.075  15.533   0.404 -0.1909  0.0835 -0.1428
 6678W        W21809  10.074   5.932   3.507 -0.3553  0.1132 -0.0842
 6679W        W21810  13.941   5.388   4.190 -0.0451  0.3415 -0.0726
 6680W        W21811   4.307   2.491  13.116 -0.0737  0.0330  0.2508
 6681W        W21812  11.226  14.663  11.625  0.2286  0.1677 -0.0034
 6682W        W21813  13.601   5.957  13.856 -0.0548  0.0657  0.3389
 6683W        W21814   5.459   9.451  13.892  0.0402 -0.0293  0.1138
 6684W        W21815   0.146  12.264  11.483  0.1264 -0.2728  0.1732
 6685W        W21816   7.363  16.514  12.695 -0.1146 -0.0151 -0.0167
 6686W        W21817   0.190  10.005   1.257 -0.0528 -0.1875  0.0839
 6687W        W21818   1.359   4.468  12.137 -0.1068 -0.1436 -0.1067
 6688W        W21819   9.963  17.267   4.933 -0.0157  0.2352  0.3606
 6689W        W21820   0.526  15.146   1.534 -0.1717  0.1148  0.2191
 6690W        W21821   1.367  10.625   2.141 -0.3819 -0.0903  0.0707
 6691W        W21822   0.713   9.199   2.459  0.0520 -0.1373 -0.1145
 6692W        W21823  16.401   5.307   6.188 -0.1067 -0.1768  0.1361
 6693W        W21824   5.881  13.322  12.877 -0.0596 -0.0373  0.0509
 6694W        W21825  15.127  12.922   4.261  0.0388 -0.0051  0.2614
 6695W        W21826   4.236   2.809  14.428 -0.3466  0.1259  0.2861
 6696W        W21827   1.324   6.361  12.235  0.0212 -0.0257  0.3967
 6697W        W21828  17.857  18.471  12.812  0.0181 -0.3241 -0.2194
 6698W        W21829  14.680  17.422   9.853  0.1473  0.1068 -0.0477
 6699W        W21830  11.663  10.594   2.832  0.0833  0.0860  0.1396
 6700W        W21831  14.719   6.557  12.630  0.1957  0.1288 -0.1531
 6701W        W21832  11.163   3.574  15.622 -0.1545  0.2355  0.1258
 6702W        W21833   3.834   6.962  11.582  0.0997 -0.0558  0.2209
 6703W        W21834  14.574  18.415   4.674 -0.4137  0.3143  0.1232
 6704W        W21835  14.081   8.581  11.847  0.3043  0.1153  0.3376
 6705W        W21836   9.377   9.541  15.180 -0.2593  0.1547  0.5985
 6706W        W21837   5.573   9.621   0.378 -0.1264  0.0752  0.1483
 6707W        W21838   3.916   9.186  13.834  0.0475  0.2486 -0.1638
 6708W        W21839  15.157   0.357   4.134 -0.0276 -0.2418 -0.1231
 6709W        W21840  18.158  15.074  14.303 -0.0254  0.3162 -0.1473
 6710W        W21841  12.315  12.188   1.464 -0.2836 -0.3283  0.0671
 6711W        W21842   9.700   4.703   4.150  0.0050 -0.0650  0.1537
 6712W        W21843   1.373  10.951  12.820 -0.1581 -0.1352 -0.0059
 6713W        W21844   0.468  17.166  14.287 -0.3103 -0.3117  0.1581
 6714W        W21845   4.355  12.921  11.724 -0.0561  0.0935  0.0018
 6715W        W21846  13.715   7.249   4.085  0.2430  0.1341 -0.3438
 6716W        W21847   9.247  16.020  11.570  0.1375  0.1174 -0.0311
 6717W        W21848   2.771   4.523   4.700  0.1126 -0.2288  0.1884
 6718W        W21849  11.639   5.420  13.134 -0.1111  0.1014  0.1428
 6719W        W21850   3.201   2.655   3.825 -0.0781  0.1187 -0.2788
 6720W        W21851  13.914  16.980   0.334 -0.2948  0.1764 -0.1455
 6721W        W21852  18.095   0.478  14.587  0.1388  0.0307 -0.1965
 6722W        W21853  10.136  10.740   0.029  0.0506 -0.1216 -0.0580
 6723W        W21854   2.727  15.189  12.253  0.4270  0.2919  0.0435
 6724W        W21855   9.575   9.904   0.357 -0.1715 -0.0389  0.2258
 6725W        W21856   4.547   9.401  13.131  0.3361 -0.0818  0.1615
 6726W        W21857  18.403   6.560   5.080 -0.0828  0.1911  0.3033
 6727W        W21858  11.079   3.237   1.288 -0.2038  0.1901 -0.1495
 6728W        W21859   9.118   8.356   5.322 -0.0230  0.1439 -0.0555
 6729W        W21860  12.837   6.594   2.960  0.0390  0.0487  0.4423
 6730W        W21861   5.747  11.458   3.189  0.0915 -0.3051  0.0709
 6731W        W21862   2.027   4.652  13.234  0.0146 -0.0675 -0.0127
 6732W        W21863  13.526   8.312   4.525 -0.1139  0.3444 -0.2343
 6733W        W21864  11.403  16.890  13.063 -0.1576  0.2666 -0.0058
 6734W        W21865   2.436  11.442  14.241  0.4841 -0.0132 -0.1511
 6735W        W21866  13.828  10.698  11.600 -0.1460 -0.0779  0.3731
 6736W        W21867   8.546   5.286   3.907  0.2912  0.3479 -0.1578
 6737W        W21868  11.312  15.632   3.316 -0.1973  0.0549 -0.0978
 6738W        W21869   1.832   6.304   4.374 -0.3609  0.0012  0.0175
 6739W        W21870   0.620  11.473   4.705  0.1055  0.0715 -0.0529
 6740W        W21871   3.845  18.021  12.763  0.2672 -0.0678  0.0603
 6741W        W21872  10.456   8.264  14.120  0.4171 -0.1380  0.1428
 6742W        W21873   4.328  10.041   4.574 -0.1813  0.3672  0.0768
 6743W        W21874   7.477  14.192   3.604 -0.2291 -0.1988  0.0006
 6744W        W21875   4.361  10.293   5.043 -0.0567 -0.1113  0.3276
 6745W        W21876  12.135   4.709  15.965  0.0702 -0.0397  0.0542
 6746W        W21877   2.672   3.858  14.976 -0.1645 -0.1678 -0.1085
 6747W        W21878  18.168   0.392   4.841  0.1710  0.1560 -0.0932
 6748W        W21879  18.064   8.454  13.682  0.0013  0.0229 -0.1713
 6749W        W21880   1.536   5.802  11.644  0.0556 -0.0787  0.0623
 6750W        W21881  16.338   0.551   3.918  0.1558 -0.0474  0.5794
 6751W        W21882  13.255   0.355   3.603 -0.1081  0.1323  0.1335
 6752W        W21883   0.968   8.351   2.279 -0.3091 -0.2854 -0.4228
 6753W        W21884  10.431   5.529   3.601  0.0922  0.0767 -0.1629
 6754W        W21885  11.653   9.849   1.385 -0.0180  0.0229 -0.1753
 6755W        W21886  16.202   1.335   0.770 -0.1090 -0.1526 -0.0420
 6756W        W21887   6.717  13.927   5.311  0.1549 -0.2970  0.3004
 6757W        W21888   2.307   7.226   0.916 -0.3717  0.1575  0.1433
 6758W        W21889   0.003  13.868   1.700  0.3092  0.0801  0.1175
 6759W        W21890  16.297   7.647  15.316  0.1934 -0.1534 -0.3868
 6760W        W21891   1.751   3.044   2.171  0.1197 -0.1592 -0.0801
 6761W        W21892  12.215   2.590   3.999  0.0393 -0.0475 -0.0756
 6762W        W21893  11.346  10.694  10.103  0.0199 -0.1281 -0.2136
 6763W        W21894  18.209   5.472  13.729  0.0621  0.0054  0.1370
 6764W        W21895   5.492   9.530  15.263  0.2127  0.0575 -0.0044
 6765W        W21896   9.718   1.628   0.777  0.1932 -0.0308  0.3039
 6766W        W21897   6.236   9.765   0.923  0.3000 -0.0909  0.0875
 6767W        W21898  11.005  10.533   5.486  0.2130 -0.1939 -0.2637
 6768W        W21899   1.963  12.091   5.219 -0.1161 -0.2372 -0.0649
 6769W        W21900   9.762  17.249  13.858  0.1870 -0.0554  0.1231
 6770W        W21901  13.982   8.779   0.158 -0.0294 -0.4137  0.2544
 6771W        W21902  10.346  18.204   3.629 -0.0511  0.2824 -0.1541
 6772W        W21903  17.684   3.827   0.371  0.2098  0.1223 -0.1659
 6773W        W21904   2.011   8.972  10.231 -0.0824 -0.2420  0.3514
 6774W        W21905  14.501   2.365  11.790 -0.1005 -0.0182 -0.1848
 6775W        W21906  15.678   5.600   4.752 -0.2290 -0.3142  0.2136
 6776W        W21907  18.296   3.931  15.380 -0.0746 -0.0396  0.1174
 6777W        W21908   8.990   9.104  13.338  0.1592  0.0947 -0.0455
 6778W        W21909   5.465   3.570   1.391 -0.1989  0.2601 -0.0032
 6779W        W21910   7.598  12.760   3.151 -0.0329 -0.2827  0.2145
 6780W        W21911  15.205   8.253  13.485 -0.2408 -0.0942 -0.0562
 6781W        W21912  15.154  17.619   1.294 -0.1999  0.0396  0.0887
 6782W        W21913   5.348  16.996  11.765  0.1674 -0.0921 -0.1318
 6783W        W21914   4.806   6.753   0.258  0.0968  0.3267 -0.2593
 6784W        W21915   4.315  10.767  11.997 -0.0826 -0.2701  0.0460
 6785W        W21916   0.558   2.930  10.956  0.0748 -0.1625  0.0752
 6786W        W21917  16.721  12.967  11.426  0.2207 -0.1963  0.2699
 6787W        W21918   8.137   2.818   1.641 -0.0201  0.0971 -0.0896
 6788W        W21919  10.317   8.600  13.698  0.2261  0.1633 -0.1653
 6789W        W21920   8.819   2.999   4.470  0.0691 -0.1472 -0.1875
 6790W        W21921   2.746   0.721  10.722 -0.3487 -0.3486 -0.1407
 6791W        W21922   4.358  12.618  14.084 -0.3372 -0.1937  0.0232
 6792W        W21923   2.412   7.818   2.357 -0.0283 -0.1555 -0.0907
 6793W        W21924  11.152  15.561  15.509  0.3532  0.1736 -0.0449
 6794W        W21925  13.968   7.721   3.442  0.1985  0.1147 -0.1297
 6795W        W21926   1.574   8.373  13.080  0.1414  0.4237  0.1258
 6796W        W21927   0.181   2.563   2.266  0.0665  0.0386  0.1787
 6797W        W21928  11.855   8.609  15.712 -0.4224  0.3826  0.1355
 6798W        W21929  13.711   9.346   2.426  0.1825  0.3442 -0.0841
 6799W        W21930   7.688   0.523  13.603  0.1267  0.1353  0.1394
 6800W        W21931  15.916  10.674   2.920 -0.1208  0.0238  0.1296
 6801W        W21932  11.250  12.484   1.729 -0.0114  0.0338 -0.0059
 6802W        W21933  14.588   1.683  15.979  0.1441  0.0509  0.1327
 6803W        W21934   5.093  12.326   1.942  0.0489 -0.0167  0.3949
 6804W        W21935   3.253   0.721   9.951 -0.2746 -0.1403 -0.0352
 6805W        W21936   6.744   9.003   3.529 -0.1525 -0.1633 -0.0306
 6806W        W21937  17.903  17.274  15.340 -0.0411 -0.0911  0.1210
 6807W        W21938  18.225  10.121   0.566 -0.0206  0.2111  0.0680
 6808W        W21939   5.299  10.642  10.779 -0.0035  0.0288 -0.1528
 6809W        W21940   5.562  15.902   4.786  0.1015  0.0170 -0.1052
 6810W        W21941  11.613  17.444  13.288 -0.1812 -0.1364  0.2480
 6811W        W21942   3.478   6.030   2.229  0.3395 -0.2069  0.2716
 6812W        W21943   1.067  14.951  15.188  0.2376  0.1955 -0.0225
 6813W        W21944   1.021   2.233  10.249 -0.3763 -0.0692 -0.1247
 6814W        W21945   3.437  11.917  14.264 -0.0356 -0.0234 -0.0691
 6815W        W21946   8.870  10.467  13.799  0.2573  0.0450  0.1771
 6816W        W21947   7.360   5.296   3.624  0.3819  0.1802  0.0738
 6817W        W21948   5.530  12.639  12.566  0.1074 -0.1381 -0.6033
 6818W        W21949  11.413   9.521   5.937 -0.4244 -0.3567 -0.0444
 6819W        W21950   9.929  10.736   2.046 -0.0524  0.0234 -0.0229
 6820W        W21951   8.300   5.651  10.967  0.0905 -0.1025 -0.1238
 6821W        W21952  13.969   9.003  13.095 -0.2732  0.0144  0.2504
 6822W        W21953   1.109  17.114  13.192  0.0337 -0.0037 -0.0473
 6823W        W21954   2.341  16.758   2.526 -0.0992 -0.0020 -0.0864
 6824W        W21955  17.342  11.315   1.303  0.2269 -0.0471 -0.2622
 6825W        W21956  11.408  14.398   5.954  0.0834  0.0473 -0.1328
 6826W        W21957   3.419   0.599   2.729  0.1194  0.1903  0.2025
 6827W        W21958  11.421  16.639   2.743 -0.3232 -0.2296  0.1018
 6828W        W21959  16.848   6.243  11.677  0.0511 -0.0407  0.1975
 6829W        W21960   8.512   4.505  13.290  0.1090  0.0844  0.2315
 6830W        W21961  14.998  12.832   2.556 -0.0112  0.1290 -0.0577
 6831W        W21962   9.260  15.485   3.980 -0.1047  0.2916 -0.1238
 6832W        W21963  11.072   8.265   1.856  0.1084  0.0392 -0.0954
 6833W        W21964  12.130   7.177   1.468 -0.0334  0.1917 -0.2393
 6834W        W21965  12.826  14.287   3.546  0.3731 -0.1226 -0.0041
 6835W        W21966   9.963   6.971  15.989  0.0323  0.2701  0.0275
 6836W        W21967  10.217   0.394   5.664 -0.0705  0.1557  0.3309
 6837W        W21968   4.806   7.872   2.743 -0.1135  0.4196 -0.3224
 6838W        W21969  14.979   1.528   4.233 -0.0256  0.2631  0.0020
 6839W        W21970  11.300   6.356  15.426  0.2518 -0.0519  0.0021
 6840W        W21971  15.885   8.007   3.384  0.2508 -0.2075  0.1031
 6841W        W21972  11.580  11.920  14.841  0.1696 -0.0533 -0.1732
 6842W        W21973  11.143   4.899   3.658  0.0613 -0.2459 -0.0722
 6843W        W21974  10.591  12.613   0.547 -0.0113 -0.1119  0.2933
 6844W        W21975  14.414  17.900   1.551 -0.0493 -0.0812 -0.0213
 6845W        W21976  14.062  13.579  13.978  0.2383 -0.0021  0.0048
 6846W        W21977   9.773   4.658   1.929 -0.1479 -0.0149 -0.0089
 6847W        W21978  11.109   7.521  15.186  0.0815  0.4355  0.5161
 6848W        W21979  16.958   1.999   3.846 -0.1309  0.1613  0.0970
 6849W        W21980  14.409   4.958  14.417 -0.0746 -0.0372 -0.1454
 6850W        W21981  11.525  11.402  15.075 -0.2327 -0.0520 -0.0475
 6851W        W21982   2.797   4.029  10.153  0.3289 -0.2889  0.3520
 6852W        W21983   1.372  17.319  14.594 -0.2382  0.0970  0.1624
 6853W        W21984  11.581   1.534  15.065 -0.1037 -0.2678  0.1303
 6854W        W21985  10.012  11.929   0.711  0.0341  0.2588  0.1535
 6855W        W21986  15.344  13.958  13.869 -0.0684  0.0075 -0.0820
 6856W        W21987   5.791   4.308   0.710 -0.1534 -0.0259  0.0241
 6857W        W21988  12.554   8.253   3.022 -0.2985  0.1872  0.2995
 6858W        W21989   4.916   1.771  13.399 -0.2611  0.2796  0.2475
 6859W        W21990   7.905   2.589  12.019 -0.1341  0.1149 -0.0575
 6860W        W21991  14.550   6.604   2.034 -0.0180 -0.1411  0.0316
 6861W        W21992  10.208  12.602  14.604 -0.1299 -0.0597  0.1600
 6862W        W21993   6.032  11.422  11.295  0.0946 -0.1306  0.0852
 6863W        W21994   9.969  18.016   3.955 -0.0811 -0.6051  0.0854
 6864W        W21995  11.262  11.980   0.550  0.0773  0.2811  0.1164
 6865W        W21996   2.650  10.747   1.707  0.0686  0.2451  0.4885
 6866W        W21997   5.212  17.734   2.369  0.0326  0.1531  0.2893
 6867W        W21998   3.577   3.290   4.722  0.0523  0.1126 -0.0903
 6868W        W21999  14.311  13.375   0.941  0.0688 -0.2585 -0.2395
 6869W        W22000   5.722   6.562  12.530  0.1408  0.0379  0.1980
 6870W        W22001   7.655   7.871   3.966 -0.1161 -0.1465  0.0944
 6871W        W22002   6.657   8.268   2.813  0.2407 -0.0777  0.2286
 6872W        W22003   6.056  18.315  13.941  0.1241  0.0849  0.0750
 6873W        W22004   2.591  12.464   1.706  0.0740  0.0079  0.1212
 6874W        W22005   1.032   9.598  15.174  0.0426 -0.2669 -0.1071
 6875W        W22006   2.672   9.480  13.400  0.0410  0.1138  0.2316
 6876W        W22007  13.718   3.834   4.102  0.2816  0.1911  0.0269
 6877W        W22008  10.567  11.815   5.259 -0.4321  0.0183 -0.2032
 6878W        W22009   8.069   1.502   5.294  0.0517  0.2789  0.3452
 6879W        W22010  10.393  11.631   0.413 -0.0815 -0.0627  0.1970
 6880W        W22011   0.437   7.260   5.124 -0.3229 -0.1761 -0.0189
 6881W        W22012  14.984   9.344   3.072  0.0641 -0.1974  0.2280
 6882W        W22013   9.757  18.105   0.190  0.1015  0.1424 -0.1148
 6883W        W22014   2.801   6.912  14.180 -0.1663  0.1038 -0.0158
 6884W        W22015  15.654   4.219  15.421 -0.1798 -0.0946  0.2235
 6885W        W22016   4.853  15.784   0.643 -0.0961  0.3053  0.1080
 6886W        W22017  14.140   0.629   1.064 -0.1512 -0.0508 -0.0372
 6887W        W22018  16.010   6.757   2.799 -0.1049 -0.2194  0.1510
 6888W        W22019  12.560  17.984   0.960  0.2400 -0.2489 -0.2221
 6889W        W22020   9.251   7.131   3.100 -0.0977  0.1792 -0.0359
 6890W        W22021   6.279  14.379   1.755  0.2513  0.0278  0.2169
 6891W        W22022  10.366   5.751   0.191  0.0785 -0.0613  0.3161
 6892W        W22023   6.263  11.686  13.223 -0.4631  0.3068 -0.0784
 6893W        W22024   3.758   3.530  11.754  0.1021  0.0217  0.2070
 6894W        W22025  10.952   7.090  13.971  0.0445  0.0733  0.0213
 6895W        W22026   3.371   1.002  15.329  0.0755  0.1322 -0.2279
 6896W        W22027   5.072  14.792   1.538  0.1197 -0.1323 -0.1271
 6897W        W22028  14.123  10.195   3.268 -0.1431 -0.3009 -0.0427
 6898W        W22029   8.241  15.509  11.451  0.1085  0.1388 -0.1493
 6899W        W22030   8.663  15.244   3.068  0.0346  0.1634  0.0900
 6900W        W22031  11.970  15.492  15.644 -0.1429 -0.0335  0.0796
 6901W        W22032   5.442  13.779  14.485  0.2387  0.0133  0.0069
 6902W        W22033  14.410   6.655   3.925 -0.5806 -0.4055  0.0767
 6903W        W22034   1.068   3.050  14.618  0.2884  0.3318 -0.1492
 6904W        W22035  13.557  14.763  11.251 -0.0170 -0.1013 -0.1810
 6905W        W22036   9.152  11.903   2.765  0.1577  0.0369 -0.0047
 6906W        W22037  10.903  14.524  15.943  0.1908 -0.1192 -0.0401
 6907W        W22038  16.382   1.171   2.602  0.1447 -0.0513  0.4111
 6908W        W22039   9.552   6.160   4.994 -0.0821  0.1893  0.0059
 6909W        W22040   9.139   0.442   0.605  0.1679  0.1392 -0.2948
 6910W        W22041   4.805   1.176  14.836 -0.1624  0.0449  0.0050
 6911W        W22042   6.765  14.457  13.195  0.1974  0.0634 -0.1430
 6912W        W22043   5.201   6.954  13.972 -0.0687 -0.0873  0.2051
 6913W        W22044   9.401   3.379   0.039  0.1667  0.0422  0.3638
 6914W        W22045   5.966   8.558   4.724 -0.0912  0.1951 -0.0121
 6915W        W22046   7.907   4.355   2.540 -0.1894  0.3377  0.2564
 6916W        W22047  16.041   6.373   1.324  0.3222 -0.1603  0.0731
 6917W        W22048   5.747  15.725   0.356 -0.4624 -0.2197 -0.1610
 6918W        W22049   1.655  10.052  12.885 -0.1571  0.0151 -0.1536
 6919W        W22050   5.908  11.885  11.245  0.0051 -0.1000  0.2654
 6920W        W22051  16.448  18.343  15.305  0.0665  0.5926  0.0560
 6921W        W22052  13.091   7.784   4.146 -0.1342 -0.0226 -0.0723
 6922W        W22053   8.365   0.224  13.130 -0.1894  0.2236  0.2797
 6923W        W22054   6.561   9.647   5.624 -0.1745 -0.3374 -0.1043
 6924W        W22055  15.634  17.118  16.037 -0.3897  0.3690  0.0939
 6925W        W22056  18.343  16.980  15.266  0.2517 -0.3144  0.2744
 6926W        W22057  10.970  10.585  14.920  0.1292  0.0605 -0.3295
 6927W        W22058  10.964  18.072  14.591  0.2103  0.0407  0.0443
 6928W        W22059   2.925  16.770  14.311 -0.0935  0.0437 -0.1562
 6929W        W22060  10.192   2.404  13.182  0.3425  0.1220  0.2050
 6930W        W22061  11.929  13.974  15.573  0.0399  0.1301 -0.3145
 6931W        W22062  14.054   7.342   4.450 -0.2307  0.2381 -0.0396
 6932W        W22063  13.471   6.588  14.539  0.0350  0.0741  0.0089
 6933W        W22064   4.300  12.327   1.435 -0.0259 -0.0775  0.0135
 6934W        W22065  10.917   4.564   1.714  0.0497  0.0939  0.4984
 6935W        W22066   2.865  16.683   1.982  0.1119 -0.1149 -0.0439
 6936W        W22067   9.311  16.995   2.723  0.3142 -0.0251 -0.1513
 6937W        W22068   0.021   7.107   1.820  0.0212  0.0322  0.0476
 6938W        W22069   0.481   0.652  13.580  0.3410  0.4200  0.2947
 6939W        W22070  16.168   9.082  12.349  0.0440 -0.0166  0.0377
 6940W        W22071  14.954   2.729  11.788 -0.2777 -0.3080  0.2197
 6941W        W22072   6.000  13.882  11.563 -0.1627  0.3022  0.1828
 6942W        W22073  17.005   6.179   1.807  0.0299  0.0796  0.0354
 6943W        W22074   8.933  15.746  14.128  0.2160 -0.1092  0.2088
 6944W        W22075  13.036   6.697   0.627 -0.2329 -0.3051 -0.2717
 6945W        W22076  14.949  15.661   4.044 -0.4519 -0.1777 -0.0852
 6946W        W22077  13.294  10.934  13.299 -0.3359  0.0580 -0.1549
 6947W        W22078   5.624   5.229  14.089 -0.2914 -0.0813  0.0472
 6948W        W22079   5.229   6.473  12.693  0.0710  0.2771 -0.2627
 6949W        W22080  11.892  14.518  15.573 -0.1108 -0.0356 -0.3230
 6950W        W22081   2.925   2.771   5.049 -0.2423 -0.0026 -0.1442
 6951W        W22082  16.803  12.859  14.691 -0.2800  0.1167 -0.1649
 6952W        W22083   0.586  16.762  10.158  0.0196 -0.0886 -0.0685
 6953W        W22084  15.157  14.008   5.346  0.3599  0.0237  0.0489
 6954W        W22085   5.595   6.044   1.427  0.1069 -0.1642  0.0768
 6955W        W22086   4.250  12.656   3.248 -0.0049  0.1432  0.2453
 6956W        W22087  16.842  13.328  15.404 -0.3207  0.2711 -0.0032
 6957W        W22088   4.536  15.267   5.200 -0.0852  0.1819 -0.1235
 6958W        W22089   0.176  17.221   3.043 -0.0736  0.1464  0.1927
 6959W        W22090   8.336  16.525   2.666 -0.0379  0.2837 -0.1165
 6960W        W22091   0.816   7.310   4.196  0.5080 -0.1163  0.2867
 6961W        W22092  15.753   6.279  15.262  0.0814 -0.1298  0.0284
 6962W        W22093  15.026  10.840   0.604  0.2516  0.1453 -0.0674
 6963W        W22094   1.792   9.506   1.912 -0.0791 -0.1631  0.2059
 6964W        W22095   9.823  15.077  11.416  0.1882 -0.0945  0.0789
 6965W        W22096   5.990  12.488   4.094 -0.1087  0.1666  0.0518
 6966W        W22097   8.295  15.336   1.532  0.0498  0.2147 -0.0206
 6967W        W22098  12.378   4.535  14.857  0.2169 -0.1089  0.2751
 6968W        W22099   3.882   8.672   4.603 -0.0727 -0.1387 -0.0256
 6969W        W22100  10.023   0.707  11.954 -0.1697  0.1311  0.1220
 6970W        W22101  14.135   8.843   5.079  0.1508 -0.0773 -0.2160
 6971W        W22102   3.217  11.911   3.600  0.0963 -0.3993 -0.0421
 6972W        W22103   8.265   7.399   6.778 -0.2805  0.0866 -0.0039
 6973W        W22104   2.222  17.474   3.870 -0.1843  0.3341 -0.0301
 6974W        W22105  16.597   4.197   4.291 -0.2260  0.0852 -0.2282
 6975W        W22106   8.761   5.927   2.646  0.2597 -0.0449 -0.1212
 6976W        W22107  12.454   2.725  15.661  0.1900 -0.0695 -0.0512
 6977W        W22108   8.375  16.117  12.252  0.2310 -0.0992  0.0250
 6978W        W22109  14.244  11.046   2.775 -0.4123  0.1385 -0.1361
 6979W        W22110   7.369  13.724  11.846  0.0071 -0.2267  0.1078
 6980W        W22111   0.152   6.822   4.465  0.0329 -0.0787 -0.0328
 6981W        W22112   1.034  14.107  14.340 -0.0293  0.0704 -0.1155
 6982W        W22113   8.659   1.186   4.275 -0.2808  0.0932  0.0405
 6983W        W22114   1.109  14.672  15.844  0.1252  0.2988  0.2389
 6984W        W22115  13.560  11.482  14.069  0.0681  0.0798  0.3878
 6985W        W22116  13.903   0.444   3.522 -0.1064 -0.2480 -0.0186
 6986W        W22117   8.822   0.867   3.061 -0.0248 -0.1759 -0.7165
 6987W        W22118   3.337   5.239   0.309 -0.2340  0.1035  0.3135
 6988W        W22119  11.474  10.406   5.551  0.0292 -0.1920 -0.2114
 6989W        W22120  16.470   8.102   2.575 -0.0519  0.0163  0.1431
 6990W        W22121   9.895  11.896  11.240 -0.2215 -0.0989  0.0026
 6991W        W22122   2.238  17.632  15.646  0.3677  0.3720 -0.0879
 6992W        W22123  12.141  12.590   4.678 -0.0757 -0.1527  0.4185
 6993W        W22124   3.719   6.088   2.620 -0.0945  0.3400 -0.1562
 6994W        W22125  10.765   5.928   5.712  0.2365  0.4392 -0.2020
 6995W        W22126   7.096   8.502   2.861  0.1529  0.0628 -0.0869
 6996W        W22127   5.789   8.569  13.649 -0.1361  0.0625  0.1162
 6997W        W22128   1.647   6.272  13.299  0.1211 -0.2965  0.0000
 6998W        W22129   1.023   9.339  12.833  0.1514 -0.2087 -0.0470
 6999W        W22130   1.141  12.002  11.797 -0.2672  0.0169 -0.1620
 7000W        W22131   2.743  13.702   1.156 -0.0668 -0.0778 -0.3769
 7001W        W22132  12.886   7.224  13.529  0.2847 -0.2262  0.0361
 7002W        W22133   1.785  15.658   3.882 -0.1601 -0.3410 -0.2095
 7003W        W22134  17.250   1.086   0.788  0.0221 -0.2731 -0.1406
 7004W        W22135  17.763  11.638  11.091 -0.2624 -0.4237  0.0246
 7005W        W22136   0.890  15.344  10.763  0.1035  0.4006 -0.1523
 7006W        W22137  10.449  16.009   5.239  0.0849  0.0068 -0.2655
 7007W        W22138   3.820  17.521  14.152 -0.3147  0.2900 -0.0796
 7008W        W22139  11.502  17.642   4.871 -0.3607 -0.0348 -0.3058
 7009W        W22140  15.899   4.681   1.276  0.1755  0.3173  0.2266
 7010W        W22141   1.652  15.829   0.602  0.3696  0.0336 -0.1954
 7011W        W22142  12.212  16.359   4.441  0.2297 -0.0645  0.1115
 7012W        W22143   5.288  10.835  11.468 -0.0073 -0.2298 -0.2374
 7013W        W22144  17.587  16.730   0.347 -0.1251 -0.4773 -0.2968
 7014W        W22145   6.290   5.466   4.959  0.1804  0.1359  0.0489
 7015W        W22146   0.066  12.575  13.364  0.0872 -0.1837  0.0647
 7016W        W22147  17.977   5.922  15.890  0.0597  0.0542  0.2048
 7017W        W22148   0.970   8.502   5.468  0.0441  0.0786  0.2687
 7018W        W22149  13.744  15.453  12.065  0.3340  0.0510  0.1596
 7019W        W22150   2.590  16.112   4.102 -0.0350 -0.0282 -0.1271
 7020W        W22151  10.616   7.217  14.379 -0.0741 -0.1002  0.1546
 7021W        W22152   8.222  11.219  14.103  0.1817  0.0370 -0.1040
 7022W        W22153  10.661   8.278  12.315  0.2443  0.1043 -0.0300
 7023W        W22154  16.237  13.000   1.192  0.0427 -0.2156  0.1729
 7024W        W22155  14.035   6.355   2.164 -0.1378 -0.0518 -0.2584
 7025W        W22156  14.729   3.244  12.629  0.3900 -0.0042 -0.1609
 7026W        W22157   1.510  12.294   1.715 -0.0522  0.1403  0.2201
 7027W        W22158  17.514   7.237  13.719 -0.1832 -0.0193 -0.0297
 7028W        W22159   7.436  14.452  11.530 -0.1992 -0.0667 -0.0580
 7029W        W22160   6.580  18.294   0.657  0.0335 -0.3411  0.4245
 7030W        W22161   7.819   8.184  11.033  0.0271  0.4022  0.0313
 7031W        W22162  15.151   1.071  14.657  0.1679  0.0983  0.0278
 7032W        W22163   1.263   0.583  14.165  0.2816  0.2442  0.3409
 7033W        W22164  16.737   0.847   0.776 -0.0624  0.1423  0.1527
 7034W        W22165   4.826  11.509   0.189 -0.0525  0.0279  0.0199
 7035W        W22166   6.930   0.458   3.732  0.1033  0.0205  0.3583
 7036W        W22167   0.725   9.487  14.754  0.1343 -0.3493 -0.1622
 7037W        W22168   1.761   2.515  11.120  0.0667  0.2142  0.0713
 7038W        W22169  14.321  14.301   4.832 -0.0374  0.1265 -0.0214
 7039W        W22170   9.426  11.859   1.705  0.3904 -0.0594  0.1695
 7040W        W22171  16.103  11.724   3.666 -0.0268 -0.0280 -0.1780
 7041W        W22172  11.884   2.188   3.414 -0.1744  0.2604 -0.1256
 7042W        W22173  14.287   1.684   4.790 -0.0868  0.3496 -0.0362
 7043W        W22174  14.172  13.612   3.210  0.0539 -0.1088  0.1561
 7044W        W22175  16.715   9.913  12.865 -0.1279 -0.3326  0.2239
 7045W        W22176   6.248   0.892   2.932 -0.0136  0.2943 -0.2769
 7046W        W22177   6.894   7.727  11.033 -0.2148  0.0563 -0.1717
 7047W        W22178   4.974   4.742  11.442  0.0805 -0.0671 -0.0341
 7048W        W22179  16.949  12.517  12.049 -0.1732  0.6263 -0.0933
 7049W        W22180  17.859   3.247   0.422 -0.0231  0.0589 -0.1394
 7050W        W22181  16.179   0.974  11.228  0.1524 -0.3062  0.1056
 7051W        W22182  18.357  14.284  16.016  0.0563  0.2614 -0.0960
 7052W        W22183  16.811   1.128   3.630 -0.0604 -0.0778 -0.5214
 7053W        W22184   2.689  15.215  11.204 -0.2916 -0.0357  0.0638
 7054W        W22185   5.046  12.497  10.841  0.2519 -0.2868  0.0170
 7055W        W22186  14.328   0.356   4.689 -0.1542  0.0663 -0.0924
 7056W        W22187   3.273   9.112  14.455  0.1886  0.1055  0.0446
 7057W        W22188  16.339  10.546  14.162  0.1682 -0.2281 -0.0396
 7058W        W22189   0.625   9.572   5.118 -0.1305  0.1566 -0.1695
 7059W        W22190   1.575   0.909  14.434  0.0622  0.1583 -0.0931
 7060W        W22191  16.254   2.514  14.450  0.2169  0.0068 -0.0354
 7061W        W22192  15.249   7.195  15.371  0.2869 -0.4372  0.1982
 7062W        W22193   9.815   4.920   6.193 -0.1082 -0.2543 -0.0438
 7063W        W22194  17.437   5.410   1.391  0.0548  0.0683 -0.0093
 7064W        W22195  18.292  17.220   1.225  0.1741 -0.1025 -0.1671
 7065W        W22196  17.516  17.952   0.702 -0.1636  0.0980 -0.1431
 7066W        W22197   5.479  17.073   2.189 -0.1439 -0.0593 -0.1830
 7067W        W22198   9.964   7.482   4.621  0.0960 -0.0604 -0.2841
 7068W        W22199   5.454   8.013  11.361 -0.0303 -0.2544 -0.3761
 7069W        W22200  16.834   1.754   2.901 -0.1585  0.3273 -0.0631
 7070W        W22201   4.299   2.779   4.622  0.2794  0.0833 -0.0307
 7071W        W22202   8.030   5.291  14.113 -0.0389  0.2549  0.1144
 7072W        W22203   1.295  14.750   3.973 -0.0162 -0.1703  0.1415
 7073W        W22204   5.159   9.924  13.867 -0.0782 -0.0256  0.1798
 7074W        W22205   3.846   1.077  11.762 -0.0670 -0.0836 -0.1071
 7075W        W22206  14.100   0.514   0.440  0.2207 -0.2648 -0.0512
 7076W        W22207  15.564  10.211  13.405  0.0809  0.1806  0.0607
 7077W        W22208   9.779  15.613   4.118  0.2453  0.2564 -0.1568
 7078W        W22209   4.490  16.135  14.232  0.0825  0.0768 -0.0237
 7079W        W22210   9.012   3.186   3.874 -0.0103 -0.1128  0.1636
 7080W        W22211  11.961  17.781  13.088 -0.1693 -0.2062  0.0970
 7081W        W22212   9.795  17.323   3.206  0.3455  0.0165  0.1501
 7082W        W22213   4.480  14.547  12.356 -0.1554 -0.1866 -0.4767
 7083W        W22214  14.229   6.826   4.457  0.2534  0.3478 -0.3836
 7084W        W22215   7.950   3.274   0.481 -0.2496  0.2855  0.1800
 7085W        W22216   0.241   2.035   3.008  0.0644  0.1147  0.1653
 7086W        W22217   1.212  18.272  15.006  0.1090 -0.2479  0.3107
 7087W        W22218   8.909  10.721   3.251 -0.0994 -0.2806 -0.1095
 7088W        W22219   7.545  12.113  15.853  0.1737 -0.2332  0.4129
 7089W        W22220   7.303  17.330  13.727  0.0447  0.0344 -0.2615
 7090W        W22221   0.215  13.909  14.961 -0.3570 -0.2192  0.3332
 7091W        W22222  14.575   0.315   1.198 -0.0415  0.1134 -0.2472
 7092W        W22223   9.148  10.934   3.711  0.0006 -0.0760 -0.0862
 7093W        W22224   5.854   3.513  11.760  0.0482  0.2629  0.2046
 7094W        W22225   7.814  13.823   4.743 -0.1203  0.1038  0.5500
 7095W        W22226   1.675  16.222   2.229 -0.3400 -0.0340 -0.2133
 7096W        W22227   6.225   6.420  14.764 -0.1991 -0.1737  0.0616
 7097W        W22228   5.696  13.305   5.228 -0.0638  0.0461  0.0874
 7098W        W22229   7.357   0.275  13.302  0.0118 -0.1407  0.0081
 7099W        W22230   4.779   3.290   0.030  0.0968  0.0608 -0.2562
 7100W        W22231   7.647  15.374  14.641  0.0105 -0.2426 -0.1850
 7101W        W22232   6.891  17.252   1.424  0.1603  0.1573  0.0751
 7102W        W22233  17.652   6.167  13.957 -0.2044  0.3657 -0.0850
 7103W        W22234  15.015  16.966  12.250 -0.1386  0.3014 -0.2321
 7104W        W22235  11.109  14.974   0.624  0.1441 -0.0720 -0.0368
 7105W        W22236  13.921  17.871   2.028 -0.0698 -0.0267 -0.1075
 7106W        W22237   8.220  10.328  12.862 -0.0580  0.1831 -0.3132
 7107W        W22238  10.090  11.951  15.264 -0.0450 -0.3111  0.1245
 7108W        W22239   6.893   3.201   1.468 -0.0917  0.1902  0.0117
 7109W        W22240   0.549   3.033   0.497  0.1829 -0.4013 -0.3127
 7110W        W22241   2.943   9.231  15.537 -0.0564 -0.4474  0.0932
 7111W        W22242   3.102  17.461   2.840  0.0348 -0.2899 -0.0827
 7112W        W22243   7.092  15.030  11.401 -0.0440  0.0353  0.1551
 7113W        W22244   1.700   8.340   1.610  0.2474  0.0390  0.3940
 7114W        W22245   8.049  11.447   5.260 -0.1449  0.2350  0.0318
 7115W        W22246  17.604   1.512  15.778  0.1425 -0.3272 -0.0776
 7116W        W22247   1.050  17.399   4.701  0.0247  0.0209 -0.2888
 7117W        W22248  14.204   2.818   1.953  0.0166  0.0755  0.1168
 7118W        W22249   9.930  17.439  12.409  0.1112  0.0785 -0.2924
 7119W        W22250   1.245   5.059   3.777 -0.1567 -0.3387 -0.1447
 7120W        W22251   9.190  14.284  10.750 -0.1094  0.3266 -0.1504
 7121W        W22252   8.742   8.470  13.940 -0.2119 -0.4597  0.1187
 7122W        W22253   9.693  16.219  11.913 -0.4639 -0.3928  0.0147
 7123W        W22254  14.075   0.009   9.678  0.1425 -0.0849  0.0637
 7124W        W22255   8.605  16.723   2.248  0.1608  0.2110 -0.1913
 7125W        W22256  13.963   1.263  15.387 -0.0781 -0.0105 -0.1966
 7126W        W22257  10.953  10.290   3.098  0.1298 -0.0241 -0.3065
 7127W        W22258  17.694  13.162   2.710 -0.0768  0.0625 -0.3926
 7128W        W22259  18.068   7.798  16.067 -0.0476 -0.3260  0.3316
 7129W        W22260   8.596  11.303  12.908  0.0099  0.3203  0.0828
 7130W        W22261   3.776   6.316   1.548  0.4000 -0.1759  0.1289
 7131W        W22262   3.730   3.727   1.429 -0.0865  0.1652  0.3590
 7132W        W22263   0.094   0.763   4.182 -0.3682 -0.0034 -0.1710
 7133W        W22264  11.580  18.457   1.983 -0.0987 -0.0420 -0.0467
 7134W        W22265   2.975   0.463  13.053 -0.1669 -0.0103  0.0396
 7135W        W22266  10.686  10.290  15.695  0.2209 -0.0322  0.0249
 7136W        W22267  12.655   3.465   0.723 -0.1243  0.2689 -0.1225
 7137W        W22268  18.126   3.467  11.091  0.0026  0.1972  0.0556
 7138W        W22269   7.586   8.683   6.197  0.2871 -0.0877  0.3597
 7139W        W22270  13.472   3.272  12.189  0.0054 -0.0709  0.0354
 7140W        W22271  14.350  12.655  13.923 -0.1359 -0.0697 -0.0091
 7141W        W22272  18.150   8.791   3.099 -0.4901  0.3916 -0.2266
 7142W        W22273   4.011   9.844   5.279  0.2499  0.2665 -0.0675
 7143W        W22274  10.978   9.609   4.253  0.3307 -0.2125 -0.1745
 7144W        W22275   0.184  14.195   3.880 -0.0342 -0.2051 -0.2031
 7145W        W22276  12.638  13.078  14.074  0.0763 -0.2512 -0.3058
 7146W        W22277   0.771   2.622  14.681 -0.1781 -0.1358  0.3264
 7147W        W22278  17.052   9.322   2.169 -0.1223 -0.2693 -0.4184
 7148W        W22279   1.305   8.329   5.090 -0.0760 -0.1025  0.1185
 7149W        W22280  13.874   7.155  10.500  0.0307  0.1820  0.0843
 7150W        W22281   6.510   0.444   0.819 -0.2546  0.1568  0.0778
 7151W        W22282   2.258  14.986  10.442 -0.0689 -0.1662  0.2506
 7152W        W22283   8.893   3.693   5.047  0.3075 -0.1610  0.1986
 7153W        W22284   9.091  16.452   1.489 -0.1255  0.0447 -0.3641
 7154W        W22285  13.942   9.487  14.038  0.0381  0.1919 -0.1704
 7155W        W22286  10.980   9.218   1.003 -0.3089 -0.1308  0.0906
 7156W        W22287  15.818   5.534  13.676 -0.2361  0.0243 -0.1821
 7157W        W22288  15.964  15.423  12.233 -0.0859 -0.3368  0.2905
 7158W        W22289  11.334   7.372   5.988  0.2633 -0.3694  0.0372
 7159W        W22290  12.488   8.382  13.976 -0.0185  0.0841 -0.2887
 7160W        W22291  13.483   0.046   0.905 -0.4273 -0.1688 -0.2890
 7161W        W22292   8.574  15.255   0.769  0.0961 -0.3089  0.0538
 7162W        W22293   0.825  18.431   3.451 -0.1234  0.0075 -0.1256
 7163W        W22294   4.466   1.435  14.181 -0.0315  0.2495  0.3156
 7164W        W22295   0.817   1.958  14.719  0.0744  0.2257 -0.0965
 7165W        W22296  14.101   4.735   5.376 -0.1268  0.0795 -0.0958
 7166W        W22297   4.652   2.292   2.313 -0.2798  0.0044  0.0618
 7167W        W22298   7.534   3.783  13.278 -0.2479 -0.2618  0.0883
 7168W        W22299   8.709  11.893  11.205  0.0876 -0.0201  0.2131
 7169W        W22300  17.385   4.269   0.381  0.0695  0.0806  0.2492
 7170W        W22301   5.635  13.013  11.437  0.0142 -0.3406  0.0343
 7171W        W22302   3.776   4.548   1.640 -0.1246 -0.2501  0.2926
 7172W        W22303   3.947  15.925  14.058  0.2269  0.4289  0.2762
 7173W        W22304   2.906   9.837   4.798 -0.2108  0.0784 -0.0523
 7174W        W22305   9.499  13.112   1.005 -0.1637  0.3158 -0.1766
 7175W        W22306  16.466   5.870  12.550  0.3421  0.1162  0.1065
 7176W        W22307  12.697   9.897  12.542  0.0166  0.1423  0.1161
 7177W        W22308   7.770   4.756   5.750  0.1533  0.0927  0.1010
 7178W        W22309   0.222   5.092   0.518  0.1788  0.1231  0.1617
 7179W        W22310  14.674  13.631   3.042  0.0016 -0.1029 -0.1174
 7180W        W22311   7.492   7.017  14.737  0.0859 -0.1089 -0.1681
 7181W        W22312  14.494   3.642   0.773 -0.0274 -0.0628  0.0534
 7182W        W22313  16.382  17.098  12.084  0.4211 -0.0579 -0.0565
 7183W        W22314   2.862   3.522  10.240 -0.2902  0.0223 -0.0015
 7184W        W22315  13.255  13.006  13.313 -0.3126  0.0037  0.2406
 7185W        W22316  11.374   6.145  11.099  0.0836 -0.2887  0.2563
 7186W        W22317  11.407  14.579  16.030  0.1763 -0.0659 -0.2207
 7187W        W22318  12.001  15.791   4.128 -0.1687 -0.1507 -0.0968
 7188W        W22319   4.665  14.511   5.425 -0.0290  0.1533  0.2859
 7189W        W22320   9.969  10.150  12.782 -0.1546  0.1322 -0.0159
 7190W        W22321  16.922  18.300   3.264 -0.5625  0.2786  0.3241
 7191W        W22322  17.827   9.883   1.125 -0.1568  0.0699 -0.2573
 7192W        W22323   2.040  18.214  11.938 -0.1395 -0.0401 -0.1718
 7193W        W22324  18.158   5.380  10.757 -0.0244 -0.2536  0.0417
 7194W        W22325   3.110   8.528  13.327 -0.0557  0.0271  0.0045
 7195W        W22326  10.483  10.121   2.590 -0.4955  0.2408 -0.0415
 7196W        W22327  12.882   4.893   5.316 -0.0000  0.1420 -0.2304
 7197W        W22328   5.988  17.187   2.433  0.3057 -0.2436 -0.1486
 7198W        W22329  12.269  17.821  14.129 -0.2850  0.0641  0.0647
 7199W        W22330  13.314  17.260   1.409 -0.1825 -0.2293  0.2939
 7200W        W22331  14.798   1.408  15.553 -0.0300 -0.1362 -0.0513
 7201W        W22332  13.192  13.865   1.696  0.3798 -0.0042  0.5586
 7202W        W22333  15.346   0.872   0.782  0.0625  0.2130 -0.1442
 7203W        W22334   4.684   5.661  15.356 -0.1302 -0.2510  0.1672
 7204W        W22335  10.137   7.330   2.704 -0.2086 -0.2464 -0.2487
 7205W        W22336  18.256  13.952  12.220 -0.1514  0.4047  0.2093
 7206W        W22337   3.199   6.148  13.644 -0.1556  0.2444  0.0085
 7207W        W22338  13.842   2.028  13.524 -0.4590 -0.0106 -0.1498
 7208W        W22339   0.749   6.049  15.647 -0.0609 -0.3724  0.2078
 7209W        W22340   9.343  11.999  13.090  0.1343  0.0327 -0.1227
 7210W        W22341   7.765  13.650   1.696 -0.1994 -0.0073  0.3953
 7211W        W22342  12.636  14.534   4.436 -0.1226  0.1732  0.2446
 7212W        W22343   4.727  12.663   1.691 -0.0438  0.4259 -0.0483
 7213W        W22344  10.707   8.222   3.106  0.1918  0.3141  0.0369
 7214W        W22345  13.490  16.155   2.064  0.0867  0.3494 -0.0486
 7215W        W22346  13.883   9.956   1.363 -0.1015 -0.2549  0.2863
 7216W        W22347   3.087   1.448  12.515  0.0811 -0.3576 -0.0925
 7217W        W22348   4.598   0.138  14.210  0.0209  0.1096 -0.1262
 7218W        W22349   0.914   6.305  15.111  0.1868 -0.0543 -0.0139
 7219W        W22350   9.412  17.241  14.600  0.0282 -0.3245 -0.3480
 7220W        W22351   4.225  14.492   0.358  0.0411 -0.0513 -0.2064
 7221W        W22352  17.258   0.530  13.432 -0.0362 -0.0925 -0.0218
 7222W        W22353  17.974   4.161  15.108 -0.1745  0.5131  0.5099
 7223W        W22354  10.271   1.441  14.980 -0.2946 -0.3386 -0.0324
 7224W        W22355  17.145   5.604  15.615 -0.1895  0.2280 -0.1604
 7225W        W22356   7.080  12.978   2.056 -0.3275  0.1220 -0.2293
 7226W        W22357  13.717  17.550   1.708 -0.2451 -0.1030 -0.3418
 7227W        W22358  15.356   7.583   4.201 -0.0648  0.3184 -0.1366
 7228W        W22359  13.694   4.101   6.477  0.3518  0.0294 -0.2352
 7229W        W22360  11.154   0.173   0.536  0.1039  0.2300 -0.1782
 7230W        W22361  10.752  10.039   0.416 -0.5520 -0.1540  0.3949
 7231W        W22362   1.446   4.716   1.076  0.0525 -0.0651 -0.0795
 7232W        W22363   9.312   7.571  11.569  0.0447  0.2128  0.2553
 7233W        W22364  11.402   1.456  14.114  0.0469 -0.1589  0.0265
 7234W        W22365  17.891   9.712  12.668 -0.0255 -0.2099 -0.1618
 7235W        W22366   0.463   6.153  13.860  0.1273 -0.1341  0.2030
 7236W        W22367   7.931  11.160   5.636  0.2776  0.2282 -0.3854
 7237W        W22368  13.493   1.212   4.006  0.0082  0.2465 -0.1038
 7238W        W22369   8.810  11.511  12.021 -0.1411 -0.1857  0.3993
 7239W        W22370  13.707   2.003   1.743 -0.0557 -0.2514 -0.1237
 7240W        W22371   4.672   8.124   2.136 -0.3462  0.0188  0.0195
 7241W        W22372  16.843  12.690   4.104  0.0114 -0.1517  0.0194
 7242W        W22373   3.958  12.239   3.106 -0.1259 -0.0135  0.0671
 7243W        W22374   9.491  11.519   1.205 -0.1111  0.3278  0.0939
 7244W        W22375  11.746   9.063  13.996  0.0313 -0.3016 -0.0496
 7245W        W22376  15.193   6.569   6.072  0.0420 -0.3370 -0.0922
 7246W        W22377   7.942   2.777  14.639 -0.0284  0.2057  0.2370
 7247W        W22378  11.691  10.348  15.312  0.1377 -0.1463  0.1812
 7248W        W22379   5.779   9.281  12.302 -0.2494 -0.0426  0.0446
 7249W        W22380   2.393  13.584  14.965  0.0007 -0.1811 -0.3378
 7250W        W22381  13.501   5.748  14.279  0.0095 -0.0586 -0.1219
 7251W        W22382  18.001   4.208   4.948  0.4620 -0.1583  0.1264
 7252W        W22383  16.409  13.079  14.421  0.1977 -0.1775 -0.0640
 7253W        W22384   7.093  16.180   3.475 -0.4117 -0.3518  0.1745
 7254W        W22385   9.823   8.442  15.037  0.0308  0.2837 -0.0114
 7255W        W22386   0.727   9.339  13.251 -0.3932  0.2667 -0.0250
 7256W        W22387  15.351  15.499  12.829 -0.1774 -0.0453  0.2231
 7257W        W22388   7.908   8.405   3.020 -0.2938  0.1944  0.1591
 7258W        W22389   1.169  12.072  13.113  0.3082  0.2182  0.2107
 7259W        W22390  14.634  15.951   3.796 -0.0573  0.2549 -0.2024
 7260W        W22391  17.464  12.986   4.326 -0.1154 -0.1438  0.3168
 7261W        W22392   0.988  10.740   5.882 -0.0395  0.2301  0.1665
 7262W        W22393  11.373  11.897   4.403 -0.2612  0.2246 -0.0403
 7263W        W22394  12.741   5.355   4.630 -0.0699  0.1893  0.0339
 7264W        W22395  14.461   2.509   0.378  0.0827  0.1196 -0.1398
 7265W        W22396  18.236  16.649  15.874 -0.2095  0.1204 -0.1762
 7266W        W22397  14.077  14.221   3.359 -0.2995 -0.0819  0.1350
 7267W        W22398  11.229   5.695  14.731  0.4087  0.3198  0.0939
 7268W        W22399   5.199  13.695  13.943  0.0047 -0.2120 -0.2249
 7269W        W22400   3.887   2.790   4.931 -0.3724 -0.0790 -0.1393
 7270W        W22401  15.159   0.666  15.058  0.0054  0.2626 -0.3620
 7271W        W22402  11.992   4.690  14.057  0.2967  0.1021 -0.0762
 7272W        W22403  15.826   1.757   1.996 -0.1140 -0.3037 -0.0700
 7273W        W22404  11.374   1.367  12.423  0.1543 -0.1414 -0.0816
 7274W        W22405   6.839   7.340   4.933  0.1182 -0.3457  0.5026
 7275W        W22406   3.194  14.606  13.034 -0.0567  0.0598 -0.0796
 7276W        W22407  14.494   6.692   0.781 -0.0478 -0.0868  0.2566
 7277W        W22408  17.145  15.443  15.108 -0.0707  0.1237  0.0309
 7278W        W22409   7.008  10.178   2.022  0.1855  0.3478 -0.1648
 7279W        W22410  10.525  16.771   9.829 -0.0956  0.0533  0.0022
 7280W        W22411   5.180  16.729   0.754  0.2778 -0.0070 -0.0897
 7281W        W22412  14.494   6.059  12.598  0.0906  0.1839  0.1350
 7282W        W22413   6.351  11.265  15.184  0.0392 -0.1821 -0.2800
 7283W        W22414   4.855  12.137   1.555 -0.1565  0.1936 -0.1168
 7284W        W22415  14.077  15.393  13.048 -0.2765  0.1996  0.0282
 7285W        W22416  11.377   6.180   1.219  0.0503 -0.1841 -0.0021
 7286W        W22417   8.228  14.644   2.202  0.0660 -0.0527  0.1021
 7287W        W22418  15.179  17.292  13.887  0.2271  0.0030  0.2823
 7288W        W22419   5.427  11.026  14.941 -0.0457 -0.3265 -0.3157
 7289W        W22420   6.801   5.777  11.298 -0.0858  0.0425  0.3102
 7290W        W22421  18.229   4.201  14.344  0.0639  0.1477  0.0052
 7291W        W22422   8.827  10.489   2.806  0.0810 -0.0356  0.1328
 7292W        W22423   8.265   0.346  10.665 -0.3191 -0.1194  0.1417
 7293W        W22424   3.994  17.856   2.038  0.0725 -0.3356  0.0183
 7294W        W22425  17.730   6.554  12.720 -0.2922  0.0664  0.1074
 7295W        W22426  17.756   9.830   4.718  0.1220  0.1892 -0.1616
 7296W        W22427  17.655   1.975   4.474 -0.4269 -0.2434 -0.0217
 7297W        W22428   0.969   0.854  13.307  0.3077  0.0847 -0.0042
 7298W        W22429   1.647   3.596   1.533  0.3386 -0.3352 -0.1768
 7299W        W22430  11.888  11.550  15.972 -0.2137 -0.1126  0.2357
 7300W        W22431  12.375  11.416   1.713  0.1305  0.2504  0.3434
 7301W        W22432  10.292  16.987   2.069 -0.0826  0.2607 -0.1253
 7302W        W22433  13.444  10.439  10.245  0.0909 -0.0489 -0.1773
 7303W        W22434  15.201  18.390  11.532 -0.0280 -0.0963 -0.1311
 7304W        W22435   9.884   5.428  16.077 -0.5189  0.1760 -0.1258
 7305W        W22436  10.084   5.935   1.971  0.1477  0.3240 -0.0323
 7306W        W22437   0.821   0.357  14.241 -0.0765  0.2024 -0.0716
 7307W        W22438   0.268  15.999  13.092  0.0975 -0.2745  0.0940
 7308W        W22439  18.210  17.552  14.915 -0.0045  0.0366  0.3143
 7309W        W22440  12.231  11.959  14.054  0.1757  0.1104 -0.1887
 7310W        W22441  10.172   1.228  15.460  0.2072 -0.0456  0.1350
 7311W        W22442   5.195  17.030   2.854 -0.0907  0.0075  0.0845
 7312W        W22443  17.775  17.505   0.909  0.0558 -0.0797 -0.0187
 7313W        W22444  16.702   1.177  14.456 -0.2746  0.1309  0.0399
 7314W        W22445   1.149   2.335  15.191 -0.2856 -0.3921  0.5014
 7315W        W22446  10.115   7.679  13.495 -0.1924  0.1136 -0.0830
 7316W        W22447  15.976  11.804  15.170 -0.4483 -0.1320 -0.0142
 7317W        W22448  17.317  13.823   4.701 -0.1168 -0.0410  0.0103
 7318W        W22449  18.466  16.949  12.807  0.0377  0.1028  0.0571
 7319W        W22450   6.734  12.632  16.098  0.0120 -0.1743  0.0301
 7320W        W22451  17.569   1.712  12.753 -0.1649 -0.1032 -0.0780
 7321W        W22452   2.156  17.440   3.358 -0.0969 -0.3410  0.2124
 7322W        W22453   3.258   0.348  15.818  0.0108  0.0847 -0.0136
 7323W        W22454   8.674  13.220  13.618  0.1902 -0.5121  0.0775
 7324W        W22455   1.358   9.547   1.655  0.1008 -0.0685  0.2754
 7325W        W22456  13.863   4.693   1.798  0.3151  0.0326  0.1283
 7326W        W22457  15.969   3.215   1.288  0.0278  0.1444  0.1811
 7327W        W22458  13.752   1.847  14.110  0.0177  0.0152  0.3232
 7328W        W22459   3.853  13.759  14.027 -0.0147 -0.2447  0.1775
 7329W        W22460  15.349   3.639   4.956  0.1157  0.1585  0.0243
 7330W        W22461   2.873   8.897   0.233  0.2956 -0.1633  0.3135
 7331W        W22462   7.036   2.997   0.723 -0.0040  0.1512 -0.0372
 7332W        W22463  16.506  10.950  15.864  0.0631  0.3345  0.1434
 7333W        W22464   4.972   9.509  14.092  0.3986  0.4506  0.0445
 7334W        W22465   8.777   1.168  15.449  0.0792  0.0185 -0.1185
 7335W        W22466  16.675  16.028  10.072  0.0218  0.2174 -0.2014
 7336W        W22467  15.908  18.273  13.585 -0.1146 -0.0238 -0.1684
 7337W        W22468   2.306  10.408  13.459  0.0639 -0.3988  0.2859
 7338W        W22469   7.022   9.137   3.912 -0.1217 -0.0291 -0.0380
 7339W        W22470  15.949   9.434  13.023  0.1537  0.3465 -0.1750
 7340W        W22471   7.799  10.927  13.598  0.0464 -0.2076  0.3175
 7341W        W22472   6.168   1.609   5.400 -0.3389 -0.2842  0.0570
 7342W        W22473   6.364  13.423   1.989  0.4145 -0.0700 -0.4877
 7343W        W22474   8.114  11.007   0.519 -0.2652  0.2980  0.2284
 7344W        W22475   3.006  10.371   4.943  0.2874  0.1623 -0.2568
 7345W        W22476   8.640  13.371  14.918 -0.3730 -0.6467 -0.1439
 7346W        W22477   6.113  16.411  13.238  0.0418  0.0642 -0.3581
 7347W        W22478   1.545  11.201   2.738  0.2474  0.0324  0.1894
 7348W        W22479  13.435   6.216  15.806  0.0630  0.0271 -0.1369
 7349W        W22480   4.032  17.163  13.290  0.2137 -0.1275  0.1657
 7350W        W22481   6.775  11.791  12.897  0.0407 -0.1104 -0.2841
 7351W        W22482   6.543  12.225   5.244  0.1972 -0.0336  0.1361
 7352W        W22483  12.456   6.137   5.268  0.2579  0.0342 -0.0595
 7353W        W22484   8.591  14.398  12.021 -0.3309 -0.1583 -0.0386
 7354W        W22485   6.661   2.418   4.841 -0.1333  0.0528 -0.1699
 7355W        W22486   2.837   6.528  12.324 -0.1730  0.2835 -0.1617
 7356W        W22487   7.204  17.202  15.470 -0.2221  0.2359  0.2821
 7357W        W22488  17.654  11.132   4.398  0.1258 -0.2839 -0.2655
 7358W        W22489  12.773   2.586   1.318 -0.0662  0.1007  0.3973
 7359W        W22490  15.261  13.280  12.766 -0.0498  0.0396 -0.1220
 7360W        W22491   5.698  17.694  11.238  0.0003  0.1679 -0.2351
 7361W        W22492  12.230  18.185  14.497 -0.1996 -0.2348  0.1647
 7362W        W22493  14.312  17.640   5.287 -0.1155 -0.3367  0.2102
 7363W        W22494   7.452   1.434  13.003 -0.0916  0.1738 -0.1104
 7364W        W22495   7.891  14.659  13.967 -0.0484 -0.1701  0.1871
 7365W        W22496   0.952   0.162  16.098 -0.1567  0.3253 -0.0509
 7366W        W22497   2.872  11.367   0.781  0.4119  0.6301  0.1750
 7367W        W22498  17.670  16.069  15.047  0.2549  0.1962  0.0997
 7368W        W22499  10.795   9.338  14.882  0.1953  0.5480 -0.0524
 7369W        W22500   5.029   7.290   2.584  0.4777  0.0955  0.1171
 7370W        W22501  15.544  10.839   1.159  0.0024 -0.3490 -0.1107
 7371W        W22502   7.363   8.504   3.757  0.1038 -0.2043  0.2063
 7372W        W22503   8.971   5.700  16.066  0.0776 -0.0006 -0.0724
 7373W        W22504   3.303  14.166  14.077  0.1677 -0.1118 -0.2683
 7374W        W22505  14.780   9.236   3.504 -0.2790  0.1305 -0.3732
 7375W        W22506   9.849  11.808   0.020  0.2180  0.2510 -0.0339
 7376W        W22507   4.841   0.905  13.729 -0.0721  0.1979 -0.1181
 7377W        W22508   9.961  14.367  15.551  0.3451  0.0555  0.2070
 7378W        W22509  12.285   6.484   0.754  0.1114 -0.2384  0.0247
 7379W        W22510   4.575   6.065   6.444 -0.2469  0.1250  0.0722
 7380W        W22511   3.149   3.697   3.734 -0.2343 -0.0736  0.0277
 7381W        W22512  13.211  10.623   1.015 -0.2752  0.1914  0.2030
 7382W        W22513   4.673  11.721  13.761 -0.0520 -0.3168  0.1383
 7383W        W22514  17.224  16.130  12.637  0.1609 -0.2024 -0.2962
 7384W        W22515  13.778   9.122   5.956 -0.2450  0.2305 -0.1082
 7385W        W22516  12.774   6.274   0.471  0.1125  0.2424 -0.3115
 7386W        W22517   2.438  16.181  10.209 -0.0862 -0.0295  0.3943
 7387W        W22518  15.041  10.237   0.845  0.1917 -0.0201 -0.1015
 7388W        W22519   3.020   3.787   2.058  0.0487  0.1732 -0.0696
 7389W        W22520   3.300   3.394  10.546 -0.1287 -0.0621  0.2722
 7390W        W22521   3.146   4.190   3.877 -0.1419  0.1955  0.1500
 7391W        W22522  10.266  11.370   0.806 -0.1152 -0.2093  0.1832
 7392W        W22523  10.197  12.909   0.672  0.1127 -0.2457  0.2223
 7393W        W22524  13.410  12.077   4.208  0.1492  0.2832 -0.2677
 7394W        W22525   5.673   3.353  13.342 -0.2209  0.0114 -0.1510
 7395W        W22526  15.230   9.551   3.457 -0.1166 -0.1816  0.0585
 7396W        W22527   6.014   0.725   5.433  0.0373 -0.1349 -0.2664
 7397W        W22528  10.244   5.336   4.014  0.0231  0.2554 -0.1609
 7398W        W22529  10.940  15.013   1.565  0.1502 -0.0772 -0.3631
 7399W        W22530  11.953  12.765  13.451  0.2002  0.1442  0.3026
 7400W        W22531   0.880  13.917   2.261  0.2013 -0.0269 -0.2107
 7401W        W22532   7.925   0.164  13.899  0.1022 -0.0220  0.0437
 7402W        W22533   3.927  10.071  13.229 -0.3218  0.0484  0.1133
 7403W        W22534   4.447   3.921  15.358 -0.0498 -0.1161 -0.1385
 7404W        W22535  18.345  11.247  12.868 -0.0761 -0.0126  0.1937
 7405W        W22536  13.267   0.751   2.011  0.2235 -0.1183 -0.1418
 7406W        W22537  15.630  12.209   5.178  0.0914  0.3055  0.2408
 7407W        W22538  10.171   3.469  13.753 -0.1003  0.0356 -0.2227
 7408W        W22539   3.526   8.441   4.814  0.0581  0.2079 -0.0261
 7409W        W22540  11.839   8.244  14.299  0.1458  0.2963  0.1182
 7410W        W22541   3.126  12.161  14.788  0.2318 -0.0913 -0.0540
 7411W        W22542  11.497  10.323  13.595  0.3984  0.1384 -0.2956
 7412W        W22543  16.457  14.257   3.700 -0.0903  0.2293  0.2302
 7413W        W22544  10.706  18.413   3.289 -0.0956 -0.2475  0.3076
 7414W        W22545   1.060   9.051   3.823  0.1494 -0.0077  0.0512
 7415W        W22546  12.260  16.806  10.284  0.0889 -0.2406 -0.0726
 7416W        W22547   4.117   3.790   0.295  0.0452 -0.0429  0.0622
 7417W        W22548   3.430   4.390  14.115 -0.0595 -0.4474  0.1792
 7418W        W22549   2.250   8.255  11.470 -0.1106 -0.2750  0.0390
 7419W        W22550  12.183  12.281   0.679 -0.0568  0.0610  0.1970
 7420W        W22551  17.600  13.782   2.022  0.0320  0.0638  0.4810
 7421W        W22552  16.014   8.429   2.196 -0.2399  0.2574 -0.0414
 7422W        W22553  17.890  15.817  13.054  0.1061  0.2102 -0.0566
 7423W        W22554   1.662  14.146   5.096 -0.1293  0.1642  0.1866
 7424W        W22555   9.841   9.718  15.458 -0.0369 -0.0257 -0.0572
 7425W        W22556   8.540  17.587  13.327  0.0057 -0.1628  0.1165
 7426W        W22557   1.824   4.953   3.823  0.3215 -0.0371  0.0833
 7427W        W22558   4.815  14.875  15.119 -0.0736 -0.2071 -0.0447
 7428W        W22559  13.141  16.778   4.394  0.0377 -0.0414 -0.0667
 7429W        W22560  16.507   5.443   2.180  0.2061 -0.2928  0.2666
 7430W        W22561   4.974   3.390  10.818  0.1239  0.3525  0.2473
 7431W        W22562   2.535   4.136  12.999  0.2367  0.0963  0.2152
 7432W        W22563   4.809  10.094   0.725 -0.0968  0.1551 -0.2003
 7433W        W22564  16.506  13.122  12.275 -0.0172  0.0171 -0.3301
 7434W        W22565   6.142   5.447  13.034  0.0490  0.1496 -0.1198
 7435W        W22566  11.079   7.969   2.346  0.2527 -0.0789 -0.1737
 7436W        W22567   2.517   3.836  15.920 -0.0020 -0.0177 -0.2034
 7437W        W22568  16.437   7.847  13.958 -0.1470 -0.0481  0.1770
 7438W        W22569  10.526  13.567  14.108  0.1482  0.1613 -0.2688
 7439W        W22570  17.139   6.723  14.978  0.0946 -0.4311 -0.0011
 7440W        W22571   8.622   1.058  14.009 -0.0416  0.0394 -0.1726
 7441W        W22572  16.002   0.188  13.305  0.0684 -0.1565 -0.0683
 7442W        W22573  14.925   1.679   1.156 -0.3325  0.1574 -0.3342
 7443W        W22574  11.422  14.410  15.558 -0.1885 -0.0104 -0.2322
 7444W        W22575  12.748   6.231  12.831 -0.1701 -0.3978  0.1937
 7445W        W22576   3.606   7.509   6.378  0.0767  0.0232 -0.2112
 7446W        W22577   5.989  13.991  15.096 -0.0384 -0.1287  0.1167
 7447W        W22578  13.995   8.939  15.009 -0.0823  0.1227 -0.0671
 7448W        W22579  11.575   4.078   4.739 -0.1012 -0.0788 -0.2529
 7449W        W22580   8.394   2.335  12.914  0.2541  0.1191 -0.2098
 7450W        W22581   4.088   1.458  14.872  0.1550 -0.1958  0.0178
 7451W        W22582   8.614   1.514   1.548 -0.0282  0.0784 -0.0330
 7452W        W22583  15.925   5.761   2.703 -0.2405  0.1578  0.1909
 7453W        W22584   2.338  15.903   1.172  0.0440  0.0850 -0.2838
 7454W        W22585  13.488   6.203   1.249  0.0236  0.2395 -0.3627
 7455W        W22586  10.680   0.169   0.793 -0.1383 -0.0778 -0.4183
 7456W        W22587   5.338  18.286  14.617  0.1113  0.0529 -0.0509
 7457W        W22588   1.085   8.738   0.895  0.3515  0.2107  0.1392
 7458W        W22589  18.359   6.888  11.930  0.2070 -0.3343  0.0658
 7459W        W22590   7.754  14.843   1.039 -0.2932 -0.1677 -0.0455
 7460W        W22591   8.781  17.216   1.445 -0.2672 -0.1106  0.1321
 7461W        W22592   9.188   1.555   3.480  0.1484  0.1523 -0.2930
 7462W        W22593  15.146  10.119  11.238  0.0552  0.2749  0.3441
 7463W        W22594   1.164  11.372   1.909  0.0307  0.2734 -0.2300
 7464W        W22595   7.044   9.798   0.591 -0.2346 -0.1490 -0.2738
 7465W        W22596   1.486   3.278  15.652 -0.1255 -0.2010 -0.0486
 7466W        W22597  15.549   5.000   4.193 -0.0299 -0.1621 -0.0350
 7467W        W22598  13.682   2.612  15.227 -0.2319  0.2933  0.1190
 7468W        W22599   8.673   4.226   3.233 -0.0287 -0.1207  0.0165
 7469W        W22600  11.991  17.080   2.780 -0.3272 -0.1002 -0.1427
 7470W        W22601  16.264   3.576   2.843  0.1489 -0.2253 -0.1716
 7471W        W22602   5.729   7.111   5.722 -0.0473 -0.2590 -0.1371
 7472W        W22603   5.362   5.104   0.243  0.1628  0.1561  0.2706
 7473W        W22604   5.478  11.757  12.628  0.0437  0.4208 -0.0910
 7474W        W22605   7.533  15.108  12.424 -0.3744 -0.0533  0.0438
 7475W        W22606  17.909  13.237   4.383  0.2622  0.3056 -0.1030
 7476W        W22607   5.278   4.802  13.213 -0.4554  0.0338 -0.3812
 7477W        W22608   8.007   4.796   6.194  0.0548 -0.2018 -0.2304
 7478W        W22609  12.938   8.607   3.010  0.1896 -0.2757 -0.0624
 7479W        W22610  12.443   1.347   3.722 -0.1943 -0.0541 -0.2488
 7480W        W22611   9.114   6.028   2.957 -0.2027  0.1888  0.1507
 7481W        W22612   4.508  12.005  15.491 -0.0554  0.0786 -0.0771
 7482W        W22613  18.245   8.894  15.956  0.0325  0.2420  0.5565
 7483W        W22614  14.577  12.749  13.466  0.3742  0.3429 -0.0304
 7484W        W22615   9.576  13.134  11.886  0.4132  0.0236 -0.2315
 7485W        W22616   6.525  16.430   0.044 -0.0197 -0.1690 -0.3244
 7486W        W22617  16.427   8.490  16.025 -0.0104 -0.0506  0.0412
 7487W        W22618   7.814  13.585   5.389  0.0546  0.2444 -0.2941
 7488W        W22619   1.843  17.224  14.403 -0.0086  0.3642  0.2855
 7489W        W22620  14.963   5.826   1.747 -0.1977  0.0841  0.0764
 7490W        W22621   1.125   9.076   2.773 -0.2318 -0.0737  0.2606
 7491W        W22622  12.437   5.418  13.056 -0.0196  0.0430  0.1703
 7492W        W22623   7.026   1.425   1.197 -0.0704  0.0902 -0.0092
 7493W        W22624  15.158   2.075  15.003 -0.0286 -0.0795 -0.0012
 7494W        W22625   5.566   7.516  14.821 -0.0066 -0.1304 -0.0957
 7495W        W22626   2.566  10.276   3.834 -0.0537  0.1282  0.3218
 7496W        W22627  13.792  17.683  15.635  0.1969  0.3410 -0.1205
 7497W        W22628   2.375  18.325  14.531 -0.1625 -0.1060 -0.1013
 7498W        W22629   3.383  15.482   2.697 -0.0539 -0.0413 -0.3144
 7499W        W22630  10.519  16.012  11.766 -0.0231 -0.2848  0.4774
 7500W        W22631   5.327  18.080   9.413  0.1547 -0.2088 -0.0247
 7501W        W22632   0.931  14.753   3.577 -0.4742 -0.0447  0.0438
 7502W        W22633  18.285   4.743   0.450  0.0963 -0.0707  0.2538
 7503W        W22634   8.706   0.347   0.789  0.0425 -0.0745  0.1476
 7504W        W22635   9.080   8.650  11.536 -0.5249 -0.0993 -0.0639
 7505W        W22636  13.337  13.815  14.599 -0.0969  0.0156 -0.0978
 7506W        W22637   8.516   6.098  13.530  0.0418  0.1733  0.1359
 7507W        W22638   3.760  14.903   3.322  0.0558 -0.3446 -0.0066
 7508W        W22639   0.693  17.691   2.374 -0.2080 -0.1436  0.2216
 7509W        W22640  12.030   3.771   3.539 -0.2456 -0.2759 -0.1341
 7510W        W22641  10.667   1.234   5.303  0.1291 -0.1624  0.1646
 7511W        W22642  12.394   0.041  15.802  0.0449  0.0253  0.2892
 7512W        W22643  17.470  18.444   0.578 -0.0503 -0.0081  0.0882
 7513W        W22644   4.163   2.042  12.993 -0.0210  0.0750  0.3203
 7514W        W22645  16.408   4.007  15.033 -0.2507 -0.0835 -0.0360
 7515W        W22646  17.360   6.494   0.814  0.0124  0.1574 -0.1914
 7516W        W22647  10.771   0.812  11.339  0.0207  0.0519 -0.0226
 7517W        W22648   6.283  10.248  15.391 -0.1310  0.0595  0.0624
 7518W        W22649  11.120  13.890  13.225  0.0807 -0.1580 -0.0298
 7519W        W22650   2.461   2.009  13.790  0.1042 -0.2342 -0.0165
 7520W        W22651   3.041   0.449  10.404  0.0742 -0.1494  0.1288
 7521W        W22652   9.755   3.840  14.081 -0.2075 -0.0030  0.1871
 7522W        W22653  12.819   4.353  14.631  0.1086  0.2536  0.4651
 7523W        W22654   4.865  18.378  10.905  0.0213 -0.1793 -0.4762
 7524W        W22655  15.169   8.324   5.752 -0.3548  0.0195  0.2923
 7525W        W22656  18.004   4.627  12.089  0.0567 -0.1708  0.2338
 7526W        W22657  17.713   5.678   1.706 -0.0964  0.2134  0.0286
 7527W        W22658  10.388   1.272  14.134  0.0154 -0.0649  0.1482
 7528W        W22659  15.964  17.776  13.439 -0.1584  0.0386  0.0772
 7529W        W22660   2.969  17.947   0.224  0.2297  0.2750  0.1273
 7530W        W22661  17.252  17.966   4.900  0.1179 -0.2549 -0.0956
 7531W        W22662   4.813  17.665   1.560  0.0527  0.1286  0.1287
 7532W        W22663  14.827  17.450  13.117 -0.2178  0.0119 -0.1164
 7533W        W22664  13.162   4.795   1.611 -0.2566 -0.3321 -0.2180
 7534W        W22665  10.111   4.025  15.116  0.0667  0.3269 -0.0027
 7535W        W22666   4.705  15.818   1.253  0.1184 -0.2168 -0.0148
 7536W        W22667   2.665   4.378   2.628 -0.1196 -0.1855  0.2831
 7537W        W22668   5.929  11.503   1.060  0.0341  0.0820 -0.0581
 7538W        W22669   4.117  15.063   3.763 -0.0607 -0.2641  0.1465
 7539W        W22670   2.310  11.378   4.702  0.0164  0.1935  0.1661
 7540W        W22671  11.580  16.817   0.255  0.0670 -0.2093 -0.2358
 7541W        W22672  15.016  16.316  15.913 -0.1204  0.0260 -0.1633
 7542W        W22673   9.863   4.395   1.014  0.0805 -0.3531  0.4628
 7543W        W22674   0.736   2.285  11.183  0.1360  0.2060 -0.3275
 7544W        W22675  17.090   0.264   3.138  0.0455 -0.1577 -0.1927
 7545W        W22676  11.777   2.363  14.773 -0.1525  0.3267 -0.0760
 7546W        W22677   2.062  14.493  11.939  0.0858 -0.0580 -0.1514
 7547W        W22678   9.984   4.186  13.827  0.0594 -0.1522  0.1184
 7548W        W22679   8.197   8.234  14.925  0.5112  0.3806 -0.0771
 7549W        W22680  12.243  11.851   1.928 -0.1520 -0.1723 -0.1992
 7550W        W22681   0.051  13.713  15.865  0.1745 -0.2315  0.0223
 7551W        W22682  15.897  13.952  12.831 -0.0478 -0.3610  0.0068
 7552W        W22683   8.120  11.197   2.101  0.1158 -0.2585 -0.2279
 7553W        W22684   6.354  17.242  15.964  0.1141 -0.3683 -0.0089
 7554W        W22685  13.168   3.681   0.435 -0.2525 -0.0625 -0.0619
 7555W        W22686   7.430  16.539   3.213 -0.3046 -0.1591 -0.0876
 7556W        W22687   4.614  14.859   1.743  0.0740 -0.0784  0.0759
 7557W        W22688  11.061  12.034   1.870  0.2340 -0.1995  0.0443
 7558W        W22689  13.059   6.164   4.064 -0.0705  0.1136 -0.3193
 7559W        W22690   1.070  12.254  11.288  0.0310 -0.2007 -0.2472
 7560W        W22691  17.653   2.580   5.664  0.0060 -0.2422 -0.1347
 7561W        W22692  10.438  14.194  12.454  0.2885  0.1148  0.3839
 7562W        W22693  13.505   1.544  15.490 -0.0778 -0.1173  0.1713
 7563W        W22694   1.728   7.700   0.280  0.0337 -0.0359  0.1178
 7564W        W22695  11.220   7.258   1.409 -0.0277 -0.0072 -0.0516
 7565W        W22696   7.764   4.920  13.172 -0.2533  0.1196 -0.0277
 7566W        W22697   5.809   4.999   2.595 -0.0135 -0.1075  0.2701
 7567W        W22698   4.211   2.789  11.305 -0.4302  0.2067 -0.0112
 7568W        W22699   8.729   8.042  14.812  0.1615 -0.0317  0.0231
 7569W        W22700   2.771  18.085  14.900  0.3419  0.0985  0.2826
 7570W        W22701  15.054   8.974  12.859  0.0596 -0.1720  0.0405
 7571W        W22702   3.491   5.341   4.377 -0.0232  0.1495  0.0696
 7572W        W22703  10.762   5.547  11.600  0.2257 -0.0271 -0.2119
 7573W        W22704   0.278   7.578  11.414 -0.2305 -0.1026  0.2047
 7574W        W22705   2.866  14.995  13.137  0.1006  0.1291  0.0377
 7575W        W22706   8.823  12.776  15.784 -0.1452 -0.2113 -0.0412
 7576W        W22707  10.188  12.971   4.784 -0.0755 -0.0080  0.6276
 7577W        W22708  13.046   5.838  14.069 -0.0842  0.4657 -0.1368
 7578W        W22709  17.939   7.745  15.507 -0.0551 -0.0109  0.0605
 7579W        W22710   3.697  15.062   5.154  0.1916  0.3293  0.0465
 7580W        W22711   5.345  16.665  10.470 -0.0411 -0.2027  0.2489
 7581W        W22712   8.206  14.227  15.917 -0.3247  0.0259  0.0748
 7582W        W22713  10.192  12.246   3.418 -0.0615 -0.2149  0.0805
 7583W        W22714  10.212  12.105  15.742 -0.2938  0.1286  0.3851
 7584W        W22715  18.175  11.835   3.142 -0.1440  0.0177  0.1059
 7585W        W22716   3.008   8.564  11.943  0.0407  0.3575  0.1850
 7586W        W22717  15.040  13.830  13.444  0.0369 -0.0284 -0.1658
 7587W        W22718   4.403  10.490  14.062  0.1315  0.0855  0.1981
 7588W        W22719  12.976  14.957   2.903 -0.4212  0.2087 -0.0044
 7589W        W22720   1.530  13.628   4.904 -0.1874  0.1366 -0.3939
 7590W        W22721  12.459  17.763  11.612  0.1774  0.0868  0.2959
 7591W        W22722   0.108  11.742   5.987  0.0580 -0.3458  0.1351
 7592W        W22723  15.485  16.064  15.917  0.2242  0.1177 -0.0098
 7593W        W22724  11.723  17.132  12.279 -0.0576 -0.1095 -0.2137
 7594W        W22725   4.563   6.711  12.137 -0.3148  0.0363 -0.2865
 7595W        W22726  16.637  14.463  14.181 -0.1172 -0.3141  0.0181
 7596W        W22727  17.846   9.301   5.407 -0.1079  0.1533 -0.1905
 7597W        W22728  17.257  14.694  14.601 -0.1528 -0.2162 -0.2995
 7598W        W22729   1.286  11.464  10.743 -0.0930  0.0573 -0.1370
 7599W        W22730   9.463  12.945   1.924  0.0390 -0.0878  0.1741
 7600W        W22731   5.033  10.836  12.478 -0.0869  0.0298  0.3076
 7601W        W22732   6.437  10.349   4.959  0.0679 -0.1863  0.3489
 7602W        W22733   6.233  14.663  13.584 -0.2014 -0.2417 -0.3459
 7603W        W22734  17.460  10.547   2.067  0.2433  0.0810  0.0598
 7604W        W22735   0.036  18.326  12.042  0.0550 -0.0298 -0.0422
 7605W        W22736   9.327  14.483   1.916 -0.2759  0.0276  0.0299
 7606W        W22737  13.782  16.174   4.340  0.1902 -0.4214  0.0552
 7607W        W22738   1.626  12.621  10.744  0.1332  0.0173 -0.2678
 7608W        W22739   8.683   1.255   2.036 -0.1278  0.2054 -0.0444
 7609W        W22740   6.555   9.741   1.386 -0.0954 -0.0565 -0.1053
 7610W        W22741  10.462  17.584  15.412 -0.0138 -0.2530  0.1704
 7611W        W22742  17.926   3.068  14.891 -0.0913  0.0433 -0.0747
 7612W        W22743  12.697  11.658   2.100 -0.0533 -0.1517 -0.2909
 7613W        W22744   0.531   3.323  11.823  0.1308 -0.2267  0.2598
 7614W        W22745  14.466  18.325   2.984  0.0258 -0.1868 -0.0648
 7615W        W22746   0.915   0.651  13.820  0.1224 -0.2189 -0.1686
 7616W        W22747   1.496   0.783   3.642 -0.0472  0.3627  0.0257
 7617W        W22748   0.497   3.093   4.842  0.3538  0.1138 -0.2733
 7618W        W22749   8.818  13.513  15.586 -0.0182  0.2513 -0.0219
 7619W        W22750  18.016  18.032   1.287 -0.2164 -0.1174  0.0488
 7620W        W22751   8.161   0.680   3.212  0.3728  0.0937  0.2285
 7621W        W22752   1.606  10.178   2.371  0.2066  0.1159 -0.1454
 7622W        W22753   8.156   8.065   4.335 -0.2617 -0.0971 -0.1607
 7623W        W22754  16.063   5.470   0.191 -0.3144 -0.0156  0.0768
 7624W        W22755  14.201  17.893   3.048  0.2136 -0.0165  0.1263
 7625W        W22756  12.985  17.772  11.869 -0.3636 -0.0841  0.0121
 7626W        W22757   4.906  14.193   9.510  0.3019  0.1517 -0.0519
 7627W        W22758   1.679   9.578  11.908  0.0646 -0.0769 -0.1323
 7628W        W22759   4.785   5.260   5.428 -0.1077  0.2422  0.1517
 7629W        W22760  11.133   5.944  13.037  0.0640 -0.0336 -0.1947
 7630W        W22761   0.045  14.361  12.442  0.1396 -0.1850  0.2429
 7631W        W22762   2.982   6.839   0.925 -0.0926  0.1747  0.0440
 7632W        W22763  10.427   8.566  15.141 -0.1984 -0.0826 -0.0463
 7633W        W22764   8.434  13.447   3.657 -0.4381  0.0923 -0.0943
 7634W        W22765   4.468   5.834   0.314  0.0895  0.0277 -0.1543
 7635W        W22766   1.585   9.464   4.135 -0.0773  0.0766  0.1492
 7636W        W22767   8.956  17.747  12.617 -0.3332 -0.2518 -0.2503
 7637W        W22768   9.600   9.735  13.544 -0.0290  0.0969 -0.1645
 7638W        W22769   0.793   6.667   2.751  0.0594  0.1356 -0.0042
 7639W        W22770  17.317   2.989   2.098 -0.0454 -0.1892  0.0743
 7640W        W22771   4.083  16.872  12.849 -0.0412  0.1575  0.0654
 7641W        W22772  13.953  10.634  15.623 -0.1529  0.1075  0.2871
 7642W        W22773   6.991   0.320   2.724  0.4551 -0.4647  0.0527
 7643W        W22774  17.100  11.700   3.201 -0.0410 -0.0717  0.1828
 7644W        W22775  17.666   4.932   1.190  0.2630  0.2301 -0.1470
 7645W        W22776  17.374   8.385   4.903  0.0989  0.1584  0.1377
 7646W        W22777  13.286  17.202   3.436 -0.0471  0.3383 -0.2187
 7647W        W22778   6.326   2.326   3.968  0.1972 -0.3497  0.1280
 7648W        W22779   2.870  16.112  12.920 -0.1123  0.0927 -0.0856
 7649W        W22780   4.827   7.777  15.975 -0.0230 -0.0035  0.3693
 7650W        W22781  12.185  14.331   2.150 -0.0360 -0.4835 -0.2851
 7651W        W22782  15.008  15.211  12.621 -0.3685 -0.0454 -0.1452
 7652W        W22783  11.315   8.392   4.193  0.2357  0.1796 -0.1150
 7653W        W22784   8.060   2.677   0.039  0.1234  0.0003 -0.0484
 7654W        W22785   4.302   0.414   0.719 -0.0031  0.3347 -0.0849
 7655W        W22786   3.350  11.824   9.729  0.0978 -0.2048 -0.0155
 7656W        W22787   3.626   4.725   3.221 -0.2139 -0.2051 -0.1204
 7657W        W22788   1.501   9.336  10.185  0.2549 -0.0266  0.2601
 7658W        W22789  14.274   5.178  14.032  0.0854  0.1229  0.2343
 7659W        W22790   0.033  13.242   4.172  0.1423  0.0761  0.3890
 7660W        W22791  15.849   0.279  10.838 -0.1649 -0.1284 -0.0211
 7661W        W22792  12.664   9.132  16.064  0.0896  0.1561  0.1313
 7662W        W22793   1.584   5.710   6.080  0.1881  0.0040  0.2912
 7663W        W22794   5.871  13.139  12.319 -0.1432  0.3100  0.1599
 7664W        W22795  15.997   0.193   3.123 -0.0706  0.1597 -0.2725
 7665W        W22796   8.116  12.965  15.934 -0.0015  0.0554 -0.3653
 7666W        W22797   2.954  17.604  12.711  0.1757 -0.0791 -0.3204
 7667W        W22798  15.769   4.657   5.648 -0.1589 -0.0515  0.0149
 7668W        W22799   4.827  17.776  10.169  0.1728 -0.1829  0.2174
 7669W        W22800  12.344  17.962  11.090  0.2987  0.0070  0.1273
 7670W        W22801   6.550   3.486  13.259 -0.1140 -0.1490 -0.1444
 7671W        W22802   7.741  18.329  15.337 -0.0029  0.0503 -0.0747
 7672W        W22803  16.156   8.075   0.980 -0.1143 -0.0576 -0.1121
 7673W        W22804  11.518  13.625  11.016 -0.1337 -0.3979 -0.0751
 7674W        W22805  12.869  11.433   4.513 -0.3278 -0.0348 -0.1172
 7675W        W22806   5.151   8.115   2.474  0.0586 -0.1223 -0.0268
 7676W        W22807   0.986  10.109  15.057  0.3770  0.0512  0.2949
 7677W        W22808   8.508  12.939  12.719  0.0865 -0.1226 -0.0113
 7678W        W22809   5.899   5.715  12.100 -0.1991 -0.0654  0.4455
 7679W        W22810  16.464  13.363  11.713  0.2281 -0.0844 -0.2215
 7680W        W22811  10.329  15.853   2.370  0.1011  0.0282 -0.0595
 7681W        W22812  10.000   6.133   5.304 -0.1105 -0.3971 -0.2331
 7682W        W22813  14.623   5.717   3.457  0.2297  0.1961 -0.0554
 7683W        W22814  16.802  16.690   0.825 -0.0918  0.0435  0.1406
 7684W        W22815   0.501   1.747  15.071  0.1784 -0.3945  0.3208
 7685W        W22816  11.791   4.178  13.444  0.1696  0.1661 -0.1298
 7686W        W22817  10.998   3.105   2.035  0.2917  0.0080 -0.0395
 7687W        W22818   5.181   6.720   5.038  0.1086 -0.2027 -0.0569
 7688W        W22819  10.178  14.979  16.002 -0.0118 -0.1690  0.0549
 7689W        W22820  18.481  16.337   3.269 -0.0471  0.2504 -0.3933
 7690W        W22821  13.823   0.451  15.216  0.2416  0.2284  0.1390
 7691W        W22822  13.055   8.259   4.903  0.1319  0.0274 -0.2179
 7692W        W22823  14.830  14.969   3.470  0.1548  0.3763 -0.5290
 7693W        W22824  11.702   0.302  13.148 -0.0602  0.1536  0.1927
 7694W        W22825  14.006   2.484   0.546  0.3637 -0.3456  0.3799
 7695W        W22826   1.250  10.567  13.449  0.1336 -0.3035 -0.2518
 7696W        W22827   6.894  14.884  14.111 -0.2060 -0.1110 -0.2278
 7697W        W22828  10.776   2.952   5.342  0.0907 -0.0727 -0.1378
 7698W        W22829  10.138  11.585   5.538 -0.2081  0.0032 -0.0042
 7699W        W22830   8.958   7.300  12.204  0.0561  0.0195  0.2326
 7700W        W22831  13.319  17.678  11.460  0.3049 -0.0617 -0.1109
 7701W        W22832  13.055  11.212  15.926  0.2521 -0.1046 -0.2763
 7702W        W22833   6.830  13.559   1.739  0.0281  0.2959 -0.1120
 7703W        W22834   5.472   2.813   1.391 -0.1035 -0.1983 -0.1736
 7704W        W22835   4.437  13.502   2.134 -0.0383 -0.0260  0.0637
 7705W        W22836  16.948  12.583   0.572 -0.0748  0.0357  0.2494
 7706W        W22837   2.788   7.274  15.749 -0.1294  0.1166 -0.0179
 7707W        W22838  13.470   1.760   2.574  0.0166 -0.3975  0.1472
 7708W        W22839  15.637  16.876  12.096 -0.2964 -0.0873 -0.0880
 7709W        W22840   8.627   6.689  13.705  0.0640  0.1381  0.1007
 7710W        W22841   8.804  11.173   3.361 -0.1030 -0.0055 -0.1439
 7711W        W22842   6.143  10.461   5.803  0.3085 -0.3092  0.0856
 7712W        W22843   4.448   8.347  13.926 -0.1381 -0.3780 -0.1268
 7713W        W22844   9.915   6.365  12.527  0.2456 -0.2491 -0.2187
 7714W        W22845   7.558   4.693   5.258  0.2525 -0.0251 -0.1703
 7715W        W22846   0.237   7.745   3.650  0.3278 -0.1430 -0.0379
 7716W        W22847   6.005   0.152  12.107 -0.1631 -0.3244 -0.0292
 7717W        W22848   4.764   3.999  11.669  0.1055  0.1293  0.0091
 7718W        W22849  15.553  18.267  13.947  0.0606  0.1611  0.0550
 7719W        W22850   1.275  14.427  14.623  0.1725 -0.0014 -0.2540
 7720W        W22851  16.427   4.170   0.504  0.0050 -0.1098 -0.1009
 7721W        W22852  11.142   8.970   0.456 -0.0103  0.2264 -0.1726
 7722W        W22853  12.079   8.890   1.735 -0.2576 -0.1123  0.0870
 7723W        W22854  18.130  10.638  14.535  0.1902 -0.0914 -0.1381
 7724W        W22855   7.113  18.434  15.062 -0.1148 -0.0231  0.1008
 7725W        W22856  15.787   1.129  15.575  0.1033  0.3781  0.0943
 7726W        W22857   2.950  11.778   5.375  0.0215 -0.0199  0.1482
 7727W        W22858   8.334  10.318   1.642 -0.2191 -0.0716  0.0609
 7728W        W22859  10.564  17.570   2.802 -0.2166 -0.3158 -0.2161
 7729W        W22860  11.295  15.246  13.962 -0.0166 -0.2380  0.1787
 7730W        W22861   1.398  10.678  14.669  0.2091  0.0069  0.1582
 7731W        W22862   8.270   2.483   2.006  0.0372 -0.2391  0.2941
 7732W        W22863   9.622   3.059   5.177  0.0433  0.0748 -0.4947
 7733W        W22864  12.970  15.010  11.273 -0.1656  0.1434 -0.1949
 7734W        W22865  13.842  14.212   4.262  0.1019  0.0511 -0.0613
 7735W        W22866  10.230   3.682  13.127  0.1191 -0.1666 -0.0694
 7736W        W22867  16.661   3.614  14.851  0.0645  0.0851  0.1449
 7737W        W22868  17.707  12.043   2.804 -0.4025 -0.1310  0.0161
 7738W        W22869   7.741   5.393  12.483  0.1212  0.0837 -0.0554
 7739W        W22870  15.406   1.542  11.105 -0.0949  0.0045  0.1948
 7740W        W22871  10.002  12.767  15.817 -0.3187 -0.0331 -0.1952
 7741W        W22872  14.341  14.694  13.088  0.0619 -0.0799  0.1283
 7742W        W22873   6.329   7.314   5.105 -0.3057 -0.0958  0.2381
 7743W        W22874  12.913  17.647  14.770  0.1493 -0.0118 -0.5234
 7744W        W22875  11.098   6.724   1.284 -0.1872 -0.3200  0.2283
 7745W        W22876  15.632  11.273  13.924  0.0886 -0.0381  0.0521
 7746W        W22877  12.282  17.467   0.438  0.3325 -0.1843 -0.3581
 7747W        W22878  17.229  14.461   1.001  0.1981  0.1765 -0.1691
 7748W        W22879  16.162   5.083  13.537  0.0438 -0.1750 -0.2332
 7749W        W22880  17.765  15.043  16.083  0.0505  0.2340  0.1443
 7750W        W22881   0.566   9.196  12.557  0.1470  0.2912  0.0126
 7751W        W22882   5.203  13.913   2.756 -0.1306  0.1300 -0.0290
 7752W        W22883   2.652  16.176   4.738 -0.1911  0.4989  0.0252
 7753W        W22884   9.674   4.920   2.396 -0.0908 -0.0349  0.0167
 7754W        W22885   4.825   8.131  13.616  0.0482 -0.1192  0.1102
 7755W        W22886  15.576  14.417   0.004 -0.1646 -0.2412  0.3394
 7756W        W22887  13.460  13.026   1.768 -0.0436  0.1351 -0.3310
 7757W        W22888  13.624  11.911   1.233  0.3494  0.0987  0.1357
 7758W        W22889   6.276  10.775   1.425 -0.2029 -0.0177 -0.3580
 7759W        W22890  14.808  11.939  14.722  0.3170 -0.1873 -0.1347
 7760W        W22891   4.970   4.294   2.592  0.0365 -0.0873  0.1455
 7761W        W22892  15.870   7.010  11.072 -0.0158 -0.1185  0.1801
 7762W        W22893   8.138   4.131  10.167  0.0713  0.0424  0.2283
 7763W        W22894  13.645   3.029  15.944 -0.0135  0.0918 -0.0755
 7764W        W22895   5.911   0.103   4.674  0.0031  0.0145  0.1408
 7765W        W22896  14.593  10.281  14.228 -0.1376  0.2792 -0.2501
 7766W        W22897  10.580  14.901  13.867  0.0725 -0.0791  0.2949
 7767W        W22898   4.260  15.739   5.082 -0.1336  0.3005 -0.4244
 7768W        W22899   4.981  12.762  12.217 -0.0322 -0.1660  0.3117
 7769W        W22900   6.117  15.319   4.967 -0.0424 -0.2028  0.1260
 7770W        W22901  10.005   5.963  15.982 -0.0176 -0.1706 -0.0761
 7771W        W22902  16.397  12.069   1.206  0.2889 -0.0843 -0.1360
 7772W        W22903   6.361   8.128  12.356 -0.0125  0.1724 -0.2011
 7773W        W22904  14.073  11.133  11.544 -0.1365  0.1033 -0.1289
 7774W        W22905   0.746  15.047   2.885  0.3143  0.2048  0.0348
 7775W        W22906   0.118  10.251   3.790 -0.1398 -0.0207 -0.1071
 7776W        W22907  14.952   2.754  13.769  0.1848  0.1008 -0.2136
 7777W        W22908  18.211  11.480  15.937 -0.2362  0.0070  0.1681
 7778W        W22909  11.523   7.687   4.040  0.1433 -0.0162 -0.4858
 7779W        W22910   5.505   1.259   2.447  0.2050  0.2478 -0.0758
 7780W        W22911   1.272  10.817   1.302  0.0083  0.3313  0.2114
 7781W        W22912   0.081  12.571  15.305 -0.0181  0.1066 -0.0083
 7782W        W22913  17.007  15.755   3.882 -0.0794  0.1564  0.0429
 7783W        W22914  14.694  17.969  15.830  0.0448  0.0937 -0.0934
 7784W        W22915  14.053   3.282   1.406  0.2816  0.0187 -0.1039
 7785W        W22916  17.018   9.688   1.081  0.0682  0.1231 -0.0157
 7786W        W22917   7.794   8.266   5.909  0.0251  0.3362  0.0841
 7787W        W22918   9.880  13.889   5.649  0.1277  0.2515 -0.0284
 7788W        W22919   3.834   0.489  13.294  0.1914 -0.2027  0.2206
 7789W        W22920   5.735  11.556  15.930  0.0203  0.0683 -0.2075
 7790W        W22921   3.096   4.290  11.783 -0.0665  0.1393 -0.0308
 7791W        W22922  17.399   5.386   5.075 -0.0688 -0.1084  0.0774
 7792W        W22923   2.219  18.248   2.672 -0.1362  0.0702  0.2386
 7793W        W22924   4.455   8.082   3.634  0.0120  0.0266 -0.2416
 7794W        W22925   6.487  14.734  15.715 -0.1907  0.0102  0.0912
 7795W        W22926  14.181   6.327  15.835  0.0752 -0.2342  0.0842
 7796W        W22927   7.275  10.726   1.052 -0.2167  0.3411  0.0892
 7797W        W22928  16.217  17.825   2.854  0.1319  0.0007 -0.1210
 7798W        W22929   2.769   9.900   4.086  0.0419  0.1348  0.0226
 7799W        W22930  14.740   2.922   1.830  0.0772  0.0311 -0.3214
 7800W        W22931   0.267  11.007   0.492  0.1324  0.0208 -0.0579
 7801W        W22932  14.199  12.203  10.834 -0.1226  0.0019  0.0294
 7802W        W22933   2.646  16.048   9.727  0.2414 -0.0311 -0.2369
 7803W        W22934   4.535  16.458   2.847  0.1940  0.2430  0.3409
 7804W        W22935  15.747   7.266  14.004 -0.1608  0.0016  0.1708
 7805W        W22936   4.719   4.491  10.147 -0.4027  0.0126 -0.0655
 7806W        W22937   1.764  18.196  13.210  0.2330 -0.1932  0.2911
 7807W        W22938   3.912   6.954  14.357 -0.0390 -0.1433  0.1016
 7808W        W22939   0.693  15.680   1.779 -0.0542  0.1235  0.0083
 7809W        W22940  12.228   2.226   3.006 -0.1831 -0.0016  0.1578
 7810W        W22941  14.772   0.446   3.806  0.0073  0.1256  0.1636
 7811W        W22942  16.963   5.135  15.102 -0.0054 -0.2214  0.1270
 7812W        W22943   2.132   6.914   2.086  0.1265 -0.1415  0.1727
 7813W        W22944   9.815  12.089   2.977 -0.3235  0.3804  0.2321
 7814W        W22945   4.006   5.107   2.499  0.2541  0.0085  0.2507
 7815W        W22946  14.484   0.511  11.548 -0.0579 -0.1184  0.3052
 7816W        W22947   9.897  16.293   1.410  0.1045 -0.1660 -0.0519
 7817W        W22948   9.364   1.956   0.406 -0.4621 -0.0316 -0.2657
 7818W        W22949  15.900  12.236  14.020 -0.3196  0.0942 -0.1356
 7819W        W22950   3.283   9.224   1.857 -0.4049 -0.1307  0.2081
 7820W        W22951  15.792   8.388   0.814  0.0624  0.4142  0.1148
 7821W        W22952  12.581   4.102   1.784 -0.1211 -0.2309 -0.0828
 7822W        W22953   6.561   2.922  14.664 -0.2230 -0.0226  0.0495
 7823W        W22954   4.494  17.956   0.696 -0.0831 -0.0779 -0.1261
 7824W        W22955   4.416  12.841  11.210  0.0910  0.3278 -0.1557
 7825W        W22956   8.163   7.937   5.653  0.2183 -0.4237  0.3539
 7826W        W22957   5.357  15.571  14.594 -0.3975  0.1525 -0.1204
 7827W        W22958   4.742   4.135  15.770 -0.1254  0.2669 -0.3150
 7828W        W22959  12.246   0.647  14.315 -0.1350  0.0029  0.1093
 7829W        W22960   6.069   9.046  14.922 -0.0780  0.1753 -0.1628
 7830W        W22961  15.741   3.211   0.371 -0.4727 -0.3926 -0.0347
 7831W        W22962   7.423  10.350   3.326 -0.2192 -0.3149  0.0382
 7832W        W22963   8.466   5.460   0.491 -0.1110 -0.3061  0.2211
 7833W        W22964   4.700  10.094  12.352  0.0311  0.0186 -0.0987
 7834W        W22965   2.036  10.706  14.417  0.1643 -0.1310 -0.1528
 7835W        W22966   8.511   0.438   2.847 -0.0660  0.0506 -0.1708
 7836W        W22967   4.757  17.414  10.521  0.2311  0.0081 -0.1972
 7837W        W22968   3.104   6.883  15.856 -0.3063 -0.1318 -0.1883
 7838W        W22969  14.043  13.127   2.514 -0.0083 -0.1043  0.1886
 7839W        W22970   7.867  15.837   0.895  0.5012 -0.0316  0.2404
 7840W        W22971   1.517   0.066   4.331  0.0552  0.0565  0.1852
 7841W        W22972   5.580   1.602  12.032 -0.0703 -0.1151 -0.1417
 7842W        W22973  18.124  10.814  12.924 -0.0782 -0.3201  0.1649
 7843W        W22974  13.238  11.690  16.066 -0.2277  0.1696 -0.2791
 7844W        W22975   4.098   8.066   3.228  0.2022  0.1147  0.0098
 7845W        W22976   1.138  10.059   5.283 -0.1333  0.0779  0.0132
 7846W        W22977   9.268   8.184   4.255  0.0055 -0.3304  0.0732
 7847W        W22978  18.201  12.098   4.770 -0.3096  0.2360  0.0261
 7848W        W22979   0.288   9.818  13.388 -0.0448  0.0605 -0.1444
 7849W        W22980   2.976   3.324  13.258  0.0037  0.0286 -0.0411
 7850W        W22981   9.846   7.897   2.435 -0.3059 -0.0503  0.2155
 7851W        W22982  13.862   0.084   5.246 -0.3171 -0.0010 -0.3408
 7852W        W22983   1.561   8.270   3.348 -0.0447 -0.2757  0.0441
 7853W        W22984  13.389  14.353   9.999 -0.1265  0.0003  0.1741
 7854W        W22985  16.947  15.869   3.023 -0.0248  0.1150 -0.1521
 7855W        W22986  12.350  13.035  12.555  0.1108 -0.1176 -0.0320
 7856W        W22987   5.013   3.706   4.697  0.3604  0.0258  0.3244
 7857W        W22988   5.534   7.120   3.689 -0.3636 -0.0864  0.2017
 7858W        W22989   9.282   2.394   2.352  0.0555  0.2121  0.1455
 7859W        W22990  14.973   0.594   5.488  0.3581  0.1487 -0.2185
 7860W        W22991  13.715  12.971  13.456 -0.1056  0.0181  0.1679
 7861W        W22992   8.555   7.702   2.754  0.0947 -0.2339 -0.1705
 7862W        W22993   7.876  13.142  11.453 -0.1958 -0.0781 -0.1779
 7863W        W22994   6.720   8.193  11.741 -0.1403  0.0115 -0.0549
 7864W        W22995  16.343  16.744   1.789  0.0693 -0.3168 -0.2084
 7865W        W22996  11.472   2.406   1.557 -0.1686 -0.2172  0.1614
 7866W        W22997  11.728  14.477  13.895 -0.0327  0.1823 -0.3703
 7867W        W22998  12.443   4.364  12.780 -0.0434  0.0629 -0.2543
 7868W        W22999   3.042  15.960   5.445  0.3352  0.0002 -0.2536
 7869W        W23000  16.420   9.156   0.986  0.0284 -0.2901 -0.0631
 7870W        W23001   2.335   6.236   2.823  0.1183 -0.1084  0.1080
 7871W        W23002  17.613   0.162   1.521  0.1133  0.2716 -0.0183
 7872W        W23003  13.986  17.288   5.268  0.0710 -0.0953  0.2127
 7873W        W23004  17.401   3.113  15.840  0.1897  0.1086  0.1075
 7874W        W23005  16.945  13.234  15.891  0.1480  0.1066  0.0848
 7875W        W23006   7.744   1.623  13.756 -0.0601  0.1999  0.2992
 7876W        W23007   5.734  12.581   2.253  0.3126 -0.1030 -0.0500
 7877W        W23008  16.057   0.891   1.460 -0.2356 -0.0378  0.1585
 7878W        W23009   1.103  16.014   1.756 -0.2952  0.2850  0.4828
 7879W        W23010   7.653  15.345   0.977  0.2078  0.0823 -0.0922
 7880W        W23011   1.685  10.809  13.235 -0.3740 -0.0287  0.1577
 7881W        W23012  16.575  13.385   2.550 -0.2760  0.1578 -0.0883
 7882W        W23013   6.482   1.580  13.500  0.1301  0.1251 -0.2870
 7883W        W23014   9.054   0.391   4.956  0.2718 -0.1087 -0.0380
 7884W        W23015   2.616  13.353  11.417  0.1388  0.2025 -0.0749
 7885W        W23016  17.576   5.621  10.554  0.1360  0.1609 -0.1804
 7886W        W23017   7.908   8.172   2.254 -0.1040 -0.0180  0.1315
 7887W        W23018   6.674  17.290   4.705  0.0933 -0.0013  0.1297
 7888W        W23019  17.993   4.022   5.592  0.1153 -0.0302  0.1261
 7889W        W23020  11.667   6.561   5.156  0.0414  0.1761 -0.1689
 7890W        W23021   0.023  13.298   0.262  0.0550  0.0335  0.0034
 7891W        W23022  15.425  12.767  12.920  0.1221 -0.0935 -0.0603
 7892W        W23023   5.915  13.012   4.043 -0.1859 -0.2544 -0.0265
 7893W        W23024  14.295  10.822  14.974 -0.1934 -0.0481  0.0517
 7894W        W23025  13.804   8.662   1.608  0.1380 -0.1224  0.1597
 7895W        W23026   9.737   3.583   4.283  0.0043 -0.0868  0.0869
 7896W        W23027   2.538  16.153  14.896 -0.3553  0.0162 -0.1012
 7897W        W23028  18.052   0.699   1.647  0.0817  0.0320 -0.0527
 7898W        W23029   0.753   7.653   4.639  0.0602  0.0700 -0.2578
 7899W        W23030   5.364  15.046   4.909  0.2384 -0.0895 -0.1573
 7900W        W23031  12.422   6.188  14.108 -0.0631 -0.1034 -0.2175
 7901W        W23032   5.629  11.069  14.464 -0.0002 -0.2139 -0.2377
 7902W        W23033  11.697  17.828  15.321  0.0432  0.2449 -0.2005
 7903W        W23034   6.669  11.813   4.504  0.2846 -0.1733  0.1827
 7904W        W23035  17.872   3.800   0.883  0.0240 -0.0998  0.1447
 7905W        W23036   8.536   8.438  14.576  0.1799  0.0418  0.2436
 7906W        W23037  17.048  10.831  15.859 -0.2845  0.0308 -0.1546
 7907W        W23038  15.682  17.522   5.869 -0.2042 -0.0053  0.0669
 7908W        W23039  17.325  12.984   0.408  0.2635  0.0161  0.0297
 7909W        W23040   1.560  14.799  13.569  0.4898  0.0583  0.0159
 7910W        W23041   6.159   6.903   0.252 -0.4982  0.0963  0.2477
 7911W        W23042   5.044  13.128   3.287 -0.1774 -0.0588 -0.1603
 7912W        W23043  14.629  17.273  11.955 -0.1116  0.1526  0.1157
 7913W        W23044   0.111   6.821   2.363 -0.0070  0.0055 -0.4609
 7914W        W23045  10.645  14.204   4.259 -0.2022 -0.0729 -0.0081
 7915W        W23046   3.434  15.799  10.678  0.1053  0.2130  0.4691
 7916W        W23047  13.047   0.245   2.782  0.1389 -0.1125  0.1373
 7917W        W23048  11.156  10.370  11.639 -0.0199  0.1475 -0.1696
 7918W        W23049   6.405  11.767  14.891  0.0088 -0.1667  0.1265
 7919W        W23050  11.140  14.021   0.501  0.1885  0.2501 -0.1294
 7920W        W23051   5.203   3.867   2.255 -0.2112  0.1922 -0.3741
 7921W        W23052   4.917   6.589  13.058 -0.1377  0.1203 -0.2046
 7922W        W23053  14.276  11.209   1.648  0.0702  0.1242 -0.0167
 7923W        W23054  12.197  16.527  14.748  0.0886  0.0864  0.3700
 7924W        W23055  17.393   3.278   0.282  0.2650 -0.0760 -0.1427
 7925W        W23056   5.023  10.007   2.468  0.0900 -0.1079 -0.1470
 7926W        W23057   6.236  16.312   5.915 -0.2039  0.4040  0.1374
 7927W        W23058   7.484   5.185  12.851 -0.3473  0.2024 -0.0197
 7928W        W23059   6.742  13.388  12.658  0.1532 -0.0547 -0.2730
 7929W        W23060   0.791   1.680  13.592 -0.0323  0.2886 -0.0755
 7930W        W23061  17.753   6.623  11.657 -0.2058 -0.1252  0.2059
 7931W        W23062   2.816  12.093   4.973 -0.1533 -0.1737 -0.0255
 7932W        W23063  13.153   9.990   1.928  0.0585 -0.0444  0.1843
 7933W        W23064   5.004   9.581   4.678  0.0214 -0.1538  0.0640
 7934W        W23065   0.761  14.582  11.808 -0.0165 -0.0843  0.0439
 7935W        W23066   1.775  10.396  14.867  0.3185 -0.1954  0.0411
 7936W        W23067  16.361  12.921   2.683 -0.1045  0.1571  0.0367
 7937W        W23068  13.868  18.417   2.863  0.2744  0.0816  0.0241
 7938W        W23069  10.031  12.283  13.422 -0.2515 -0.1557 -0.2276
 7939W        W23070  13.447  13.261  15.600  0.0301  0.0182  0.1294
 7940W        W23071   8.218   1.007  13.094 -0.0786 -0.1072 -0.2735
 7941W        W23072  11.004  10.286   0.030  0.0807  0.4325 -0.3595
 7942W        W23073  13.263   7.531   0.495  0.0772 -0.1010 -0.2723
 7943W        W23074   2.895   4.643  15.918 -0.3638  0.7459  0.3052
 7944W        W23075   2.903   8.773  13.689  0.3161  0.0936 -0.1231
 7945W        W23076   2.439  17.544  12.816  0.0294  0.1687  0.2635
 7946W        W23077  16.830   4.108  12.373 -0.0182 -0.1399  0.0178
 7947W        W23078  16.642  14.723  13.741  0.1888 -0.0465  0.0348
 7948W        W23079  17.624   7.876  14.732 -0.2947  0.1697  0.1060
 7949W        W23080  14.696   8.524   3.706 -0.0640  0.0104  0.2235
 7950W        W23081  17.470  12.435   4.363 -0.3247 -0.1185  0.1503
 7951W        W23082   9.754  13.772  11.177 -0.0817  0.0910  0.1665
 7952W        W23083   4.867  14.943  13.985 -0.1332  0.1467  0.0671
 7953W        W23084  10.400  13.784   3.166 -0.0910  0.2114  0.1224
 7954W        W23085   0.569  10.571   5.557  0.0924 -0.2359 -0.1756
 7955W        W23086   0.165   6.904  13.988 -0.0799  0.1316 -0.0744
 7956W        W23087  14.212  16.535   0.269 -0.2344 -0.0334  0.4970
 7957W        W23088   1.783  14.877  10.585  0.0762  0.0656  0.2147
 7958W        W23089  10.807  18.161   5.347 -0.0240  0.2588  0.1413
 7959W        W23090   4.836   0.097   1.605 -0.2138  0.1708 -0.1502
 7960W        W23091  15.068   3.497  15.693  0.0256  0.4211  0.1380
 7961W        W23092  18.346   4.133   0.680  0.3130 -0.1985 -0.0010
 7962W        W23093  16.900   2.458   4.701  0.1544 -0.1247 -0.1420
 7963W        W23094   5.800  17.348   3.437  0.0588  0.1055  0.3336
 7964W        W23095  17.905  13.334  13.685  0.3064  0.1732 -0.1488
 7965W        W23096   4.827  11.674  12.759 -0.0328 -0.0788 -0.0234
 7966W        W23097   2.536   2.500   0.365 -0.2296  0.1553  0.4729
 7967W        W23098   8.145   2.765  12.870  0.3501 -0.2379  0.0801
 7968W        W23099  17.192   8.231   0.355  0.0841  0.3643  0.1613
 7969W        W23100  16.624   3.779  10.580  0.0751  0.1008 -0.0906
 7970W        W23101  15.830  16.855  13.792  0.1050 -0.2498 -0.2682
 7971W        W23102  10.266  13.461   0.551  0.0988 -0.2971 -0.0829
 7972W        W23103  12.650   7.683  12.553 -0.2249  0.0241 -0.2070
 7973W        W23104   6.250  16.533   1.969 -0.1380  0.0808 -0.1230
 7974W        W23105  15.118  15.471   3.154 -0.2622 -0.1361  0.0835
 7975W        W23106   2.594  18.359   2.334  0.1340  0.1024 -0.2901
 7976W        W23107  13.061  10.675  15.699  0.3413  0.0122  0.2201
 7977W        W23108  13.705   3.797  14.395 -0.0354  0.0889  0.0202
 7978W        W23109  16.181   8.675   4.271 -0.1965 -0.1033  0.2127
 7979W        W23110   3.790  14.501   1.060 -0.3969  0.0130  0.2612
 7980W        W23111   2.858   9.546   2.520 -0.0400 -0.0108 -0.0203
 7981W        W23112   4.703   7.619   2.335  0.4089  0.2458 -0.1110
 7982W        W23113  15.147   3.718  13.612 -0.0806 -0.4873  0.1415
 7983W        W23114   2.776   6.920  11.297 -0.5133  0.1186 -0.1443
 7984W        W23115  11.977   1.947   2.651  0.3397 -0.0470  0.0130
 7985W        W23116  10.177  10.934  13.181 -0.1430  0.2784  0.0959
 7986W        W23117   6.518  10.843   0.767 -0.0909  0.3586  0.1039
 7987W        W23118  16.885  10.626  11.930  0.2426 -0.1651  0.1223
 7988W        W23119  10.622  17.351   4.912 -0.0652  0.2089  0.0310
 7989W        W23120   0.657   5.296  11.749  0.0667  0.1802 -0.0384
 7990W        W23121  15.466   8.386   4.957 -0.0132 -0.1543 -0.0118
 7991W        W23122   7.565   4.266   3.847  0.0048  0.1053 -0.2721
 7992W        W23123   3.069   1.372  10.804  0.0564 -0.1255 -0.0730
 7993W        W23124  14.363   1.759   3.111 -0.2823 -0.2832 -0.3513
 7994W        W23125  14.998  13.475   0.862 -0.1006 -0.2357 -0.1856
 7995W        W23126   9.604  14.975   5.185  0.2481 -0.0408 -0.5635
 7996W        W23127  10.040  12.485   4.591  0.0583  0.3812  0.0733
 7997W        W23128   9.945   6.439  13.375 -0.3351 -0.0226 -0.0207
 7998W        W23129  13.218  11.130   5.452 -0.1578 -0.1188 -0.0436
 7999W        W23130   7.674   0.626  15.645  0.0064  0.0753  0.0965
 8000W        W23131  16.337   9.217  13.361 -0.0634 -0.0779 -0.2213
 8001W        W23132   2.567  17.192  10.235  0.0992  0.0219  0.3589
 8002W        W23133  17.936  10.795  10.904 -0.0662  0.3453  0.0123
 8003W        W23134  14.383  10.201   5.356  0.2226 -0.3701  0.1924
 8004W        W23135  15.170  15.965   5.266  0.0125 -0.4062  0.2541
 8005W        W23136  14.763   2.400   3.206  0.2717  0.1499  0.0042
 8006W        W23137   7.757   0.267  15.058 -0.1863 -0.0176  0.1717
 8007W        W23138   8.187  11.693   2.903  0.1152  0.2299  0.0105
 8008W        W23139   0.147   4.794   1.744  0.0848  0.2908 -0.0506
 8009W        W23140   6.846  14.152   4.384 -0.0953 -0.2014  0.0041
 8010W        W23141   0.415   0.257  15.517 -0.0767  0.0672 -0.1475
 8011W        W23142  15.124  11.645   1.942  0.2312 -0.1198 -0.0275
 8012W        W23143   8.727   4.023  13.101 -0.0169 -0.2852 -0.4265
 8013W        W23144   4.481   3.901  11.249  0.2836 -0.0556 -0.1801
 8014W        W23145   3.220  17.541  16.021 -0.1958 -0.2239  0.0766
 8015W        W23146  12.624  16.795  14.550  0.0910  0.2485  0.2982
 8016W        W23147   4.597   0.251   1.148 -0.2939 -0.1454 -0.4864
 8017W        W23148  10.573   5.018  14.706 -0.3964 -0.1214 -0.1478
 8018W        W23149   5.434   3.123   1.782 -0.1797 -0.1279  0.0719
 8019W        W23150  11.226   5.070   6.659  0.2962  0.1408  0.0222
 8020W        W23151   5.374   0.377   4.769 -0.0122 -0.2336 -0.0450
 8021W        W23152  16.328   2.071   5.943  0.1307  0.1083  0.0122
 8022W        W23153   0.113   7.800   4.536  0.1562 -0.0724 -0.1078
 8023W        W23154   4.159  15.544   4.179  0.0705 -0.1181 -0.2585
 8024W        W23155  12.465  11.066   2.515  0.1509  0.2317  0.0746
 8025W        W23156  18.359  16.764   3.038  0.1178  0.0372 -0.5274
 8026W        W23157  15.889  12.172  15.597  0.2254  0.1886  0.0382
 8027W        W23158   7.831   6.885   0.158 -0.0085  0.2665  0.1232
 8028W        W23159  15.413   8.320  12.225 -0.0226  0.0800  0.4053
 8029W        W23160   6.853   4.612   2.504  0.2543 -0.1758  0.2011
 8030W        W23161  15.485  16.341   2.111  0.1711  0.1694 -0.0731
 8031W        W23162  12.507   3.347   3.741  0.0859 -0.2740 -0.1453
 8032W        W23163   9.875  12.611  12.533  0.0204  0.3651  0.3605
 8033W        W23164  11.131  12.818  13.948 -0.1125  0.3714 -0.2971
 8034W        W23165  11.588   6.068   2.148 -0.0731  0.1339 -0.3197
 8035W        W23166   1.853   4.025   1.742  0.0333  0.0204  0.0560
 8036W        W23167  17.900   5.133   2.295 -0.2259  0.2616 -0.2603
 8037W        W23168   0.157   8.310  11.792  0.3493 -0.0839 -0.0186
 8038W        W23169  13.699  16.195  14.943  0.3106 -0.0267 -0.1138
 8039W        W23170  10.699   5.376  14.422 -0.0269 -0.0605  0.3434
 8040W        W23171   7.941  15.323  12.670  0.1550 -0.2457  0.0755
 8041W        W23172   2.878   1.421   4.213 -0.1280  0.1930 -0.1057
 8042W        W23173   8.907   2.156   2.066  0.0712 -0.1113 -0.3005
 8043W        W23174   3.013   8.394   6.366  0.0662  0.2345 -0.1406
 8044W        W23175   4.792  16.484  14.401 -0.4259 -0.0933  0.1752
 8045W        W23176   9.587  16.560   2.630  0.1044  0.2325 -0.2330
 8046W        W23177  15.274  14.685  15.268 -0.3697  0.4357  0.0366
 8047W        W23178   4.727  12.239   2.330  0.1721  0.0299 -0.1199
 8048W        W23179   3.004   4.720  14.318  0.1487 -0.1351  0.0476
 8049W        W23180  15.666   8.662   0.092 -0.0303 -0.1000  0.0552
 8050W        W23181   9.997   2.598   4.203 -0.0163 -0.4959  0.0132
 8051W        W23182  14.756   3.854  15.915 -0.2506  0.1475  0.3873
 8052W        W23183  12.345  17.678  10.006 -0.0982  0.0635 -0.3129
 8053W        W23184   8.091   3.143   3.537  0.0873  0.1586  0.0155
 8054W        W23185  15.948  17.236  13.402  0.1023  0.3037 -0.0270
 8055W        W23186   8.595   9.875   2.953 -0.3892 -0.1805  0.0523
 8056W        W23187   5.686  10.476   2.403  0.2662  0.0053 -0.5102
 8057W        W23188   9.175  16.673   1.079  0.5802  0.1116 -0.2769
 8058W        W23189   1.213  10.006  12.212 -0.0249  0.0229  0.1566
 8059W        W23190  15.319  13.118   0.788 -0.0398 -0.0665  0.2784
 8060W        W23191   8.458   3.072  11.232 -0.1563 -0.1499  0.1364
 8061W        W23192   2.804  10.470   0.183 -0.0341 -0.2121 -0.1393
 8062W        W23193   4.017   1.700   0.168 -0.0183  0.1139 -0.0796
 8063W        W23194  16.761  12.113  11.054  0.1966  0.0362 -0.1387
 8064W        W23195  12.970   1.733   1.591 -0.1625 -0.1839 -0.3101
 8065W        W23196   1.397  10.619  15.789 -0.0704  0.4567 -0.1783
 8066W        W23197  15.659   5.053  14.929 -0.1570  0.0991 -0.1224
 8067W        W23198   6.439   7.521  11.050  0.2982 -0.2591  0.0641
 8068W        W23199   2.153  16.439   3.413  0.0859 -0.2268  0.0992
 8069W        W23200   3.074   8.735   2.206  0.1171 -0.1152 -0.2016
 8070W        W23201   7.271  12.958  12.061 -0.3810 -0.1531  0.0616
 8071W        W23202   9.343   0.382   1.580  0.0854 -0.0243  0.0668
 8072W        W23203  15.469   6.283  13.855 -0.0667  0.4664  0.0644
 8073W        W23204  10.731  14.750  11.657 -0.1041 -0.1404  0.1733
 8074W        W23205  13.511   9.811  15.412 -0.0171  0.0571 -0.3052
 8075W        W23206  10.774   6.136   4.745 -0.2379 -0.1898 -0.0455
 8076W        W23207   0.352  12.781   2.109 -0.1982 -0.2743 -0.1733
 8077W        W23208  11.063  13.597  13.694  0.0860  0.0221 -0.1558
 8078W        W23209   8.029  10.253   2.023 -0.0038  0.0353 -0.1985
 8079W        W23210   8.278   7.550   0.106  0.0938 -0.1104 -0.3151
 8080W        W23211  15.767   3.327  12.058  0.0768 -0.1060  0.1065
 8081W        W23212  16.716   6.123  12.965  0.0941 -0.0756  0.1267
 8082W        W23213  17.591   5.061  16.066 -0.3273 -0.1410 -0.3900
 8083W        W23214   2.229  18.444  12.347 -0.1281 -0.0138  0.1309
 8084W        W23215  12.889  11.319  14.968 -0.0796  0.2084 -0.0569
 8085W        W23216   5.877   6.158   1.848 -0.1461  0.0933 -0.0441
 8086W        W23217  13.607   4.316  14.053 -0.0169 -0.0433 -0.2007
 8087W        W23218  12.869  13.438   5.262  0.0371  0.1953  0.0552
 8088W        W23219   3.584   3.185   0.623  0.3301 -0.1841  0.3420
 8089W        W23220   2.176   2.795  12.109  0.1365 -0.0482 -0.0984
 8090W        W23221  13.785   7.715   4.920  0.1359  0.2868  0.0496
 8091W        W23222  17.830   9.436   2.725  0.0078  0.2078  0.0864
 8092W        W23223   4.091  15.031   0.243  0.1902 -0.0738  0.2314
 8093W        W23224   4.502  16.042  15.981 -0.3626  0.2565 -0.3231
 8094W        W23225  17.876   0.497   3.989  0.1530 -0.3296  0.0183
 8095W        W23226   6.623   6.648   1.975  0.1089 -0.0595  0.4008
 8096W        W23227   6.953  12.812  15.075 -0.1082  0.1106 -0.0317
 8097W        W23228  15.588   4.821  10.446  0.2602 -0.1595 -0.2909
 8098W        W23229  14.204  12.796  12.704 -0.2471 -0.1852 -0.1941
 8099W        W23230   5.544   7.692  15.341  0.1481  0.1069  0.3779
 8100W        W23231   7.224   0.231   3.360 -0.0428 -0.0534 -0.0248
 8101W        W23232  11.426   3.014   2.748 -0.2205 -0.2534 -0.2688
 8102W        W23233   1.064   5.519  14.907 -0.0111  0.1426  0.0799
 8103W        W23234   4.770  10.628  13.018 -0.2455  0.2840  0.1970
 8104W        W23235   7.515  13.550  12.347  0.2992 -0.1460  0.0966
 8105W        W23236  15.317   2.308   3.162  0.0657 -0.1532 -0.0038
 8106W        W23237  15.065   5.423  14.257 -0.0112  0.0404  0.1694
 8107W        W23238   3.888   9.813  13.976 -0.0911  0.3617  0.2564
 8108W        W23239  12.147  16.880  11.899  0.1056  0.0617 -0.1560
 8109W        W23240  15.648   6.480  12.218 -0.1146  0.0987 -0.2307
 8110W        W23241  11.862   7.942  11.650  0.1659 -0.4292  0.3074
 8111W        W23242   4.928   3.470   0.940  0.0144  0.1584 -0.0577
 8112W        W23243   3.856   6.250  15.907  0.2623 -0.1962  0.0869
 8113W        W23244  14.067  15.075   1.211  0.0876  0.0070  0.0505
 8114W        W23245   7.774  16.870  11.888  0.0772  0.3809  0.0129
 8115W        W23246   0.399  16.966  12.582  0.2514 -0.2018  0.0238
 8116W        W23247   2.083   9.325   1.446 -0.1000 -0.0552  0.0755
 8117W        W23248   3.230   9.772   2.907  0.3811  0.2120  0.1204
 8118W        W23249  10.671  10.710  12.566 -0.4156  0.2537  0.0094
 8119W        W23250  14.324  18.367   1.772  0.2395  0.0370 -0.1401
 8120W        W23251   9.483  12.445   4.726 -0.0290 -0.1400 -0.1907
 8121W        W23252  14.866  13.475  15.563  0.0453  0.2117 -0.0291
 8122W        W23253  10.841  10.483  14.397  0.0867 -0.0120 -0.4036
 8123W        W23254   0.330   9.187  11.730  0.0172 -0.0164  0.0290
 8124W        W23255   3.904  11.745  13.317 -0.0715 -0.1838  0.1066
 8125W        W23256  16.008  14.318  12.320  0.1835 -0.1070 -0.2392
 8126W        W23257  12.036  15.720   3.613 -0.2557 -0.2095  0.0517
 8127W        W23258   7.893   0.733   2.033 -0.0954  0.1209 -0.1836
 8128W        W23259   5.678   2.842   0.229  0.0500  0.2025  0.1465
 8129W        W23260  11.917  13.481  14.756  0.0932 -0.2691  0.0849
 8130W        W23261   5.487  11.654   0.250 -0.0528  0.1440  0.1803
 8131W        W23262   8.520   0.033   2.101  0.3354 -0.0984 -0.3247
 8132W        W23263   5.869  16.248   0.324 -0.1401  0.0733  0.3366
 8133W        W23264   7.063   1.412   4.503  0.2094  0.1983  0.0463
 8134W        W23265  11.048   8.640  15.354  0.1834 -0.1517 -0.1302
 8135W        W23266  16.574  17.844   5.588  0.0171  0.2222  0.3680
 8136W        W23267  10.245   3.497   2.560 -0.1824 -0.3015 -0.1328
 8137W        W23268   5.936   3.621  15.907 -0.4078 -0.1329  0.0148
 8138W        W23269  15.555  11.363  14.392  0.3951 -0.0488  0.1464
 8139W        W23270  12.592  13.039   1.218  0.1015  0.1295 -0.0540
 8140W        W23271  13.752  13.164   4.064  0.1653 -0.0281  0.2496
 8141W        W23272   2.754  10.972   5.597 -0.0264 -0.4271 -0.1390
 8142W        W23273   7.956  10.763   4.946 -0.0048 -0.0751  0.2841
 8143W        W23274   1.266   4.564  11.209  0.3539 -0.3334  0.1878
 8144W        W23275  15.872   3.574  14.966  0.0719  0.1361 -0.1580
 8145W        W23276   7.815   6.137   5.426  0.1604 -0.0095  0.2454
 8146W        W23277  18.465  16.671  14.937  0.0037 -0.4425 -0.1550
 8147W        W23278   3.357  10.897  11.546  0.2472 -0.1428  0.2763
 8148W        W23279  16.141  11.019   1.344 -0.2234  0.2000  0.2614
 8149W        W23280   9.124   7.015   0.428 -0.0266 -0.1464  0.0114
 8150W        W23281   7.920  16.042  14.104 -0.0197  0.1337 -0.0745
 8151W        W23282  16.081   1.003   0.371 -0.2647  0.1911 -0.3291
 8152W        W23283   9.164  15.094  11.129 -0.1065  0.2269  0.0336
 8153W        W23284  13.341   5.763   2.622 -0.2853  0.1509 -0.2343
 8154W        W23285  14.975   6.684   1.547  0.0238  0.0791 -0.2732
 8155W        W23286   6.265  14.494  12.241  0.1136 -0.0553  0.4629
 8156W        W23287  18.488   2.376  11.907 -0.3830  0.2590 -0.2324
 8157W        W23288   2.973   0.395  11.028  0.0040 -0.1169 -0.2279
 8158W        W23289  10.135   2.725   5.195  0.0146  0.3971  0.1227
 8159W        W23290   5.414   4.746  15.454 -0.2315  0.1097 -0.0096
 8160W        W23291  14.531  17.007   1.496 -0.0231  0.3287 -0.2343
 8161W        W23292   1.522  17.701  10.176  0.0120  0.3250  0.0329
 8162W        W23293  15.554  13.335  12.147  0.1311  0.0555  0.0384
 8163W        W23294   1.844   4.373  13.618  0.3373  0.1861 -0.1716
 8164W        W23295  13.247  11.147  13.781 -0.2784 -0.1080  0.1508
 8165W        W23296   1.049   6.482   5.916  0.1404 -0.1404 -0.0358
 8166W        W23297  14.549  12.154   3.397  0.4101 -0.0607 -0.0862
 8167W        W23298   5.242   5.752   5.017  0.2873 -0.0868  0.1178
 8168W        W23299  15.970  14.823  12.593  0.1384  0.0534 -0.1432
 8169W        W23300  13.357   7.437   0.987 -0.0162 -0.0185 -0.0306
 8170W        W23301  11.914  17.396   3.521  0.0102  0.0081 -0.0226
 8171W        W23302   6.299  10.204   4.487 -0.0599  0.1966  0.4203
 8172W        W23303   0.685  14.495   2.735 -0.1909  0.3946  0.0204
 8173W        W23304   5.227   0.885   2.360  0.0349  0.0090 -0.3910
 8174W        W23305   6.840   6.767  15.477 -0.1223  0.0295  0.0597
 8175W        W23306  12.330  12.489  11.074  0.1240 -0.0468  0.3906
 8176W        W23307   3.838   7.608  16.045  0.3747 -0.2835 -0.2463
 8177W        W23308  13.976   2.106  12.979 -0.1547  0.0346  0.1414
 8178W        W23309  13.425  11.294   4.976 -0.0102  0.1453  0.2633
 8179W        W23310  14.396   8.328  10.591 -0.1898 -0.2500 -0.1982
 8180W        W23311  17.121  17.292   2.342  0.0560 -0.1356 -0.0757
 8181W        W23312  12.140   1.888   6.044  0.0297 -0.0049  0.1741
 8182W        W23313   5.330  15.798   4.247  0.1636 -0.0636  0.0167
 8183W        W23314   7.742  18.435   2.446  0.3836 -0.0134 -0.0628
 8184W        W23315   8.361  11.096   4.339 -0.0047  0.0399  0.3839
 8185W        W23316   3.726   9.427   5.369 -0.0778  0.1514 -0.4013
 8186W        W23317  12.501   5.355   5.957  0.1949 -0.0268  0.0773
 8187W        W23318  13.929   1.809  15.483  0.3014  0.0260  0.4102
 8188W        W23319   3.395   9.647  11.440  0.1869  0.0809  0.0506
 8189W        W23320   6.658  17.269   4.167 -0.0419  0.0756  0.2775
 8190W        W23321   0.487   8.635  12.599 -0.1876  0.1409 -0.1602
 8191W        W23322  13.857   4.400  12.853  0.1604 -0.2569 -0.1121
 8192W        W23323   4.995  12.574   5.567  0.0599 -0.3874 -0.2758
 8193W        W23324  15.040  10.597  12.813  0.0699 -0.0571 -0.1395
 8194W        W23325  13.649   3.808   0.532  0.5520  0.0410  0.3484
 8195W        W23326  17.465  12.022   3.725 -0.2044 -0.2717  0.0513
 8196W        W23327  11.840   0.050  14.228 -0.1513 -0.0436 -0.0850
 8197W        W23328  14.964  18.173  12.794 -0.3203 -0.1600 -0.2196
 8198W        W23329   4.904  12.356  15.311  0.2642 -0.2688 -0.0477
 8199W        W23330  16.798  12.184   1.558 -0.2294  0.3969  0.1540
 8200W        W23331  17.944   4.929  11.232 -0.1199  0.1027  0.0652
 8201W        W23332  11.122   5.857   1.948 -0.3291 -0.0263  0.1629
 8202W        W23333   5.427  10.062   0.676 -0.3253  0.5494 -0.2005
 8203W        W23334   4.093   1.058   1.735  0.0100 -0.1397  0.2957
 8204W        W23335  11.011   7.038  14.601  0.3130  0.0427  0.1499
 8205W        W23336   7.858   0.928   4.777 -0.2891  0.0659 -0.2196
 8206W        W23337  17.265  17.093   1.668  0.0209  0.0554 -0.1422
 8207W        W23338  12.641   1.801   0.707  0.0706 -0.2541  0.0262
 8208W        W23339  12.023  10.396   5.220  0.0845 -0.4379  0.0649
 8209W        W23340  12.086  18.272   2.044  0.1979 -0.1923  0.0614
 8210W        W23341  17.957   5.629   0.797  0.2931 -0.0274  0.1324
 8211W        W23342   8.614  15.429  13.849 -0.0698  0.0634  0.0946
 8212W        W23343  18.118   1.649   1.935  0.1847 -0.1960  0.1369
 8213W        W23344   3.198  11.792   1.631  0.1947  0.1869  0.0951
 8214W        W23345  17.233  12.288  14.887 -0.0796 -0.1151 -0.4362
 8215W        W23346  10.766  15.822  15.262  0.1244  0.0315 -0.0288
 8216W        W23347  13.893  15.079  12.319  0.0429 -0.0966 -0.1187
 8217W        W23348   1.232  13.126   0.884 -0.1776 -0.1195  0.2006
 8218W        W23349   6.673   9.440  11.126  0.0897 -0.4904  0.1151
 8219W        W23350   2.492   1.452   5.234 -0.2264  0.0897  0.4254
 8220W        W23351  12.641   4.871  12.921  0.3699  0.0489 -0.0404
 8221W        W23352  12.981  10.674   1.831  0.1523 -0.1179  0.0446
 8222W        W23353   7.360  17.146   1.257 -0.0665  0.0253 -0.3263
 8223W        W23354   2.637   5.480  13.650  0.2036 -0.1646 -0.0910
 8224W        W23355  12.692   7.613  15.847  0.1639 -0.0108  0.1570
 8225W        W23356   2.200  12.663   3.472  0.1245 -0.2337  0.0109
 8226W        W23357  17.339   2.850  14.454  0.2091  0.1170 -0.2079
 8227W        W23358   1.934   8.925  13.613 -0.2649 -0.0548 -0.0031
 8228W        W23359  17.354   3.218   4.364  0.3534 -0.2115 -0.0327
 8229W        W23360   8.343   8.537  13.543 -0.2367 -0.0432 -0.1540
 8230W        W23361   0.463   8.881  13.783  0.0258 -0.1428  0.0156
 8231W        W23362   6.308   5.739  12.390 -0.0914 -0.2750  0.1224
 8232W        W23363   3.228   8.240  11.587  0.1968  0.0039 -0.3836
 8233W        W23364  14.554   3.388  14.231  0.2397  0.3329 -0.2820
 8234W        W23365   1.001   3.278  15.366  0.0815  0.0792  0.1255
 8235W        W23366   2.363  11.903   5.421  0.1828  0.0838 -0.1993
 8236W        W23367   4.594   6.228   4.179 -0.3653  0.0546  0.0527
 8237W        W23368   8.395  12.081  12.737  0.1067  0.4007 -0.0167
 8238W        W23369   8.127  18.219   4.280  0.1508 -0.0759  0.2340
 8239W        W23370   9.720  18.080   1.954 -0.0822 -0.0080  0.1103
 8240W        W23371   0.547   5.587  12.149  0.0468  0.0515 -0.0421
 8241W        W23372   1.887   2.204  10.696  0.2375  0.0704  0.1456
 8242W        W23373  13.912   8.048   3.831 -0.3211 -0.1740 -0.1860
 8243W        W23374  18.104  13.271  13.091  0.0647  0.0105 -0.2299
 8244W        W23375  16.327   6.671  14.482  0.1898  0.1969 -0.0589
 8245W        W23376  14.238  10.062  11.198 -0.1919 -0.0563 -0.2520
 8246W        W23377   5.187  12.278   4.055  0.1799 -0.0060  0.4799
 8247W        W23378   3.944   8.223  13.726  0.1832 -0.0746 -0.0320
 8248W        W23379   8.756   4.297  14.935 -0.1531 -0.1147  0.0047
 8249W        W23380   5.517  18.059  11.546  0.0684  0.4067  0.0403
 8250W        W23381   7.069   9.830   5.489  0.0589  0.0393 -0.1694
 8251W        W23382   9.756   3.397   2.438  0.1231  0.0615  0.1345
 8252W        W23383   9.283   7.759  14.133 -0.0774 -0.0923  0.2276
 8253W        W23384  13.944  13.035   0.475  0.4232  0.3021  0.6779
 8254W        W23385  11.261   3.532  14.665  0.0854 -0.1668 -0.1918
 8255W        W23386  10.765  18.290   1.169 -0.1183 -0.1497  0.1786
 8256W        W23387  13.194  18.340   4.597  0.0069  0.0190  0.0509
 8257W        W23388  12.710  16.904   4.706  0.0648  0.0459 -0.2753
 8258W        W23389  12.988   9.693   0.308 -0.2377  0.0062 -0.0860
 8259W        W23390   4.019   8.825   2.419 -0.0076 -0.0559  0.1728
 8260W        W23391  16.956   3.454   4.109  0.1117  0.1079 -0.0126
 8261W        W23392  12.452   8.011   1.387 -0.2272  0.1405  0.4411
 8262W        W23393   9.011  16.021  12.632 -0.0120 -0.1545  0.0256
 8263W        W23394   3.364   1.146   3.997  0.1945  0.1864  0.0377
 8264W        W23395   6.488   5.117   3.396  0.2249 -0.1164  0.1189
 8265W        W23396  14.041   2.201  15.200 -0.1281  0.0853 -0.0456
 8266W        W23397  11.412   1.069  16.090  0.0289 -0.1483 -0.0920
 8267W        W23398   8.735  16.597  15.161  0.0709  0.1272  0.1657
 8268W        W23399  14.446   2.920   2.366  0.0584 -0.0609 -0.2321
 8269W        W23400  14.672   7.547  12.378 -0.0861  0.3439 -0.0505
 8270W        W23401   4.665   4.805   3.471  0.1097  0.0089  0.1818
 8271W        W23402  17.509  10.266   4.832  0.0233 -0.2939  0.3780
 8272W        W23403   1.736  10.830   2.497  0.1042 -0.1503 -0.0223
 8273W        W23404   7.847   7.411   6.480 -0.3751 -0.3016 -0.0088
 8274W        W23405   2.449   1.172   4.571 -0.1807  0.2636  0.2952
 8275W        W23406   8.288  14.195   3.027 -0.6043  0.3366  0.0317
 8276W        W23407   9.317  14.053   3.835  0.3010  0.0018  0.3653
 8277W        W23408  16.396  12.024  15.501  0.3140 -0.0613 -0.2501
 8278W        W23409  12.093   1.036   4.129 -0.2258  0.1088  0.0708
 8279W        W23410   7.006  18.259  12.605 -0.0315  0.0237 -0.0460
 8280W        W23411   6.269   7.799   4.713  0.0876 -0.0919  0.0704
 8281W        W23412  10.870  16.576  12.332  0.0990 -0.0795 -0.1268
 8282W        W23413   4.462   8.648   4.442 -0.0759 -0.2550 -0.2077
 8283W        W23414   1.197  16.724  15.264  0.0010 -0.0695 -0.0161
 8284W        W23415   1.033  17.547  11.197 -0.2111 -0.0026 -0.1189
 8285W        W23416   2.313   4.497   4.472 -0.0089 -0.1731 -0.2350
 8286W        W23417  12.326   0.237  13.717  0.2031 -0.1274 -0.4328
 8287W        W23418   6.206   9.482  13.667  0.1817  0.0282 -0.0145
 8288W        W23419   7.833   8.856  15.946  0.0180 -0.0767  0.1394
 8289W        W23420  13.002   3.367   0.068 -0.1177  0.1727 -0.1989
 8290W        W23421  17.959  16.898   0.750  0.0999 -0.0614  0.1475
 8291W        W23422   2.198   0.429   3.724 -0.2690  0.1116 -0.1610
 8292W        W23423   9.630   6.886  12.789  0.0257 -0.1416 -0.0416
 8293W        W23424  12.399   7.558   5.483 -0.0341  0.0902 -0.0362
 8294W        W23425  17.438  16.717   2.113  0.0143  0.2301 -0.0408
 8295W        W23426  16.913   2.841  10.042 -0.4578  0.2583  0.1583
 8296W        W23427   4.119   5.011  13.180  0.3206  0.4756  0.1443
 8297W        W23428   7.356  15.748   4.379 -0.0967  0.1016  0.1703
 8298W        W23429  13.997  17.225  13.091  0.0402  0.0715 -0.1898
 8299W        W23430  10.540   6.896   3.778  0.1005  0.1665 -0.0687
 8300W        W23431  15.112  17.527   4.729  0.0865  0.2908 -0.1214
 8301W        W23432  12.426   8.660   5.272  0.0733  0.1537 -0.2886
 8302W        W23433   4.320  17.253   5.020 -0.2950  0.0635 -0.0624
 8303W        W23434   3.643  15.493   2.234  0.1438 -0.2055  0.0407
 8304W        W23435  15.163   3.930   1.931  0.4094 -0.0385  0.4500
 8305W        W23436  13.834  18.358   1.823 -0.4526 -0.0024  0.2291
 8306W        W23437   6.673  14.291  14.873  0.1637 -0.1387 -0.1159
 8307W        W23438   8.342   7.839  14.502  0.0730 -0.1425  0.1494
 8308W        W23439  11.980   0.239   1.182  0.1043  0.0101  0.0383
 8309W        W23440  13.744  14.094   2.024  0.0388  0.1784 -0.1283
 8310W        W23441   8.694   4.786  14.836  0.0901  0.2230  0.1608
 8311W        W23442   1.629   5.022  11.130 -0.0005  0.1787  0.2265
 8312W        W23443  13.534  10.294   2.503  0.2489  0.1752 -0.0240
 8313W        W23444   9.576  15.551  14.024  0.1431 -0.1552 -0.4022
 8314W        W23445  11.287   1.940   2.405 -0.2422 -0.2389 -0.2182
 8315W        W23446   6.141   9.729   3.462 -0.1612  0.0350 -0.2220
 8316W        W23447  10.479  15.532   5.102 -0.0089  0.0485 -0.2045
 8317W        W23448   3.500  12.153   0.324 -0.1749 -0.0399  0.0844
 8318W        W23449   1.843  16.722   2.353  0.1086 -0.0844  0.0016
 8319W        W23450   3.418   5.878   4.862 -0.2126 -0.2033  0.1321
 8320W        W23451   8.040   1.769   1.637 -0.1242  0.4017  0.0029
 8321W        W23452   6.424  15.521   4.099  0.0085 -0.2847  0.0263
 8322W        W23453  13.529  11.542   5.461  0.4581  0.0529  0.5072
 8323W        W23454   1.792   8.062   3.779 -0.2523  0.0423  0.2861
 8324W        W23455   2.515  12.558   4.736  0.1849  0.2966  0.0555
 8325W        W23456   2.124   5.336  13.772 -0.0893  0.1221  0.0902
 8326W        W23457   4.990  18.398  14.975 -0.1488 -0.3563 -0.1009
 8327W        W23458  12.349  13.911  14.071  0.0661 -0.0981  0.2771
 8328W        W23459  16.548  11.175  11.372 -0.3851  0.1238  0.1215
 8329W        W23460  11.316  13.617   5.141 -0.2163 -0.1964  0.0265
 8330W        W23461  10.538   5.320  15.104 -0.0859  0.1096  0.0587
 8331W        W23462  17.520   2.364   2.456  0.0211  0.1881  0.0068
 8332W        W23463  13.516   7.066  16.009 -0.1187 -0.1056  0.0309
 8333W        W23464   0.645   3.983  11.825  0.3431 -0.3880  0.0314
 8334W        W23465   1.308  15.676   3.984  0.0481  0.0703 -0.3558
 8335W        W23466  18.353  14.844   4.234  0.0732  0.2569 -0.2799
 8336W        W23467  12.764  11.694   0.119  0.2397  0.1648 -0.0287
 8337W        W23468  16.324  14.138  13.765  0.1579 -0.1021  0.3685
 8338W        W23469  16.187  12.430  11.861 -0.1517  0.1063  0.0622
 8339W        W23470  18.173  13.404  16.042  0.1940  0.0003 -0.0838
 8340W        W23471   3.075  16.303  10.792  0.0937 -0.0013  0.1474
 8341W        W23472   0.569   9.357  15.994  0.3387  0.0518  0.3480
 8342W        W23473  14.814   9.661  15.592 -0.1194  0.1052 -0.0438
 8343W        W23474   7.338   2.145  10.535 -0.1171  0.3384  0.1603
 8344W        W23475  10.529  17.729  11.105 -0.0601  0.1922  0.0305
 8345W        W23476  10.208  10.940   0.457  0.3224 -0.1154 -0.0867
 8346W        W23477  10.531   9.513  13.638  0.0374  0.3214  0.0507
 8347W        W23478  16.218   3.757   2.060 -0.2831  0.0225  0.3440
 8348W        W23479   8.896  10.900  12.131  0.0245 -0.1449  0.3491
 8349W        W23480   5.556  17.411  14.349  0.1008 -0.2398  0.0174
 8350W        W23481   6.733  11.259   5.241  0.1433 -0.2427 -0.2424
 8351W        W23482  18.003   8.791  13.205 -0.0022 -0.0475  0.0167
 8352W        W23483  15.916  15.467  11.576 -0.1655  0.1515  0.0147
 8353W        W23484  17.059   8.628  11.102  0.0859 -0.3991 -0.0177
 8354W        W23485  14.124  14.410   0.590 -0.2598 -0.5562 -0.0954
 8355W        W23486   4.309   0.245  10.093  0.2631 -0.2012 -0.0338
 8356W        W23487   8.515   0.409   3.507  0.1823 -0.0104  0.1916
 8357W        W23488   1.391  18.348  15.933 -0.2347  0.0954 -0.0671
 8358W        W23489  17.458   8.163   3.184 -0.0132 -0.0215 -0.3268
 8359W        W23490  14.266  13.272   4.864 -0.1676 -0.1696  0.0289
 8360W        W23491   1.375   1.960   5.413  0.3088 -0.1684  0.0993
 8361W        W23492   8.307   3.530   0.279 -0.0537  0.1513  0.1075
 8362W        W23493  11.957   4.403   5.466  0.2186 -0.1138  0.1736
 8363W        W23494  16.440   0.442  15.301 -0.1746  0.1225 -0.3953
 8364W        W23495  15.184  15.331  14.398 -0.3451  0.1932 -0.2463
 8365W        W23496   1.378  14.778   1.052  0.2681  0.3535 -0.4834
 8366W        W23497   6.784  13.682   4.686 -0.3522 -0.2086 -0.1061
 8367W        W23498   1.827   3.166   0.569  0.0359  0.3630 -0.3030
 8368W        W23499   1.719  18.016  12.316 -0.0155  0.1225  0.0580
 8369W        W23500   4.584  15.343   4.060 -0.3013  0.1921  0.0480
 8370W        W23501   6.542  10.837  13.918  0.1407  0.1933  0.0537
 8371W        W23502  12.374   7.273  14.852  0.2462 -0.0195 -0.1164
 8372W        W23503  17.173   3.364  14.519  0.1682 -0.0038  0.0348
 8373W        W23504  12.020   9.466  13.713 -0.0094 -0.0319  0.3049
 8374W        W23505   7.501  12.058  13.537 -0.4915 -0.0316 -0.2127
 8375W        W23506  13.048   4.062   4.802 -0.0852 -0.3133  0.0833
 8376W        W23507   3.221  10.435  12.994 -0.0472  0.0791  0.0588
 8377W        W23508  10.994   5.925   0.945 -0.0013 -0.1843 -0.0118
 8378W        W23509   5.577  16.766   2.600 -0.1507 -0.0240  0.1849
 8379W        W23510   7.099   5.605   5.107 -0.1633  0.1348  0.1296
 8380W        W23511   6.121   1.367   0.093 -0.3397 -0.1620 -0.0918
 8381W        W23512   0.164   4.273  11.892  0.1983  0.2423 -0.1349
 8382W        W23513  14.965   2.545  14.263  0.0017 -0.4523  0.0694
 8383W        W23514  12.738   6.654  12.048  0.0102  0.0966 -0.0286
 8384W        W23515   6.829   0.085   4.459  0.0099  0.0633 -0.0724
 8385W        W23516   4.131   2.630   0.063 -0.1587 -0.4178  0.0500
 8386W        W23517   2.278   9.415  15.803  0.0443 -0.1354 -0.0784
 8387W        W23518  12.538   6.469  13.521 -0.5189 -0.1476 -0.1853
 8388W        W23519   9.512  16.505  13.712  0.1486  0.3482 -0.2534
 8389W        W23520  18.159  16.189  11.551  0.1933  0.2052 -0.2181
 8390W        W23521  18.186   8.381   1.938 -0.0306  0.2318  0.3464
 8391W        W23522  16.154   6.276  12.244 -0.1420  0.0762  0.1247
 8392W        W23523  10.478  14.651   0.132  0.3173 -0.2799 -0.1583
 8393W        W23524   4.788  17.675  11.847  0.0839  0.0799 -0.1740
 8394W        W23525  13.944  15.694  11.607 -0.0455  0.1074 -0.0567
 8395W        W23526  16.290   9.575  12.146 -0.1545  0.0306 -0.2605
 8396W        W23527   3.124   7.915   1.813  0.0708  0.2634 -0.0005
 8397W        W23528   9.271  18.371  13.639 -0.0725 -0.1308 -0.1514
 8398W        W23529  12.301  14.044  10.604 -0.2823 -0.0787 -0.0510
 8399W        W23530  15.095   4.164  12.609 -0.1884  0.0857  0.0782
 8400W        W23531  18.450   2.558  13.735  0.1409 -0.0352  0.1100
 8401W        W23532  17.795   6.018  12.620 -0.1587 -0.1058  0.0314
 8402W        W23533   1.611   0.783  11.584  0.3621  0.0503  0.0566
 8403W        W23534  17.775   4.679   3.833 -0.0762  0.2315  0.1716
 8404W        W23535  10.381  14.682  11.234  0.3111  0.0295 -0.1437
 8405W        W23536  12.107   1.744   0.528  0.0424 -0.1794  0.2106
 8406W        W23537   0.637   2.459  13.994 -0.1239 -0.0393  0.0882
 8407W        W23538   4.178   4.819   0.274 -0.2876 -0.1754 -0.2799
 8408W        W23539   7.470  13.241  13.825 -0.1594  0.1648  0.3177
 8409W        W23540   4.726   4.936   0.927  0.2238 -0.1016 -0.1329
 8410W        W23541   7.169   5.940  13.031  0.0266  0.1645  0.3621
 8411W        W23542   9.839   4.606  14.546 -0.1011  0.0412  0.0565
 8412W        W23543   2.980   0.468   1.436 -0.0339  0.0576 -0.2031
 8413W        W23544   1.952   6.669   0.070  0.1506  0.2468 -0.1550
 8414W        W23545  13.966  13.505   0.638 -0.1732 -0.2822 -0.1887
 8415W        W23546  12.347   7.505  15.287 -0.0810  0.0474  0.2901
 8416W        W23547  17.895  12.545  10.968  0.1327 -0.3807  0.2201
 8417W        W23548   6.118  18.382   5.057 -0.2249  0.0899  0.0273
 8418W        W23549  10.412  16.624   3.655 -0.2759  0.3923 -0.1440
 8419W        W23550   2.650  17.072   0.292  0.1039 -0.0760  0.1224
 8420W        W23551  11.667  13.319  14.332  0.0648 -0.3159  0.0088
 8421W        W23552  11.392  18.031   2.363  0.3223 -0.3084  0.0910
 8422W        W23553  16.026   4.130  14.649 -0.1537  0.1273 -0.0901
 8423W        W23554   6.683  11.321  13.028  0.0467 -0.0206 -0.1901
 8424W        W23555  16.868   4.509  13.386 -0.0685  0.0231  0.0079
 8425W        W23556   5.294   6.004  16.037  0.0205  0.3173 -0.1791
 8426W        W23557  14.348   6.253   4.321  0.0852  0.0452 -0.1659
 8427W        W23558  10.811   5.977   2.835 -0.0881 -0.0385  0.1700
 8428W        W23559  10.668  14.510   2.625  0.0345 -0.2472  0.0731
 8429W        W23560  16.103   1.669  13.581 -0.0732  0.0037  0.4381
 8430W        W23561   2.470   2.164   2.068  0.0724  0.0811  0.1530
 8431W        W23562  16.024  11.585   0.288  0.3553 -0.0204 -0.1584
 8432W        W23563   4.740   9.138   3.569 -0.0798  0.0651 -0.2013
 8433W        W23564  11.215   8.280  10.938  0.0205 -0.0276  0.1129
 8434W        W23565   7.589   8.718  12.002  0.2472  0.1254  0.0423
 8435W        W23566   6.521   6.085  16.042  0.1615  0.1068  0.0201
 8436W        W23567  14.820   9.401  13.113 -0.0121 -0.0161  0.1571
 8437W        W23568   9.241  11.235  12.152 -0.1188 -0.2516  0.1629
 8438W        W23569   6.490  14.818  14.725  0.2429  0.0219 -0.0335
 8439W        W23570   7.738   5.407   1.410 -0.4793 -0.1007 -0.3191
 8440W        W23571   0.125  10.854  12.705 -0.4184  0.1547 -0.1178
 8441W        W23572  15.158   5.371   6.787  0.0406 -0.1490  0.0223
 8442W        W23573  13.319   0.369  11.675  0.1789  0.0115 -0.1053
 8443W        W23574   7.069   6.908   3.283 -0.2702  0.1163 -0.1074
 8444W        W23575   0.523  13.764  15.406 -0.3266 -0.1952 -0.0570
 8445W        W23576  15.697  11.211  13.392  0.1063 -0.1200 -0.0565
 8446W        W23577  10.068  13.414  14.968 -0.0343  0.1866 -0.2659
 8447W        W23578  12.055   2.361   5.232 -0.2044 -0.2739  0.0941
 8448W        W23579   6.529   0.716  11.504 -0.0534 -0.0175  0.3048
 8449W        W23580   2.826  15.875   2.531 -0.1767 -0.0436  0.0654
 8450W        W23581   5.197  16.928   1.226  0.1532 -0.0229  0.0999
 8451W        W23582   7.526  14.349   2.045  0.0496  0.0104 -0.2342
 8452W        W23583   8.636   2.155   5.173 -0.0442 -0.3960  0.0596
 8453W        W23584   2.462  13.750  11.634  0.0517  0.0288  0.2901
 8454W        W23585  17.870  14.718   3.897  0.5455  0.0821 -0.0663
 8455W        W23586  17.317   8.246  15.651  0.2246  0.0561  0.1431
 8456W        W23587   2.173   7.188  14.370  0.1545  0.2169 -0.0694
 8457W        W23588  11.110  17.386  13.047 -0.1459  0.1107  0.1489
 8458W        W23589  17.052   6.329   4.531 -0.0200 -0.2762  0.1840
 8459W        W23590   1.248   1.860  13.330 -0.0075 -0.0849  0.1221
 8460W        W23591   9.213   4.531  12.755 -0.3847 -0.0668  0.1802
 8461W        W23592  10.591   1.935   1.119  0.0176  0.3123  0.0104
 8462W        W23593  12.387  14.943  13.965  0.1248  0.0154  0.5499
 8463W        W23594  17.165  12.563  14.437  0.0752 -0.0192 -0.1171
 8464W        W23595  16.905   2.962  15.827 -0.1738  0.1426 -0.1732
 8465W        W23596   9.921   8.873   1.070 -0.0923  0.1360 -0.1657
 8466W        W23597  10.348  16.319   2.346  0.0846  0.3457 -0.0296
 8467W        W23598  11.515   4.019   0.128 -0.0415  0.1824  0.0380
 8468W        W23599   3.832  15.240   1.857 -0.2414 -0.0100 -0.2686
 8469W        W23600  13.110   2.936  12.467  0.0251  0.3515  0.1871
 8470W        W23601   7.465   0.578   5.523 -0.1537 -0.2013 -0.2536
 8471W        W23602  12.722   2.891  10.356 -0.2459 -0.1033  0.1125
 8472W        W23603  11.580   0.532  10.315 -0.0290  0.0991  0.0209
 8473W        W23604  16.699  15.457  13.113  0.0120  0.0617 -0.1645
 8474W        W23605   3.110  15.972   1.546  0.4458 -0.1428 -0.0063
 8475W        W23606   1.802   4.400  12.391  0.3119  0.1394  0.0760
 8476W        W23607   6.726   5.800   4.789  0.0910  0.0285  0.2249
 8477W        W23608  11.006   1.909   4.300 -0.0012 -0.1802  0.2895
 8478W        W23609  14.778   6.858  13.277 -0.2815 -0.4094 -0.2390
 8479W        W23610   6.076   7.042  13.757  0.0518  0.1873  0.0847
 8480W        W23611   6.335   2.124   4.383 -0.0562 -0.2589  0.0700
 8481W        W23612   4.048   4.672  11.800 -0.1726  0.0983 -0.0342
 8482W        W23613   3.213  16.720  10.454  0.0220 -0.5212 -0.1594
 8483W        W23614  13.115   7.929  12.751  0.1599  0.0820 -0.1897
 8484W        W23615  13.023  16.268   3.338  0.1356  0.0334 -0.1789
 8485W        W23616   8.134  14.369  12.342  0.0028  0.0522 -0.2996
 8486W        W23617  17.399   2.208  13.332  0.1841  0.0948 -0.0976
 8487W        W23618  10.617  12.879  11.978 -0.1652  0.0315 -0.2952
 8488W        W23619  12.261   2.051   0.940  0.1484 -0.2265 -0.0781
 8489W        W23620   5.929   1.578  13.402  0.3324 -0.1378  0.1093
 8490W        W23621   9.792   9.455   3.293 -0.0935 -0.2638  0.2997
 8491W        W23622  15.615   8.285   4.390 -0.0333 -0.0557 -0.0018
 8492W        W23623  12.716   0.885   2.644  0.1067 -0.1221 -0.1082
 8493W        W23624   9.966   3.954   6.000 -0.0278  0.1270  0.2450
 8494W        W23625   4.740   5.823   3.858 -0.0469 -0.0359 -0.2183
 8495W        W23626   2.187  10.898  13.369 -0.1288  0.0625 -0.0804
 8496W        W23627   4.882   4.863   3.966  0.1251 -0.0870  0.0536
 8497W        W23628  12.651  17.899   5.586 -0.0260 -0.0814 -0.0221
 8498W        W23629   3.467  17.625  12.772 -0.2812  0.1307 -0.1860
 8499W        W23630   6.531  14.283  13.892 -0.1575 -0.2100  0.0711
 8500W        W23631  16.724  14.322   5.093  0.2009  0.1361 -0.1772
 8501W        W23632  11.951   6.917   1.967  0.1718  0.0516 -0.2623
 8502W        W23633  10.995   6.186   3.363  0.0773 -0.2153  0.0385
 8503W        W23634  15.422  14.174  12.704  0.2718 -0.2220 -0.0428
 8504W        W23635   1.752  11.665   2.531  0.2803 -0.0474 -0.5601
 8505W        W23636  12.428  15.163  12.550  0.1271 -0.2050 -0.3302
 8506W        W23637  16.190  10.050  13.606 -0.2178 -0.2310  0.1708
 8507W        W23638   8.584  11.522  10.366  0.2595 -0.0953  0.0021
 8508W        W23639  12.506  17.120  14.181 -0.0696 -0.1733 -0.1230
 8509W        W23640   0.121  16.081   2.336 -0.2019  0.1338 -0.0336
 8510W        W23641  13.533  13.314   2.292 -0.0013 -0.0247 -0.0906
 8511W        W23642   1.060   5.647   1.003 -0.2203  0.0178 -0.1868
 8512W        W23643   4.393   4.273   5.169 -0.0923  0.0687 -0.2888
 8513W        W23644  10.616  16.321  13.458  0.3816 -0.2443  0.1289
 8514W        W23645   4.182   2.421  13.594 -0.0343 -0.2934  0.0415
 8515W        W23646  13.940  12.370  14.212  0.1526  0.0131 -0.2355
 8516W        W23647  16.223   3.087   0.465  0.0439  0.2182 -0.2215
 8517W        W23648   6.917  17.927   5.398 -0.2788  0.4606 -0.2662
 8518W        W23649   5.639   5.591   3.695  0.0314 -0.0274 -0.2183
 8519W        W23650  12.035   7.903  15.045  0.0121 -0.0944 -0.1748
 8520W        W23651   8.116   4.210   3.024  0.3703  0.0210  0.4532
 8521W        W23652  10.047   4.908  11.781  0.0011 -0.1673  0.0647
 8522W        W23653  11.720  15.454   1.578  0.0692 -0.1012  0.2304
 8523W        W23654   1.100   8.576  13.212  0.2467  0.0726 -0.1457
 8524W        W23655   6.241   4.648  14.180 -0.0233  0.0372 -0.1783
 8525W        W23656   8.737  12.674  13.497  0.2231 -0.1008 -0.2984
 8526W        W23657   0.210   3.330   3.573  0.0699  0.2333 -0.2226
 8527W        W23658   5.000   7.625  15.143  0.0343  0.1903  0.3560
 8528W        W23659   0.369   7.248  15.881 -0.1414 -0.0127 -0.3463
 8529W        W23660   9.255  14.158  15.052  0.2320 -0.3143  0.1217
 8530W        W23661   9.952  15.151   3.928  0.0049 -0.5173  0.2505
 8531W        W23662  17.446  18.424   3.259  0.2177 -0.1800  0.0326
 8532W        W23663  12.192   4.189  14.436 -0.0503 -0.0928 -0.1867
 8533W        W23664   4.093   8.918   4.189 -0.0861  0.1593 -0.1420
 8534W        W23665   4.581   2.631   0.248  0.0139  0.0490  0.3496
 8535W        W23666  16.228   2.590  13.082 -0.0364 -0.1355 -0.0903
 8536W        W23667   8.532   9.849   5.723  0.1283 -0.0055 -0.1686
 8537W        W23668  15.921   7.498  12.023 -0.1808  0.0181  0.0796
 8538W        W23669  14.920  10.820   0.036 -0.3295 -0.0772 -0.0321
 8539W        W23670   6.120  14.038  10.092  0.0473 -0.1281  0.0345
 8540W        W23671  13.009  12.477   4.164 -0.0879 -0.1658  0.2422
 8541W        W23672   5.635   2.884   2.238 -0.0891  0.0889  0.2271
 8542W        W23673   9.839   0.530   6.151  0.0497 -0.1185 -0.0228
 8543W        W23674   0.409  12.208   1.011  0.0056 -0.1165 -0.2627
 8544W        W23675   4.088   0.626  10.380 -0.1805  0.0134  0.0464
 8545W        W23676  11.454  10.731   0.833 -0.1353  0.0751  0.2632
 8546W        W23677   6.100  17.760   3.392 -0.2489  0.2007 -0.1455
 8547W        W23678   4.161  13.975   4.675 -0.3809  0.0083 -0.0396
 8548W        W23679   3.278   0.403   0.517  0.0545 -0.2220 -0.0589
 8549W        W23680  18.071   6.970   5.297 -0.0975  0.0222 -0.2866
 8550W        W23681  16.432  12.441  13.738  0.1731 -0.0948 -0.1393
 8551W        W23682  11.586  11.073  14.186  0.2743 -0.1211 -0.0272
 8552W        W23683   6.419   8.240  14.224 -0.0810  0.0604 -0.1561
 8553W        W23684  14.402  10.654   5.198 -0.1692 -0.4744  0.1393
 8554W        W23685   9.792   8.709  14.362 -0.0200  0.4192 -0.1279
 8555W        W23686   2.905   8.567   3.867  0.3631 -0.0964 -0.1067
 8556W        W23687   2.869  18.458   4.138  0.1751 -0.1527  0.0215
 8557W        W23688   2.734   3.288  10.688 -0.1035 -0.1054  0.1575
 8558W        W23689   2.221   2.593  10.772 -0.0207  0.1166  0.2859
 8559W        W23690   1.719   6.030  13.861  0.0385  0.2214 -0.4959
 8560W        W23691  14.452  15.574  13.628  0.3119  0.0770 -0.0191
 8561W        W23692   8.474   3.853   5.295  0.1841 -0.0465  0.1731
 8562W        W23693  13.469   1.319  12.993  0.1724  0.0422 -0.0497
 8563W        W23694   8.553   5.374  12.020 -0.1898  0.1419  0.2444
 8564W        W23695  10.160   1.494  11.446 -0.2079  0.0723  0.3804
 8565W        W23696  14.788   9.115  11.963  0.0507  0.2360 -0.0350
 8566W        W23697   2.682   1.866   4.051  0.0244 -0.0692  0.2022
 8567W        W23698  14.613   6.987   2.388 -0.3443  0.3536 -0.2350
 8568W        W23699   0.689   2.965  12.808 -0.1798  0.0718  0.1699
 8569W        W23700  17.746  17.747  11.376  0.1451 -0.2471 -0.0151
 8570W        W23701   3.163  14.230   0.362 -0.1538  0.0426 -0.0599
 8571W        W23702   9.087   6.727   1.832 -0.1014  0.2966 -0.0495
 8572W        W23703   9.117  12.991  12.776 -0.1304  0.1737  0.1218
 8573W        W23704   9.769   7.018  15.310 -0.1810  0.2006 -0.1153
 8574W        W23705   7.530  17.051   2.864 -0.1849  0.0674 -0.4104
 8575W        W23706  17.306  12.456  12.526 -0.0158 -0.0995  0.0054
 8576W        W23707  15.166  10.835   1.563  0.0938  0.2331  0.0543
 8577W        W23708  13.118  12.851   4.564  0.1011  0.1866  0.1547
 8578W        W23709   1.575   1.591   4.323 -0.0116 -0.3755  0.0783
 8579W        W23710   5.020  12.031   4.868  0.1330 -0.0204  0.4152
 8580W        W23711   2.753  15.059  10.552 -0.3912 -0.2024 -0.1951
 8581W        W23712   1.522  17.119  15.533 -0.2279 -0.1160  0.0570
 8582W        W23713   9.226   9.134  16.043 -0.0805 -0.0802  0.1394
 8583W        W23714  11.087   1.912  13.042  0.0789 -0.0912  0.2645
 8584W        W23715   9.080  13.883  15.415 -0.2571  0.1514  0.0445
 8585W        W23716   2.927   6.231   4.961 -0.0820 -0.1919 -0.3242
 8586W        W23717  16.789   5.528   4.004 -0.0621 -0.3018 -0.0201
 8587W        W23718   5.561   2.563   4.861  0.0183 -0.1304  0.0646
 8588W        W23719   2.178   3.512  10.974  0.0321 -0.2353  0.0171
 8589W        W23720  13.611  10.838  12.379  0.1521 -0.1509  0.1466
 8590W        W23721  11.587  15.826  15.472  0.0303 -0.3155  0.1770
 8591W        W23722   8.889   4.281   4.356  0.0273 -0.0391  0.0372
 8592W        W23723  10.150   3.334   4.005 -0.0304  0.0421  0.0779
 8593W        W23724   0.711  16.141   1.260  0.0218  0.2155 -0.0543
 8594W        W23725  13.896   0.160   2.194 -0.1076 -0.2017 -0.2829
 8595W        W23726   9.126   9.976  14.305 -0.0896 -0.0506  0.4430
 8596W        W23727   9.868   6.103   4.355 -0.0131 -0.3961 -0.0481
 8597W        W23728  12.385   6.203   1.455 -0.1293 -0.3112 -0.1159
 8598W        W23729   1.705   9.293   5.571  0.0047 -0.2772  0.1827
 8599W        W23730   1.395   6.274  14.224 -0.1014  0.1338  0.0688
 8600W        W23731   8.549   2.931  11.703 -0.1118 -0.2289 -0.2243
 8601W        W23732   3.431  15.365   0.698 -0.1436  0.3549 -0.0991
 8602W        W23733  17.031   3.890   2.431  0.2980 -0.4364 -0.0952
 8603W        W23734  15.733  17.988   0.318  0.0609  0.2254 -0.0406
 8604W        W23735  11.446   3.012  11.801  0.3768  0.2437 -0.1377
 8605W        W23736   8.185   0.658  13.884  0.1040 -0.1662 -0.0636
 8606W        W23737   3.066  12.431   0.638  0.3374 -0.2966 -0.0869
 8607W        W23738  14.755   4.174  12.989  0.0490  0.1630 -0.0970
 8608W        W23739   9.901  16.287  14.684  0.4567  0.2596  0.0817
 8609W        W23740  12.295   2.245   4.811 -0.0688  0.0522  0.1096
 8610W        W23741  18.428   5.774   0.594 -0.0105 -0.0241  0.0828
 8611W        W23742   7.665   1.204  14.710  0.5098  0.0192  0.1390
 8612W        W23743   9.439   1.112   1.963 -0.1255  0.0852  0.2139
 8613W        W23744   6.303   5.753  11.453  0.1523  0.1282  0.0052
 8614W        W23745  12.691   7.700   0.495 -0.1591 -0.1131 -0.3993
 8615W        W23746   9.343   2.953  15.842 -0.1742 -0.0054  0.0885
 8616W        W23747   1.404   9.699   2.257 -0.1626  0.1554 -0.0239
 8617W        W23748  17.326   7.694   1.421  0.0862 -0.1014  0.1261
 8618W        W23749   4.450   7.101   4.681 -0.0384  0.1805  0.1353
 8619W        W23750   0.444   6.217  11.934  0.0326 -0.0735 -0.0771
 8620W        W23751   2.394   6.012   3.333 -0.4346  0.0760 -0.3048
 8621W        W23752   4.576   7.199  14.569  0.0901 -0.0966  0.0600
 8622W        W23753   9.368  12.737  15.486 -0.2339 -0.2162  0.0793
 8623W        W23754   6.590  15.188   3.171 -0.3403 -0.3049 -0.2150
 8624W        W23755  12.735   2.729  12.176  0.0506  0.1585  0.2388
 8625W        W23756   3.920   0.167  10.451  0.0358 -0.4210  0.0139
 8626W        W23757   9.551  14.333   3.282 -0.3490  0.0915 -0.1970
 8627W        W23758  14.883   0.385   5.912  0.2862 -0.2749  0.2132
 8628W        W23759   3.769  17.339  15.868  0.2634 -0.0583  0.0633
 8629W        W23760  11.128  10.922   5.077  0.1013 -0.2620 -0.4766
 8630W        W23761   6.572   7.961  12.781 -0.2384  0.0234  0.1945
 8631W        W23762  15.104  14.346  13.563  0.3918 -0.0798 -0.1728
 8632W        W23763   0.510  10.296  14.321  0.0737 -0.1634 -0.0096
 8633W        W23764  14.814  14.833  12.426  0.0600 -0.0475  0.1042
 8634W        W23765   2.312   5.027  12.969  0.2845  0.0860  0.0223
 8635W        W23766   5.284   9.682  13.436 -0.0072 -0.2160  0.0742
 8636W        W23767  10.144   2.023  16.062 -0.0442 -0.0921  0.0266
 8637W        W23768   9.792   2.666   0.875  0.0019  0.3053  0.3076
 8638W        W23769   3.501  13.578   3.007  0.1217  0.2325 -0.0695
 8639W        W23770   4.514  17.031   0.160 -0.1487  0.1665 -0.1026
 8640W        W23771   5.459  13.787   1.732  0.1906 -0.0317  0.0809
 8641W        W23772  13.715  17.078  15.583  0.0868 -0.0390  0.0803
 8642W        W23773   1.926   6.288  15.793  0.0310 -0.0103 -0.0157
 8643W        W23774  11.431   4.301   5.162  0.0295 -0.1041 -0.0240
 8644W        W23775  14.271   0.354   0.031  0.0271 -0.1347  0.3762
 8645W        W23776  16.661   5.753  15.418 -0.2181 -0.4002 -0.0490
 8646W        W23777  13.503  16.677   0.543 -0.2763 -0.0907 -0.0346
 8647W        W23778  11.731   8.804   3.923 -0.1152  0.1814  0.1149
 8648W        W23779  17.855  13.847  14.283  0.2556  0.3177  0.3517
 8649W        W23780  17.860   3.080  13.653  0.2147 -0.0243  0.2550
 8650W        W23781  14.794   1.422   2.839  0.0269  0.0537 -0.2690
 8651W        W23782   0.401   8.955  13.031  0.1980 -0.2016 -0.0785
 8652W        W23783  12.421  16.311   1.596 -0.0086 -0.0345 -0.0936
 8653W        W23784  13.878   2.754   5.200  0.1199 -0.0381  0.4931
 8654W        W23785   2.380   4.814  11.948  0.1427 -0.1523  0.0444
 8655W        W23786  10.841  15.487   1.658 -0.1363  0.0518 -0.0126
 8656W        W23787  15.784   8.638   2.707 -0.0721 -0.0766 -0.0921
 8657W        W23788   6.646  16.145   1.703  0.1284  0.1116 -0.1793
 8658W        W23789  17.427   4.006  11.085 -0.3446  0.1547  0.2671
 8659W        W23790   2.366  12.895   1.616 -0.0107 -0.1413 -0.3321
 8660W        W23791  16.205  16.251   0.706 -0.0733  0.0990  0.0469
 8661W        W23792  14.596  18.026   2.567  0.1165  0.0993 -0.0322
 8662W        W23793  16.722  10.007   2.180  0.0750  0.1343  0.1273
 8663W        W23794  16.252   6.451   2.306  0.1269  0.0309 -0.2683
 8664W        W23795   9.525   1.305   4.688  0.0351  0.2114  0.1417
 8665W        W23796  14.632   4.350   1.358 -0.3740 -0.0906 -0.0499
 8666W        W23797   6.136   3.797   4.759  0.3270 -0.2768 -0.0638
 8667W        W23798   0.478   7.896  14.536 -0.0256 -0.0201 -0.1048
 8668W        W23799   5.030   5.737   2.022  0.3483 -0.2193 -0.0579
 8669W        W23800  15.695   7.738  15.911 -0.0321 -0.1437  0.5648
 8670W        W23801  13.501  12.471   3.349  0.0450  0.1148  0.1145
 8671W        W23802  12.907  17.941  13.147  0.3067  0.0098  0.0392
 8672W        W23803   9.670   3.724   5.675  0.1710  0.2527  0.2168
 8673W        W23804   1.681   2.205  11.544 -0.0462  0.1510  0.1264
 8674W        W23805   4.071   5.184  15.218 -0.2500 -0.1022  0.1272
 8675W        W23806  11.336  12.673  12.606  0.1772  0.3871 -0.2660
 8676W        W23807   0.534  14.646  12.623 -0.0912  0.1987 -0.0895
 8677W        W23808   6.444   3.519  15.913  0.2115 -0.1908  0.1719
 8678W        W23809   4.571  17.551  14.885  0.1115 -0.0902  0.0880
 8679W        W23810  11.472  15.466   0.276 -0.3086  0.1614 -0.1040
 8680W        W23811   5.534  12.225   0.350 -0.0069 -0.2368  0.0393
 8681W        W23812   6.346   9.305   3.690 -0.0629  0.1692  0.0032
 8682W        W23813   8.120  15.349   1.056 -0.0451 -0.0082  0.1669
 8683W        W23814  18.221   5.592   1.574 -0.2604  0.1256 -0.0280
 8684W        W23815  10.387  16.571   2.773 -0.0133 -0.2052  0.0138
 8685W        W23816  11.366   2.476  11.779  0.1597  0.1556 -0.2565
 8686W        W23817   2.814   2.953   4.539 -0.0971  0.0737 -0.0025
 8687W        W23818   1.307   1.357  12.204  0.1999 -0.0917  0.0203
 8688W        W23819  11.368  14.649   4.692 -0.2475 -0.4542 -0.0494
 8689W        W23820  10.798   4.734   1.270  0.1482  0.0524 -0.0313
 8690W        W23821   6.924  16.785  15.694  0.0961 -0.0824  0.1132
 8691W        W23822  13.536   4.410  11.966  0.2490 -0.1765 -0.1990
 8692W        W23823  14.441   8.482   2.126 -0.0139 -0.2238 -0.0314
 8693W        W23824   8.509  17.661  15.029  0.1967 -0.0265  0.1886
 8694W        W23825  13.134  16.207  15.765  0.2026  0.4448 -0.5024
 8695W        W23826   2.164   3.497  13.595  0.3571 -0.1739 -0.0729
 8696W        W23827   7.560  15.794   2.113  0.1314  0.0872 -0.0348
 8697W        W23828  16.020   3.992   4.291  0.1171  0.0062 -0.2489
 8698W        W23829   3.867  16.354  13.715  0.1386  0.0966  0.0618
 8699W        W23830  14.287  12.933   0.095  0.1295  0.3136 -0.1688
 8700W        W23831  15.223   9.855   3.016 -0.1279 -0.1103  0.0844
 8701W        W23832   0.813   7.304  14.858 -0.0276 -0.1465 -0.1178
 8702W        W23833   0.462  14.350   1.056 -0.4111 -0.0981 -0.0135
 8703W        W23834   1.993  15.855   2.834  0.0111  0.2457 -0.0447
 8704W        W23835   1.258  12.954  14.785  0.4865  0.0529 -0.1324
 8705W        W23836   7.267   0.486  12.188  0.0200  0.2715 -0.1339
 8706W        W23837   8.644   7.724   3.491  0.3186  0.0911 -0.0924
 8707W        W23838  15.044   3.384  10.145 -0.2528  0.0925 -0.3583
 8708W        W23839  13.978  14.980   1.735  0.0603 -0.0014  0.0048
 8709W        W23840  18.370   6.429   1.842 -0.0131  0.0069 -0.0355
 8710W        W23841  11.339  10.500  14.540 -0.0508  0.0394 -0.1836
 8711W        W23842   6.417   1.125  12.439 -0.0054  0.0861  0.2915
 8712W        W23843  15.958   6.264  15.768 -0.0518  0.0131  0.0558
 8713W        W23844  14.550  14.812   2.868 -0.3045  0.1099 -0.5271
 8714W        W23845   1.835   0.258  12.377 -0.0943  0.3505 -0.2359
 8715W        W23846   2.501  15.361  13.160  0.3731  0.0474  0.0275
 8716W        W23847  13.401   2.799  13.411  0.1625  0.1003  0.0731
 8717W        W23848   1.008  13.028   5.145  0.1922  0.0327  0.0769
 8718W        W23849  18.038   6.054   1.561  0.0946  0.2301 -0.1261
 8719W        W23850  14.479   1.143  11.646 -0.3661 -0.1174  0.1377
 8720W        W23851   1.756   8.903  12.625 -0.3213  0.1185  0.1957
 8721W        W23852   8.488   4.471   4.526  0.0891 -0.0216  0.1318
 8722W        W23853  17.921   8.328  10.737 -0.2178 -0.2419 -0.1054
 8723W        W23854  16.631  13.406   1.000  0.0740 -0.0082 -0.2588
 8724W        W23855   7.209  11.909  11.229  0.2795 -0.1504 -0.0973
 8725W        W23856   6.597  15.034   4.833  0.0005  0.1268 -0.3619
 8726W        W23857  11.428  15.985  12.795 -0.1859  0.2769 -0.2269
 8727W        W23858   0.927   1.236   5.460 -0.2475  0.2184 -0.0077
 8728W        W23859   7.500   7.136   5.531 -0.1635  0.2547  0.0852
 8729W        W23860  16.715   7.086  15.090  0.0460  0.4251 -0.0157
 8730W        W23861   4.806  11.397  15.786 -0.0378 -0.0082 -0.0884
 8731W        W23862   5.528   2.040  14.801  0.2916  0.0265  0.1105
 8732W        W23863  17.474  11.785  10.663  0.1402 -0.1500  0.1602
 8733W        W23864   3.695   1.442   1.483 -0.0851 -0.2135  0.2530
 8734W        W23865   4.092  12.731  10.800  0.1021 -0.1450 -0.2940
 8735W        W23866  16.322  14.048  15.931  0.2933 -0.0852 -0.1143
 8736W        W23867  15.654  11.869   0.009  0.1469  0.0714  0.1812
 8737W        W23868  13.367  11.736   4.566  0.1401  0.0396  0.0990
 8738W        W23869   4.413   9.256   1.068  0.2322 -0.3310 -0.2550
 8739W        W23870  12.044   2.322   0.409 -0.1301  0.2368  0.0901
 8740W        W23871   0.256  15.834  14.035 -0.0992 -0.1216 -0.3820
 8741W        W23872  13.670  13.752   1.017 -0.1368 -0.0259 -0.0549
 8742W        W23873   1.845   2.920   4.321 -0.2308 -0.1022 -0.4077
 8743W        W23874   6.220  17.403   4.451 -0.1801 -0.4991  0.0170
 8744W        W23875  11.311  15.235   1.781 -0.2662 -0.0732  0.2704
 8745W        W23876  13.968   0.929  13.736 -0.1387  0.2364  0.0703
 8746W        W23877  16.286  17.060  13.011 -0.0279 -0.0897 -0.3021
 8747W        W23878  14.999  13.377  14.343  0.0456  0.0059  0.1131
 8748W        W23879   1.107   9.275   4.707 -0.0503  0.1651  0.0202
 8749W        W23880   8.977   7.847  11.285 -0.1146 -0.0173 -0.0098
 8750W        W23881   3.330  15.145  11.342 -0.0364 -0.2408 -0.1638
 8751W        W23882  14.329  10.252   0.270 -0.2441  0.3040  0.0007
 8752W        W23883   6.679  14.916  13.495 -0.1846  0.1635  0.1989
 8753W        W23884   5.129  11.072   5.309  0.0074 -0.1428  0.0023
 8754W        W23885  13.321   3.039   2.574 -0.2410  0.1839 -0.1795
 8755W        W23886   5.805   6.892   2.451 -0.0595 -0.2991  0.3234
 8756W        W23887  12.327   4.346  15.324  0.3052  0.1738  0.0357
 8757W        W23888  12.880  10.763   0.685  0.4873 -0.1169  0.0005
 8758W        W23889   6.255   0.851  16.086  0.2165 -0.1441  0.0877
 8759W        W23890   3.572  14.528  13.338  0.1894 -0.1510 -0.0408
 8760W        W23891   8.439  18.213  11.121 -0.3356 -0.0473  0.4936
 8761W        W23892   7.102   2.118   0.379  0.1471  0.1863  0.1788
 8762W        W23893  11.899  15.506  15.134 -0.5613  0.1352 -0.0333
 8763W        W23894   0.013   8.643  12.949 -0.1971 -0.1202 -0.4547
 8764W        W23895   4.136  13.529   2.625  0.1048  0.2095 -0.0622
 8765W        W23896  15.298   4.595  12.605  0.0107 -0.0167 -0.3761
 8766W        W23897   9.464   9.666   1.875 -0.1120  0.0045 -0.0559
 8767W        W23898  12.933   8.816   3.454  0.1571 -0.2795 -0.1118
 8768W        W23899  10.523   4.820  15.918  0.0826 -0.1373  0.3405
 8769W        W23900  13.021  18.164   3.617  0.1350 -0.0104  0.1715
 8770W        W23901   6.125  15.175   2.857  0.0133 -0.1202 -0.0464
 8771W        W23902  11.898   8.845  14.848  0.0054  0.3684  0.2377
 8772W        W23903   3.714   9.220  14.296 -0.0424  0.0765  0.2091
 8773W        W23904  10.001   1.132   4.639 -0.1435  0.0648  0.0130
 8774W        W23905   7.962  12.083   4.328 -0.0996  0.2387 -0.0796
 8775W        W23906  15.844  11.417  12.908  0.3556 -0.0317 -0.0854
 8776W        W23907   1.295  11.507   2.432  0.0994 -0.0833 -0.0540
 8777W        W23908  10.909  12.421  15.865  0.0125 -0.0359 -0.0028
 8778W        W23909   7.067  12.265   3.372 -0.0263 -0.0478  0.1675
 8779W        W23910  13.749   1.502  15.012 -0.0325 -0.2616  0.2223
 8780W        W23911  17.134   9.089  12.159  0.3670 -0.1408 -0.3439
 8781W        W23912  12.722   5.473   1.523 -0.1383 -0.1348 -0.2721
 8782W        W23913   7.192  16.089   0.338  0.2709 -0.0990  0.1446
 8783W        W23914  10.668   0.173   5.385 -0.1110 -0.0996  0.1407
 8784W        W23915  14.738   9.658  11.717 -0.1783 -0.4145  0.0332
 8785W        W23916  11.553   4.136  13.011  0.0831 -0.0835 -0.3955
 8786W        W23917   3.880  10.540   3.954  0.0235  0.2090  0.1790
 8787W        W23918  18.076   7.431   0.999  0.0657  0.1871 -0.2140
 8788W        W23919  18.322  16.614   5.392 -0.2082  0.1532 -0.0542
 8789W        W23920   3.096  13.830   2.906  0.3152  0.3487  0.1341
 8790W        W23921   9.749  16.479  12.315  0.2298  0.1016 -0.4215
 8791W        W23922   9.004  10.080   5.041 -0.0188  0.0289 -0.0507
 8792W        W23923   3.987   8.446  15.330 -0.0356 -0.0542  0.0753
 8793W        W23924  17.889   9.358   4.891 -0.1325  0.2496 -0.0667
 8794W        W23925  17.749   5.563  13.898  0.1590 -0.3975 -0.0125
 8795W        W23926  17.640  10.556   0.115 -0.0036  0.0076  0.2194
 8796W        W23927  15.387   0.829  11.487 -0.0688  0.0822  0.1336
 8797W        W23928   4.580  13.246   3.917 -0.2019 -0.0301 -0.1195
 8798W        W23929   7.325  14.909   5.293  0.0120 -0.1880  0.3144
 8799W        W23930   5.088  12.120  15.705 -0.1290  0.0484  0.0576
 8800W        W23931   8.329   2.524  14.857  0.1581 -0.2052  0.2566
 8801W        W23932   1.916   4.109  12.018 -0.0692  0.0301 -0.2485
 8802W        W23933  12.467   9.736   1.654  0.0583 -0.1548 -0.0520
 8803W        W23934  11.032   1.191  13.384  0.0713 -0.1892 -0.0365
 8804W        W23935  10.438   5.366   4.480 -0.2165 -0.1961 -0.1903
 8805W        W23936   1.643  15.106   3.366 -0.0107 -0.1006 -0.0166
 8806W        W23937  14.688   7.809  13.900 -0.0957 -0.2041  0.1557
 8807W        W23938   4.079  18.371  15.580  0.0999 -0.0771  0.0735
 8808W        W23939  16.106  16.183   2.592 -0.1626  0.0156 -0.2819
 8809W        W23940   7.128  12.360  14.559 -0.0268  0.3267 -0.1507
 8810W        W23941  12.300  10.490  14.130  0.2583  0.0803  0.3164
 8811W        W23942  17.800   3.070   5.792 -0.0441 -0.1769 -0.3540
 8812W        W23943   8.512   5.376  16.007  0.0806  0.1675  0.0045
 8813W        W23944   3.313  17.215   9.141 -0.2747  0.1801 -0.0447
 8814W        W23945   6.487   3.904  12.663 -0.0596 -0.1893 -0.0738
 8815W        W23946  15.678  12.719  14.114 -0.2194  0.1681  0.1924
 8816W        W23947  12.056   4.350   2.036  0.4177 -0.1789  0.3366
 8817W        W23948  13.250   6.408   5.918 -0.0920 -0.1278  0.2244
 8818W        W23949   0.654   3.274  14.446 -0.2789  0.0590  0.4610
 8819W        W23950  15.995   6.503  11.856 -0.0054 -0.1896  0.1586
 8820W        W23951   1.785   1.740  15.295  0.1930  0.3331  0.2841
 8821W        W23952   3.555  16.912   2.022  0.2698 -0.1574  0.0567
 8822W        W23953  15.628   0.608   2.815 -0.0461  0.1871 -0.0688
 8823W        W23954  11.793  15.077  14.805  0.0958  0.0164  0.1853
 8824W        W23955   7.239  11.237  15.247 -0.1960  0.2381  0.0373
 8825W        W23956  15.540  17.664   9.709  0.0952  0.0955  0.3402
 8826W        W23957   4.076   3.263   4.926  0.1547  0.1239 -0.0203
 8827W        W23958  16.218   9.421  11.708  0.0281 -0.0217  0.1670
 8828W        W23959  11.620  15.272   2.515 -0.0730  0.2116  0.1608
 8829W        W23960  13.876   2.715  11.743 -0.0184 -0.1392 -0.0133
 8830W        W23961  13.659  13.638  11.371  0.0047 -0.1400  0.0457
 8831W        W23962   3.279   4.186  13.707 -0.1690 -0.0404  0.1224
 8832W        W23963   7.246   3.429  15.739 -0.0959  0.0654 -0.0753
 8833W        W23964  10.517  13.110  14.444 -0.4442  0.1049  0.1108
 8834W        W23965  10.095  11.461  15.103 -0.1601  0.2332  0.1370
 8835W        W23966   5.316  16.189   1.557  0.0517  0.1591  0.5067
 8836W        W23967  13.642   1.511   9.923 -0.0370  0.1362  0.0041
 8837W        W23968   8.388   9.760   4.867 -0.3530 -0.3232 -0.2513
 8838W        W23969  10.680   0.845   1.566  0.4011  0.0780 -0.1198
 8839W        W23970   8.269   1.260   0.494 -0.1552  0.0549 -0.0154
 8840W        W23971   0.261  14.778   0.099  0.0864  0.1305  0.2455
 8841W        W23972   5.892   3.813   0.610  0.3105  0.2271 -0.2439
 8842W        W23973  10.774  12.161   0.294  0.1774  0.0986 -0.0895
 8843W        W23974  11.522  16.888   3.579  0.1907 -0.0810 -0.3779
 8844W        W23975  15.518  17.041   1.349  0.1117  0.1174  0.1693
 8845W        W23976   8.457   9.346   0.094  0.2099  0.3632  0.1764
 8846W        W23977  15.430   7.701  14.207  0.1290 -0.1903  0.2089
 8847W        W23978   0.217  16.037  13.578  0.4817  0.0388 -0.3348
 8848W        W23979  10.656  17.266  15.092 -0.1327 -0.0040 -0.1391
 8849W        W23980   2.759   8.635   2.566 -0.0671  0.1105 -0.1792
 8850W        W23981  14.703  15.536  15.909  0.2764  0.0944 -0.1884
 8851W        W23982   3.880   0.982   0.141  0.4657  0.1592  0.1044
 8852W        W23983   5.005   8.689   2.543  0.1528  0.0639 -0.0182
 8853W        W23984   8.375  14.856  12.041 -0.0742 -0.4316 -0.0173
 8854W        W23985   9.532   0.843   4.390 -0.1732 -0.1540 -0.3115
 8855W        W23986   8.313  16.959  13.917  0.0642  0.1708  0.0190
 8856W        W23987   4.980  13.899  14.456 -0.0528  0.1382  0.0611
 8857W        W23988   1.720   5.167   1.312  0.2607  0.2677 -0.2349
 8858W        W23989   3.742  13.162  10.945 -0.0394 -0.1607 -0.1255
 8859W        W23990  16.678   6.891  12.366  0.0273  0.1450 -0.1745
 8860W        W23991   1.797   3.317  10.595 -0.0003 -0.3164 -0.0149
 8861W        W23992  13.014  11.101  12.102 -0.1930 -0.1893  0.1428
 8862W        W23993   2.350   7.609  11.660 -0.0448 -0.0586 -0.1762
 8863W        W23994   0.795   3.485   4.528  0.0050 -0.0233  0.0707
 8864W        W23995   6.693  11.434   5.888  0.1934 -0.0953  0.3400
 8865W        W23996   3.283  16.171  13.398  0.1050  0.1166 -0.2303
 8866W        W23997  11.248   0.819   4.870  0.1401  0.1223  0.2043
 8867W        W23998   4.516   3.403   5.343 -0.4785 -0.2241  0.2733
 8868W        W23999   2.419   6.813  13.851 -0.1004  0.5566  0.0787
 8869W        W24000  15.850   7.303  16.040 -0.1119  0.0518  0.4134
 8870W        W24001  15.536   8.820  15.215 -0.3043 -0.0111 -0.5293
 8871W        W24002  13.534   9.968   4.286  0.0935  0.0900  0.0694
 8872W        W24003  14.846   0.535  12.514  0.1403 -0.3932 -0.0807
 8873W        W24004  16.523   0.028   4.849  0.1605 -0.0713 -0.1544
 8874W        W24005   4.147  16.377   2.467 -0.0645 -0.3849 -0.0486
 8875W        W24006  14.220   5.488  11.828 -0.1543  0.1685 -0.0836
 8876W        W24007  12.329   1.946  13.286  0.2855  0.0092  0.0258
 8877W        W24008   2.406  17.242  14.469 -0.2195 -0.1238 -0.2752
 8878W        W24009   8.232  14.148   1.197 -0.0822  0.1949  0.0826
 8879W        W24010   9.833  14.727   0.424  0.1584 -0.1126 -0.0694
 8880W        W24011  16.518   9.375  14.719  0.1181  0.2157 -0.3151
 8881W        W24012  17.361   3.754   2.086  0.1455  0.1592  0.0382
 8882W        W24013   3.088  13.658   4.016 -0.2008 -0.1462  0.3032
 8883W        W24014   2.954  17.701   9.927 -0.0282 -0.1397 -0.1207
 8884W        W24015  15.472   1.340  11.614  0.1768  0.0120  0.2454
 8885W        W24016   0.384  15.059   1.994 -0.0273  0.0450  0.0772
 8886W        W24017  16.241  14.347   2.697 -0.3370 -0.1808 -0.1162
 8887W        W24018  14.656  12.710  15.859  0.1649 -0.2143 -0.2627
 8888W        W24019  17.773  16.111   0.309  0.2535  0.2917 -0.1081
 8889W        W24020  13.817   8.174  11.481  0.1611  0.0228 -0.2367
 8890W        W24021   2.407   6.525  12.585 -0.3736  0.1271  0.1462
 8891W        W24022  14.384  13.301   2.198 -0.0201  0.2057  0.4480
 8892W        W24023   3.364   7.482  14.636 -0.2149 -0.0911 -0.1492
 8893W        W24024   0.954  14.480  12.256 -0.0365 -0.0299  0.4020
 8894W        W24025   5.878  15.656   4.028 -0.0055  0.0945  0.0609
 8895W        W24026   3.967   0.070   4.783 -0.2924 -0.2410  0.0536
 8896W        W24027   7.701  14.561  15.044  0.0168 -0.2025 -0.2999
 8897W        W24028  14.459   4.910   4.719  0.3222  0.1591  0.1359
 8898W        W24029  14.591   6.275   3.490  0.0926 -0.0761  0.2974
 8899W        W24030  12.150  16.773  14.039 -0.2423  0.0623  0.3297
 8900W        W24031  13.605  15.946  12.026 -0.4709 -0.0402  0.2707
 8901W        W24032  12.539   5.036  15.932 -0.3283  0.1060 -0.0772
 8902W        W24033   9.416   6.905   4.324  0.0856 -0.1076  0.0733
 8903W        W24034  12.091   5.846   4.416 -0.0965 -0.1348 -0.2637
 8904W        W24035   7.757   1.085   4.055  0.4181 -0.0463  0.1169
 8905W        W24036  13.123   4.332  15.053 -0.3119  0.1716 -0.0976
 8906W        W24037  13.313  16.181  10.801 -0.3301  0.1695 -0.2455
 8907W        W24038  13.731   0.465   2.661 -0.0271 -0.1703 -0.0933
 8908W        W24039   7.194   1.536  14.690 -0.1382 -0.1999  0.1530
 8909W        W24040  11.659  17.269   1.578  0.2188 -0.0660  0.2119
 8910W        W24041  17.230   6.865  14.410  0.1884  0.0365  0.1466
 8911W        W24042  12.445   6.591  15.458  0.1687  0.0329 -0.4406
 8912W        W24043   6.036   3.037  12.178  0.0574  0.0949 -0.5034
 8913W        W24044   1.167   5.900  12.541  0.0101 -0.0088  0.0713
 8914W        W24045  14.115   8.068  14.764  0.0749 -0.0949 -0.3324
 8915W        W24046   4.685  15.374   0.972 -0.1811  0.1583  0.2790
 8916W        W24047   0.209  12.027   3.882 -0.0350  0.0047 -0.2707
 8917W        W24048   5.204   7.479  12.751  0.0741  0.1680 -0.1049
 8918W        W24049  15.532   2.522  10.992 -0.1009  0.2395 -0.1126
 8919W        W24050   6.652   6.246  11.485  0.0469 -0.3893  0.0884
 8920W        W24051   7.703   6.357  14.152 -0.0233 -0.1088  0.0225
 8921W        W24052   3.608   9.874   1.223 -0.0564 -0.0848 -0.2652
 8922W        W24053   1.378   2.451   1.416 -0.0293 -0.0812  0.4964
 8923W        W24054  18.219  16.753   1.790  0.1742 -0.0513  0.1599
 8924W        W24055   6.114  16.917  10.594  0.1331  0.4225 -0.0297
 8925W        W24056  10.729   0.484  14.869  0.0146 -0.0294 -0.1858
 8926W        W24057  11.673   8.505   1.784  0.0746 -0.1264 -0.2924
 8927W        W24058   8.065   4.545   0.251  0.1544 -0.1113  0.0229
 8928W        W24059  18.135  14.266  15.534 -0.0418  0.3252  0.2458
 8929W        W24060   7.292   5.030  16.074 -0.1375  0.2583  0.2429
 8930W        W24061   7.474   9.860   3.421 -0.0506  0.4019 -0.0521
 8931W        W24062   9.672   0.271   0.128  0.2193  0.4056 -0.1116
 8932W        W24063   0.694  14.984  15.932  0.0090  0.0856 -0.1677
 8933W        W24064   9.126   2.659   4.014 -0.1392 -0.0889 -0.0007
 8934W        W24065  14.254  12.121  12.172  0.2555 -0.0434  0.1260
 8935W        W24066   1.160   7.384  11.839  0.1070  0.3773  0.1445
 8936W        W24067   7.499   3.356  11.146  0.2442  0.2562  0.0837
 8937W        W24068   1.868   4.648  11.980  0.0886 -0.1074  0.1000
 8938W        W24069   3.320  13.373  15.352 -0.0032 -0.2281  0.0686
 8939W        W24070  15.816  15.804   4.248  0.2560 -0.0116 -0.1485
 8940W        W24071   0.897  16.698  13.486 -0.0271  0.1185  0.2535
 8941W        W24072  11.685   5.007   1.548  0.0838 -0.0522 -0.0650
 8942W        W24073   4.905   2.568   0.666 -0.3523  0.1146 -0.1259
 8943W        W24074   3.122  12.324   1.661  0.0548 -0.0735 -0.2161
 8944W        W24075   3.076   7.039  14.845 -0.1482  0.0296 -0.0664
 8945W        W24076  17.164   6.924  13.853  0.3762 -0.0744 -0.1571
 8946W        W24077  15.421  10.662  13.162 -0.4394  0.0648 -0.2707
 8947W        W24078  12.618   8.435  13.231  0.4887  0.0715  0.0563
 8948W        W24079   3.815   0.851   2.830  0.0769 -0.2972  0.2977
 8949W        W24080   3.291   3.093   2.396 -0.0393 -0.0125  0.0592
 8950W        W24081  12.532  18.389   5.331  0.3472  0.2503  0.2313
 8951W        W24082   4.873   0.994  10.753 -0.2248  0.0023 -0.2513
 8952W        W24083   3.962   2.916   3.034 -0.0812  0.0131  0.0046
 8953W        W24084  11.626   6.564   0.964 -0.0655 -0.3687  0.0079
 8954W        W24085   7.572  14.874   0.000  0.0741  0.1514  0.0934
 8955W        W24086  17.640   6.313  15.166 -0.2512 -0.2751 -0.2251
 8956W        W24087   8.035  13.535   1.213  0.2347 -0.0740  0.0829
 8957W        W24088   0.933   2.716  13.665  0.1326 -0.2190  0.0612
 8958W        W24089   4.507   7.118   1.698 -0.2058 -0.2174 -0.1293
 8959W        W24090   1.691  14.084   3.746  0.1037 -0.1181 -0.0467
 8960W        W24091  13.512   3.543   2.015  0.1412  0.3061 -0.0387
 8961W        W24092  14.811  16.538  12.362  0.0389 -0.1049 -0.2231
 8962W        W24093   1.004   8.073  10.326  0.0514 -0.0059  0.2433
 8963W        W24094  10.016   3.651  11.719 -0.1498 -0.1580 -0.1627
 8964W        W24095  17.034  15.102   5.487  0.2516  0.0182 -0.1360
 8965W        W24096  12.882  13.139   1.675  0.0280  0.0307  0.0379
 8966W        W24097  10.488  13.927   1.442  0.4096 -0.1929 -0.1763
 8967W        W24098   4.830   7.676  12.283  0.1599 -0.2117 -0.0923
 8968W        W24099  16.022  17.767   3.389  0.2504 -0.0404 -0.6169
 8969W        W24100   2.634  14.660  11.900  0.0849 -0.2254  0.2283
 8970W        W24101  11.054   6.364   5.417 -0.1383  0.0591  0.5141
 8971W        W24102   6.380   0.262   4.552  0.0562  0.0520  0.2658
 8972W        W24103  11.454  16.301  14.256 -0.0532 -0.0301 -0.1194
 8973W        W24104   5.128  11.875   2.565 -0.0046 -0.1089  0.3975
 8974W        W24105  11.243   5.709  11.398  0.0481  0.0395 -0.1686
 8975W        W24106   2.045   3.647   2.628 -0.0525  0.1696 -0.3214
 8976W        W24107   8.193   9.573   0.470 -0.1664 -0.0006  0.0862
 8977W        W24108  11.249   3.498   0.889 -0.1176 -0.1220  0.0375
 8978W        W24109   3.431   5.996   5.687  0.3903  0.0105 -0.1640
 8979W        W24110  16.589   8.069  13.379  0.1767 -0.0139  0.0191
 8980W        W24111  13.441   1.733  13.690  0.1667  0.0015 -0.0015
 8981W        W24112  13.657   2.624  14.415 -0.3608  0.0041  0.2258
 8982W        W24113   3.321  14.020   5.147 -0.0878 -0.2264 -0.0942
 8983W        W24114  11.448  16.837   4.586 -0.2156  0.1210 -0.0244
 8984W        W24115   6.803  17.574  14.621 -0.2689  0.1951 -0.0841
 8985W        W24116  12.850   7.917   3.281  0.0593 -0.3332 -0.3443
 8986W        W24117   6.699  13.819  13.999 -0.3187 -0.0990 -0.1767
 8987W        W24118   8.115   6.194   4.156 -0.4187  0.2837  0.0274
 8988W        W24119   9.757   9.019   3.795  0.1899  0.1832  0.0241
 8989W        W24120  17.776   0.407  14.968 -0.0672  0.0057 -0.0508
 8990W        W24121  11.756  12.058   0.513 -0.4060  0.2545  0.1131
 8991W        W24122   0.499  14.487  10.809  0.1048 -0.0479  0.1439
 8992W        W24123  18.263   6.467   2.491 -0.0188 -0.1188 -0.1178
 8993W        W24124  15.836   8.370  13.355  0.2933 -0.1613 -0.0145
 8994W        W24125  12.247  11.700   1.329  0.0201  0.0221  0.0752
 8995W        W24126  17.599   6.155   0.096 -0.1981  0.1549  0.3215
 8996W        W24127  12.370   3.007   3.270 -0.0405  0.0957  0.0295
 8997W        W24128   2.103   5.402   1.593  0.4002  0.1280  0.2506
 8998W        W24129   2.042  12.961  15.874 -0.2017  0.2837  0.2909
 8999W        W24130   3.698   3.850   5.482 -0.4260  0.1209 -0.0219
 9000W        W24131  10.586  12.190  15.448  0.3897  0.1238  0.1688
 9001W        W24132   4.665   8.181   3.207 -0.0073  0.2485 -0.0167
 9002W        W24133   8.888  18.352   5.361 -0.0451  0.0450 -0.0110
 9003W        W24134   6.965   5.929   2.938 -0.0184 -0.0110 -0.0879
 9004W        W24135  12.808  16.877   3.595  0.3064 -0.3003 -0.0487
 9005W        W24136  17.267   4.712  13.072 -0.0414  0.0542 -0.2490
 9006W        W24137  13.959   5.881  14.477  0.1862  0.1312 -0.0074
 9007W        W24138   8.066   2.369   1.468  0.0890 -0.3578 -0.1157
 9008W        W24139  14.090  14.715  10.286 -0.1952 -0.0900  0.0681
 9009W        W24140  11.753   0.141   0.363 -0.2167  0.2472  0.2677
 9010W        W24141   9.615  17.319   4.049  0.2329  0.1180 -0.0370
 9011W        W24142  15.373   0.879   3.195 -0.1015 -0.4159 -0.1231
 9012W        W24143  10.049   4.172   4.985 -0.0331  0.1488 -0.1372
 9013W        W24144  16.113   1.498  12.221 -0.3643  0.2275  0.1665
 9014W        W24145   8.951   2.101   3.215 -0.1507  0.1474 -0.1118
 9015W        W24146  11.169   6.642   3.542  0.2346 -0.0372 -0.2671
 9016W        W24147   9.697  18.179  13.964  0.3165  0.0522 -0.0882
 9017W        W24148  12.354   6.787  15.885 -0.1694 -0.1491 -0.3445
 9018W        W24149   9.258   5.360   4.687  0.1721  0.1331 -0.1774
 9019W        W24150   6.018   2.988   2.658 -0.0474 -0.1884  0.1737
 9020W        W24151   9.848   2.090   0.592  0.0651 -0.0582  0.0740
 9021W        W24152  18.379  11.003   4.203 -0.0924  0.3639  0.1123
 9022W        W24153  17.910  10.838   1.421 -0.0333 -0.0134  0.1548
 9023W        W24154   7.508  14.783  14.616  0.3511  0.0663  0.5382
 9024W        W24155   5.475  16.908  10.030  0.2994  0.1084  0.2368
 9025W        W24156   5.241  10.007  10.562  0.0899  0.2237  0.2861
 9026W        W24157  17.875   8.035  11.886 -0.0116  0.3864  0.2142
 9027W        W24158   1.416   3.741   1.975 -0.0839 -0.1008 -0.1007
 9028W        W24159  15.198  10.774  14.613 -0.0352  0.2637 -0.0159
 9029W        W24160   2.306  15.403  14.428 -0.1700  0.0892  0.0531
 9030W        W24161   5.757  17.696   3.775 -0.0314 -0.2990  0.0234
 9031W        W24162   3.467   0.651   4.049  0.0594  0.3005  0.0191
 9032W        W24163  18.268  17.640   0.786  0.0757  0.1866  0.0983
 9033W        W24164   5.267   3.021   9.790 -0.3132 -0.4197  0.2506
 9034W        W24165  17.889  16.998  12.608 -0.0347  0.3730  0.0120
 9035W        W24166   1.100  10.948  14.420  0.1650  0.2679 -0.0481
 9036W        W24167   5.065  10.508   0.808 -0.1814  0.0172 -0.0655
 9037W        W24168  16.233  15.327   0.617  0.0563  0.2755 -0.0721
 9038W        W24169  12.662   2.619  14.966  0.1153  0.3193  0.1560
 9039W        W24170   8.181   4.913   1.860  0.0103  0.2425 -0.3068
 9040W        W24171   9.419  10.632   3.269  0.0202 -0.0097 -0.0463
 9041W        W24172   4.548   3.627   3.256  0.0664 -0.0216 -0.0143
 9042W        W24173   7.770   0.658  12.451  0.0279  0.3598 -0.1117
 9043W        W24174   9.694   8.299  12.349 -0.1334 -0.1949 -0.1486
 9044W        W24175   5.682  16.216  11.275 -0.1848  0.2316 -0.0593
 9045W        W24176  15.019  11.742   1.472  0.0033 -0.2099 -0.2637
 9046W        W24177   2.133  12.802  10.071 -0.0606 -0.0803  0.1291
 9047W        W24178   0.630   6.842   4.354 -0.1640 -0.0528  0.2616
 9048W        W24179   2.399  16.359  13.712 -0.0085 -0.2361 -0.0160
 9049W        W24180  14.269  13.918   1.731 -0.0049 -0.0710  0.1243
 9050W        W24181  17.253   8.867  15.694 -0.0005 -0.0171  0.0409
 9051W        W24182   7.976   8.942   1.095  0.1594  0.1808 -0.1525
 9052W        W24183  15.942   2.804   2.802  0.2361  0.1256  0.2515
 9053W        W24184  10.143   7.350  14.423 -0.0442 -0.0657 -0.1992
 9054W        W24185  11.722  12.806   2.876  0.2286 -0.0443  0.2118
 9055W        W24186   9.184   5.944   0.351 -0.1981 -0.0680 -0.2004
 9056W        W24187   9.281  10.593   2.816  0.1356 -0.2012 -0.0265
 9057W        W24188  14.249   9.415   4.888  0.2229  0.0087 -0.1171
 9058W        W24189  11.260   5.701   3.606 -0.1393 -0.1609 -0.0445
 9059W        W24190   6.216  18.209  15.409 -0.1640 -0.0566  0.0288
 9060W        W24191   6.069   7.405   5.910  0.0595 -0.0672 -0.1329
 9061W        W24192  10.527   1.638  11.945 -0.0200 -0.1013  0.0502
 9062W        W24193  16.936   4.000   5.226  0.1786 -0.2200 -0.0173
 9063W        W24194  16.256  10.731  12.810 -0.2431 -0.2541 -0.0872
 9064W        W24195  17.084   8.384   4.440  0.1382 -0.3974 -0.0950
 9065W        W24196   6.439  11.262   1.015  0.1602  0.2376 -0.3960
 9066W        W24197  10.886  15.878   4.959  0.1356 -0.1105  0.0291
 9067W        W24198  15.220  12.166   5.661  0.1286 -0.1120 -0.2987
 9068W        W24199   0.449  17.883   0.970  0.0157  0.0335 -0.1322
 9069W        W24200   3.064   0.946   1.696 -0.0152 -0.0641  0.0553
 9070W        W24201  12.569   0.977   1.145  0.1189 -0.1110 -0.1701
 9071W        W24202   1.132   9.119   1.665 -0.0248 -0.2137 -0.1845
 9072W        W24203  12.297   1.431   3.245 -0.2046 -0.1596  0.0466
 9073W        W24204   1.899   1.764   1.617  0.1650  0.2483  0.1508
 9074W        W24205   5.734  15.369   1.287  0.2154 -0.1651  0.1393
 9075W        W24206  17.377   6.407   2.696 -0.1896  0.0918  0.0491
 9076W        W24207  12.967   9.229  14.182  0.0820  0.0002  0.0938
 9077W        W24208   8.566   6.062  11.266  0.1102  0.3990  0.4197
 9078W        W24209  11.378  12.578   5.190 -0.1752 -0.2934  0.2973
 9079W        W24210   6.974   6.326  13.574 -0.0200  0.0328 -0.2199
 9080W        W24211   9.343  17.499   2.172 -0.3587  0.0559  0.3018
 9081W        W24212   2.901  17.254  12.260 -0.0847  0.1987 -0.1155
 9082W        W24213  13.617   2.019  10.853 -0.2420 -0.0686 -0.0900
 9083W        W24214   7.144  14.783   2.068  0.2527 -0.1300 -0.0351
 9084W        W24215   3.107  10.691   1.315  0.1437  0.1220 -0.0956
 9085W        W24216   5.319   6.827  14.923 -0.2942 -0.0421 -0.2451
 9086W        W24217   1.564   5.869  12.126  0.1248  0.1565 -0.1966
 9087W        W24218  13.862  15.191  14.791 -0.1568 -0.1238  0.0443
 9088W        W24219  12.514   0.811   5.461  0.0177 -0.0802  0.1816
 9089W        W24220   1.241   9.180   0.708 -0.0014 -0.2191  0.3912
 9090W        W24221  14.816   0.802  12.965 -0.2403  0.0165  0.4797
 9091W        W24222   5.719   4.890   4.196 -0.3016 -0.2654  0.0292
 9092W        W24223  10.895   2.789  11.947  0.0074  0.1263  0.0611
 9093W        W24224   0.037   0.636  12.292 -0.1024  0.0019 -0.1303
 9094W        W24225   8.506   4.144  13.627 -0.0723  0.1789 -0.0770
 9095W        W24226  14.675  16.467   0.592 -0.0995  0.0914  0.1664
 9096W        W24227   4.249  16.634   1.110  0.1477  0.3601  0.0005
 9097W        W24228   0.675  10.127   5.856 -0.2451  0.3908 -0.2288
 9098W        W24229   8.074   1.654  12.128  0.2553 -0.1696  0.3873
 9099W        W24230   1.268   7.206   3.858 -0.0350 -0.1726  0.1135
 9100W        W24231   8.481   6.313   0.688 -0.0652  0.1229 -0.0003
 9101W        W24232   4.781   3.451  12.772  0.2464 -0.2372 -0.0075
 9102W        W24233   7.816   0.655   5.163  0.0309  0.3163 -0.1621
 9103W        W24234  11.357   6.884   3.115  0.3101 -0.0206  0.4605
 9104W        W24235   5.307  14.886   2.638  0.2574 -0.1287 -0.0352
 9105W        W24236   2.848  16.145  13.635 -0.0065  0.0735  0.0614
 9106W        W24237   6.809  17.041  14.400  0.0879 -0.1636  0.1672
 9107W        W24238   7.183   7.852  12.455  0.2037 -0.2921  0.1965
 9108W        W24239  17.871   1.267  13.008 -0.0641 -0.0718  0.1022
 9109W        W24240   4.893  17.277  12.958 -0.1959 -0.3044  0.0873
 9110W        W24241  15.447   8.087   1.578 -0.0896 -0.0693 -0.3718
 9111W        W24242  16.156   4.908  13.042  0.0580 -0.1142 -0.3630
 9112W        W24243  18.087   0.275  11.119 -0.0894 -0.3118 -0.3029
 9113W        W24244  10.998   5.568  15.368 -0.0935 -0.2655 -0.1862
 9114W        W24245   4.658  14.092  15.299 -0.0071  0.1313 -0.0964
 9115W        W24246  14.494  12.960   1.779  0.1500  0.0527 -0.1632
 9116W        W24247   8.446   9.666  10.961 -0.5255 -0.0490 -0.0396
 9117W        W24248  16.756  12.535   5.231  0.0916 -0.0713  0.1843
 9118W        W24249   3.996  14.834   5.542  0.3324  0.1559 -0.1510
 9119W        W24250   3.968  17.882  11.662  0.0202  0.1102 -0.1343
 9120W        W24251   8.661  14.766   5.357 -0.1509  0.1032 -0.1540
 9121W        W24252   3.636  14.560  14.632 -0.0232  0.0897  0.4820
 9122W        W24253   0.451  12.012  13.021  0.0400 -0.3127  0.1249
 9123W        W24254   1.048  10.597   3.534  0.3643 -0.0912  0.0109
 9124W        W24255   6.004  16.950   2.016 -0.1204  0.1790 -0.0587
 9125W        W24256   4.569   1.064   3.450  0.4882  0.3079 -0.0294
 9126W        W24257  11.401  15.192   3.923  0.1428  0.1273 -0.0509
 9127W        W24258   0.304   1.434  13.069  0.1027  0.4096 -0.1002
 9128W        W24259   0.054  11.504  10.916  0.1444 -0.1203  0.1649
 9129W        W24260   6.423  12.073  12.888  0.1758 -0.2189  0.1883
 9130W        W24261   3.198   3.883  14.744 -0.0715  0.3507 -0.1253
 9131W        W24262   0.538  14.042  11.112 -0.1800  0.0861 -0.0505
 9132W        W24263  16.631  14.762  10.684  0.0132 -0.1098  0.2670
 9133W        W24264   6.583   6.133   1.218 -0.2703  0.3397  0.0324
 9134W        W24265  13.084   5.002  12.411 -0.1184 -0.0121  0.0618
 9135W        W24266   6.730   5.125   5.025 -0.0644 -0.1938 -0.2149
 9136W        W24267  18.379   1.269  15.130 -0.1449 -0.0355  0.0380
 9137W        W24268   6.435  15.710   0.992  0.0434  0.3215 -0.0056
 9138W        W24269   4.563   3.527   0.514  0.0318  0.2678 -0.0361
 9139W        W24270   4.504   6.352   2.052 -0.0787  0.2129 -0.4624
 9140W        W24271  16.230  15.815  11.903 -0.1118  0.0864  0.2793
 9141W        W24272   5.851  13.878   5.031  0.2938  0.1012  0.0801
 9142W        W24273   2.885  12.936  11.577  0.1594 -0.0294  0.0758
 9143W        W24274  14.048   4.338  15.112 -0.2648 -0.3621 -0.1139
 9144W        W24275   4.831   7.145   2.099  0.1447  0.0152 -0.0612
 9145W        W24276   6.382   0.260  14.160  0.0936 -0.0898 -0.0809
 9146W        W24277   2.110  13.153   1.019  0.0665  0.1585  0.2706
 9147W        W24278   8.438   3.566  11.093  0.1292 -0.1143  0.3630
 9148W        W24279  15.607  13.244   5.344 -0.1468  0.4082 -0.0546
 9149W        W24280   2.226   6.584  11.873 -0.1150 -0.0193 -0.0894
 9150W        W24281  18.046  17.212  10.770 -0.0663  0.0378  0.4714
 9151W        W24282  16.685  10.340   4.476 -0.0601  0.3134  0.1579
 9152W        W24283  14.454  14.723  13.703 -0.3565 -0.0289  0.0261
 9153W        W24284  13.772   9.853   2.342  0.0943 -0.0920  0.0973
 9154W        W24285   5.928  13.627  14.257 -0.2413 -0.1682 -0.0547
 9155W        W24286   3.808   9.578  15.629 -0.0516 -0.0447  0.0165
 9156W        W24287  15.088  16.851  15.564 -0.2164  0.1811 -0.2452
 9157W        W24288   1.230  13.645   4.517  0.1166  0.0679  0.1117
 9158W        W24289   7.001  17.759  11.295 -0.1092 -0.0984  0.0962
 9159W        W24290  15.405   3.717   2.787  0.0023 -0.0489 -0.1386
 9160W        W24291  11.195   8.469  11.638  0.1907  0.2199  0.2536
 9161W        W24292  16.909  14.822   2.910 -0.1057 -0.0676  0.1051
 9162W        W24293   1.279   3.213  12.053  0.1608 -0.0928 -0.2592
 9163W        W24294   5.756   6.544   2.869 -0.2277 -0.2034 -0.1943
 9164W        W24295   7.184  11.231   5.132 -0.3002 -0.0637 -0.1145
 9165W        W24296   9.278   0.960  15.505 -0.2542  0.4905  0.2085
 9166W        W24297   1.405  13.888  10.768 -0.2008  0.1848  0.0969
 9167W        W24298  18.286   1.211   2.797  0.0010 -0.0952  0.3154
 9168W        W24299   4.751   4.515   2.047  0.2479  0.3956 -0.0980
 9169W        W24300   1.278   1.023   1.510 -0.0280  0.2960  0.1644
 9170W        W24301   7.924   6.103  11.919  0.0275  0.1472  0.0334
 9171W        W24302  15.096   7.241   1.150  0.1869 -0.1993  0.2537
 9172W        W24303   3.216   0.481  11.531 -0.3642  0.1677 -0.3474
 9173W        W24304   4.266   0.719   2.058  0.1496  0.0898  0.0159
 9174W        W24305  17.325  11.959   4.818 -0.0638 -0.1872  0.4222
 9175W        W24306  17.865   0.708  15.341  0.0021 -0.0272 -0.0201
 9176W        W24307   9.369   4.132   4.266  0.2530 -0.0463  0.1390
 9177W        W24308   6.751   2.186  15.038 -0.1494 -0.0015  0.0234
 9178W        W24309  12.224   0.590   3.050 -0.1958 -0.2228 -0.2272
 9179W        W24310   9.757  15.986  11.488 -0.2751  0.0119  0.1198
 9180W        W24311  17.950   2.877   1.899  0.0191  0.0391 -0.1040
 9181W        W24312   9.715   4.595   3.617 -0.2439  0.1412  0.0459
 9182W        W24313  11.949   7.754  14.162 -0.0087 -0.0866 -0.0760
 9183W        W24314  12.645   1.797  14.077 -0.2120  0.2072  0.3161
 9184W        W24315  14.310  14.098   4.258  0.0330  0.0544 -0.1483
 9185W        W24316   9.028  13.193  10.057  0.1143 -0.1461  0.1357
 9186W        W24317   9.250   3.654   3.561 -0.0010 -0.0870  0.3034
 9187W        W24318   1.497   0.545  15.253 -0.2163  0.0649 -0.1320
 9188W        W24319  13.413  15.566  11.627  0.3843  0.0009  0.2121
 9189W        W24320   7.478   2.058   0.762  0.1928 -0.1065 -0.0009
 9190W        W24321  12.580   0.279   4.941  0.0447  0.1705  0.0877
 9191W        W24322   5.380   7.252  14.411  0.2660 -0.2127 -0.0566
 9192W        W24323   2.758  11.709   3.515 -0.0102 -0.2931  0.0894
 9193W        W24324  15.456  18.263  12.868 -0.1859  0.0897  0.4034
 9194W        W24325  12.648  12.122  11.362 -0.1848 -0.1030  0.0077
 9195W        W24326   8.412  18.434   0.044  0.2839  0.0641  0.0338
 9196W        W24327   9.326  12.063   3.906 -0.0158 -0.1383  0.3014
 9197W        W24328  10.166  13.166  12.792 -0.0314  0.4258 -0.0572
 9198W        W24329   3.398  16.752  14.677  0.0662  0.2733 -0.1970
 9199W        W24330   1.293   5.434  15.371  0.4194  0.1686 -0.2235
 9200W        W24331   7.400  16.455  15.927  0.3222  0.0562 -0.0578
 9201W        W24332  11.720   6.665   3.525  0.1967 -0.1549  0.0415
 9202W        W24333   9.720   2.826   0.048  0.2303  0.0220  0.0300
 9203W        W24334   4.668  13.459   1.615 -0.3066  0.2008 -0.1692
 9204W        W24335  13.511   7.391   4.538  0.1276  0.1003  0.2172
 9205W        W24336   7.406   5.632   1.704 -0.3207 -0.1065 -0.1133
 9206W        W24337   3.639  10.626  10.150  0.0901 -0.1057  0.0049
 9207W        W24338   4.869  15.712  10.555 -0.3360  0.0750 -0.3082
 9208W        W24339   3.373   7.216   0.982  0.1621 -0.1186  0.1591
 9209W        W24340   0.263  13.450   1.618 -0.2815 -0.1255  0.0923
 9210W        W24341   2.022   4.398  10.734  0.2353 -0.1296  0.0110
 9211W        W24342   5.227  11.619  13.740  0.0894  0.1340  0.0134
 9212W        W24343  12.087  11.610   4.653  0.0850  0.0940 -0.4766
 9213W        W24344  16.164  12.055  13.560 -0.1765 -0.1436 -0.2146
 9214W        W24345  11.633   0.589  11.942 -0.1701  0.1176  0.2552
 9215W        W24346  10.181   7.939   1.164 -0.1174  0.0673 -0.2292
 9216W        W24347  17.650   3.783   1.726 -0.0810  0.0810  0.0876
 9217W        W24348   3.737   6.761  15.938  0.0350  0.0715  0.2094
 9218W        W24349  14.839  11.200   1.623 -0.0627  0.0862  0.0477
 9219W        W24350  14.846   2.260  12.680  0.0406 -0.2789  0.0650
 9220W        W24351  17.010   4.488   1.565 -0.2852 -0.1707  0.3367
 9221W        W24352   7.221  14.558   0.190  0.0303 -0.3273 -0.0190
 9222W        W24353   7.103  17.507   2.313 -0.3857  0.2383  0.0002
 9223W        W24354  15.246   0.163  12.504 -0.0924  0.1778 -0.0294
 9224W        W24355   3.276   6.761  11.509  0.1063  0.1661 -0.0913
 9225W        W24356   2.290   1.430   1.463  0.1783 -0.1992  0.1904
 9226W        W24357  15.627   3.043   2.481  0.1291  0.1067  0.0156
 9227W        W24358   5.809  13.897  12.911  0.0731  0.0961 -0.0104
 9228W        W24359   1.255  16.540   0.205 -0.0862 -0.0162  0.0113
 9229W        W24360  10.178  10.304   1.703 -0.2614  0.0497  0.0138
 9230W        W24361   8.280   8.568  15.316  0.0126  0.1203 -0.2071
 9231W        W24362  15.146  16.312  10.930 -0.0059  0.0766  0.2319
 9232W        W24363   6.271  15.685   0.414 -0.0970  0.1447 -0.0885
 9233W        W24364   8.740   0.557   1.436 -0.0927  0.1801  0.0705
 9234W        W24365  17.211   0.462   1.584  0.0758 -0.2225 -0.3134
 9235W        W24366  10.363  14.084  14.829 -0.1114  0.1014  0.0015
 9236W        W24367   1.110   1.958   3.998  0.0784 -0.1074 -0.0227
 9237W        W24368   3.963  16.012  14.549  0.1156 -0.0967 -0.2097
 9238W        W24369  14.524   4.626  12.077 -0.1423  0.1415  0.1140
 9239W        W24370  15.622  16.807  15.443 -0.3833  0.0761  0.1502
 9240W        W24371   0.423  11.128  13.225 -0.1293 -0.4132 -0.2894
 9241W        W24372  16.411   4.481  13.011  0.1882  0.0183  0.2514
 9242W        W24373  13.292  12.531   1.994 -0.3629 -0.4162  0.2176
 9243W        W24374   1.958   5.212  11.970  0.3455 -0.1597 -0.1989
 9244W        W24375   3.058   2.311  15.078  0.0981 -0.1155 -0.2101
 9245W        W24376   0.127   7.887  14.015  0.0359 -0.1230 -0.1657
 9246W        W24377  12.364   2.691   2.849  0.1667  0.0277  0.1241
 9247W        W24378  18.137   0.523   0.737 -0.1087 -0.0542 -0.0716
 9248W        W24379  10.231   6.219  13.028 -0.1315  0.1785 -0.2151
 9249W        W24380  11.319  14.456  15.072 -0.0122 -0.3140  0.0878
 9250W        W24381  15.698  10.258  12.092 -0.0320  0.2278  0.2463
 9251W        W24382  15.022  13.412  11.769 -0.1945 -0.2234 -0.2267
 9252W        W24383   9.382  12.885   3.346  0.0039 -0.0949 -0.0286
 9253W        W24384  14.409  10.111  11.638  0.2795 -0.4173 -0.2970
 9254W        W24385  16.615   8.882   1.449 -0.2638 -0.1857  0.0584
 9255W        W24386  14.633  17.681   1.144 -0.0977  0.0705 -0.0177
 9256W        W24387   6.494   5.723   1.579 -0.1651  0.3279 -0.0648
 9257W        W24388  17.936   6.538   4.281  0.4089 -0.3747  0.0049
 9258W        W24389  15.001   3.609   5.305 -0.1993  0.0117 -0.0256
 9259W        W24390   0.017  14.811   3.208  0.2337 -0.0370  0.0115
 9260W        W24391  11.046  14.890  12.080 -0.0660  0.0141  0.0968
 9261W        W24392  13.730   0.783   0.781  0.0920 -0.1399  0.0431
 9262W        W24393   2.140  14.135   1.704  0.0623  0.0753  0.1926
 9263W        W24394   3.259  13.810  12.207 -0.1949 -0.1417 -0.2336
 9264W        W24395  11.590  17.959  13.425 -0.0306  0.0680 -0.2328
 9265W        W24396  10.789   2.253   0.822  0.0823 -0.1172  0.3075
 9266W        W24397  14.909  17.356   3.194  0.0785  0.0605 -0.2481
 9267W        W24398   1.816  11.037   3.204  0.1315  0.0304  0.2536
 9268W        W24399   0.380   7.016  14.894  0.4013  0.0403 -0.1348
 9269W        W24400  17.637  13.732  13.871  0.0078 -0.2538 -0.5184
 9270W        W24401   7.074   6.171   1.036 -0.1841 -0.0470 -0.1132
 9271W        W24402  17.285  15.315   0.742 -0.0887  0.5401 -0.1662
 9272W        W24403  10.502   5.626  13.737  0.0065  0.2397  0.2278
 9273W        W24404  16.381  16.469   5.280  0.0926 -0.2779 -0.0246
 9274W        W24405  12.863  14.640  13.087  0.3415 -0.0250 -0.0568
 9275W        W24406   7.311   5.003   2.657 -0.3939  0.2002  0.1835
 9276W        W24407  18.354  13.822   4.545 -0.1353  0.0626 -0.3107
 9277W        W24408   3.919  10.118   0.338 -0.0544  0.2039  0.1360
 9278W        W24409  11.482  11.891  15.343  0.0230 -0.0436  0.3344
 9279W        W24410   8.069   3.625   4.409 -0.0684 -0.0539  0.2711
 9280W        W24411   5.406   2.450   0.605 -0.0563  0.0632  0.1126
 9281W        W24412  12.351  10.986   0.596  0.2230 -0.2668 -0.1658
 9282W        W24413   9.627   9.115  15.151 -0.4981 -0.1296 -0.3353
 9283W        W24414   1.185   8.906  14.284 -0.1308  0.1307 -0.3811
 9284W        W24415   6.231   8.760   4.293 -0.0697 -0.0888  0.1215
 9285W        W24416   4.325   4.431  12.723  0.0165 -0.3807 -0.0055
 9286W        W24417  10.957   6.582  14.886  0.0719 -0.1096 -0.1365
 9287W        W24418  16.874   3.882  15.284  0.2203  0.2196  0.2866
 9288W        W24419  15.506   3.053  12.600  0.1118  0.0567  0.2230
 9289W        W24420   0.605   1.046  11.810 -0.1558  0.1426 -0.0327
 9290W        W24421   8.724  16.517   0.285 -0.0430  0.0178 -0.3022
 9291W        W24422   3.465  11.932  12.789 -0.1371  0.0861  0.1436
 9292W        W24423   4.713   2.009  10.815 -0.2633 -0.0705 -0.0208
 9293W        W24424   1.767   0.869   1.846  0.0959  0.5476 -0.0443
 9294W        W24425   8.822  12.169   5.081 -0.1004  0.1637  0.0806
 9295W        W24426   8.958   6.491   0.412  0.1604  0.2424  0.0382
 9296W        W24427  14.589  16.470  12.825  0.0574 -0.1170 -0.1678
 9297W        W24428   8.402  10.647  15.093 -0.1645  0.0450 -0.0586
 9298W        W24429   4.918   4.629   4.810  0.1589  0.4438  0.1391
 9299W        W24430  10.411  14.082  14.323  0.1698  0.1583 -0.0486
 9300W        W24431  14.400   8.786  15.390  0.0926  0.0505 -0.0054
 9301W        W24432  12.368  11.271   1.061  0.2634  0.0053 -0.1122
 9302W        W24433   1.530  10.330   0.332 -0.2050 -0.1524  0.1512
 9303W        W24434   6.938   6.333  11.907 -0.0773 -0.1094 -0.2715
 9304W        W24435   7.631  16.664  11.425 -0.0523  0.3294 -0.1462
 9305W        W24436  17.566  16.944  10.885 -0.1772 -0.3383  0.0009
 9306W        W24437  14.000  11.673  13.975  0.3337  0.0355 -0.0492
 9307W        W24438   8.451   9.285   1.762  0.0554 -0.2242  0.0522
 9308W        W24439   7.577   6.252  15.744  0.0178 -0.2599  0.1480
 9309W        W24440   7.529   2.778   5.964 -0.0250 -0.0719  0.0167
 9310W        W24441   1.957   4.145   2.629  0.0192 -0.0108  0.0694
 9311W        W24442   4.789  14.049  10.881 -0.0582 -0.0459 -0.2281
 9312W        W24443   4.878  10.285   5.644  0.0233 -0.0593 -0.1081
 9313W        W24444   2.692   3.697  15.433 -0.0757 -0.0142  0.0415
 9314W        W24445   5.709   5.674  13.605 -0.0168 -0.2638  0.0384
 9315W        W24446   4.410  13.848   2.963  0.0902 -0.0077 -0.3921
 9316W        W24447  10.796   8.530  14.461  0.0374 -0.0230  0.3467
 9317W        W24448   1.198   9.295  14.765 -0.0035 -0.4510 -0.2212
 9318W        W24449   5.503   3.986   1.044 -0.0625 -0.1692  0.1779
 9319W        W24450   9.951  11.735   3.268 -0.1509 -0.1474 -0.2634
 9320W        W24451  12.227   1.501  11.963  0.4639 -0.0093 -0.1149
 9321W        W24452   2.394   1.277  14.500  0.1067  0.1964  0.0970
 9322W        W24453   9.101  10.387  12.973  0.0328 -0.0209 -0.1864
 9323W        W24454   7.242   6.895  15.176 -0.0571 -0.1505  0.0486
 9324W        W24455   4.583  14.293   0.853 -0.0248  0.2842 -0.1650
 9325W        W24456  17.466  15.934  12.264  0.3982 -0.2520 -0.0479
 9326W        W24457  10.199  11.508  13.979 -0.1952 -0.4627  0.3154
 9327W        W24458  15.003  12.250   1.143  0.2782 -0.0435 -0.1383
 9328W        W24459   7.707  15.837   5.107 -0.1864  0.0359  0.1085
 9329W        W24460  16.344  15.354  11.831  0.2370  0.2411  0.2995
 9330W        W24461   5.327   0.699  12.537 -0.0123  0.1062 -0.1523
 9331W        W24462   0.410   0.794   1.706 -0.1058  0.2388  0.2001
 9332W        W24463  17.969   5.853  15.238  0.1712 -0.1604  0.2366
 9333W        W24464  17.580  11.982   0.242 -0.0333  0.2078  0.2279
 9334W        W24465  17.718   7.411   1.371  0.0948  0.2365 -0.1885
 9335W        W24466   7.458   4.723  15.384  0.0659 -0.0645  0.0704
 9336W        W24467  11.829  10.666   3.661  0.0373  0.3037 -0.0859
 9337W        W24468  11.023   9.604   1.417 -0.3099 -0.1206  0.1319
 9338W        W24469  15.302   7.845  15.650 -0.0404 -0.0780  0.0212
 9339W        W24470   9.839   2.418  14.811 -0.2195 -0.4314 -0.0464
 9340W        W24471   0.350  11.522  12.257  0.0434  0.0265 -0.4078
 9341W        W24472   7.583  10.395   1.783 -0.0991 -0.0059 -0.2565
 9342W        W24473   3.951   6.163   5.563  0.2709 -0.1556  0.2077
 9343W        W24474   2.460   7.877   2.987 -0.0707 -0.0334 -0.2285
 9344W        W24475  16.687   1.729   0.212  0.0257 -0.1153  0.0707
 9345W        W24476  13.141   2.699   2.133 -0.3028  0.0449 -0.0675
 9346W        W24477  14.166  11.873   3.342 -0.1465 -0.0469  0.1120
 9347W        W24478   8.395   1.707   3.902 -0.1831  0.3297 -0.0768
 9348W        W24479   9.959   5.623   4.316 -0.3882 -0.0114 -0.1216
 9349W        W24480   6.125   0.145   9.711  0.0503 -0.1251 -0.2894
 9350W        W24481   5.820   3.029   3.585 -0.0126 -0.1028 -0.1058
 9351W        W24482   2.110   6.420  13.493  0.0101 -0.0324  0.3410
 9352W        W24483   6.585  16.883  15.204 -0.1244 -0.1173 -0.0601
 9353W        W24484  13.377   0.620   4.224  0.1003 -0.2580  0.3448
 9354W        W24485  17.435   9.266  11.657 -0.1470  0.0983 -0.1222
 9355W        W24486  11.872   7.827   5.281 -0.0020 -0.3359 -0.3150
 9356W        W24487   3.821  17.692  12.396 -0.3270  0.3404  0.0334
 9357W        W24488   4.925  16.564  10.123 -0.2768 -0.3866  0.3107
 9358W        W24489   6.439  12.237  11.980  0.1922 -0.0909 -0.0913
 9359W        W24490   1.024   6.966  11.512 -0.0869  0.0078  0.0303
 9360W        W24491   2.740   2.453   3.936  0.2208 -0.1470 -0.0720
 9361W        W24492   1.517   4.129  15.326  0.2017 -0.2034  0.2006
 9362W        W24493   9.942  12.849  11.961  0.1005 -0.0027  0.0817
 9363W        W24494  11.521   5.678   0.984  0.2516  0.0844 -0.0782
 9364W        W24495   0.275   7.215  14.429 -0.0547  0.2309 -0.2930
 9365W        W24496  12.461   6.883   0.551  0.4375 -0.0630  0.1698
 9366W        W24497  12.190   4.437   0.769  0.1308 -0.1135  0.2118
 9367W        W24498   8.611   8.320   0.242  0.0196 -0.2811  0.0917
 9368W        W24499   3.315   5.299   3.906 -0.0008 -0.0725 -0.0429
 9369W        W24500   0.396  14.926  11.971  0.0710 -0.3264  0.0708
 9370W        W24501   4.546   1.486  15.132 -0.2755  0.4425  0.1409
 9371W        W24502   4.375   6.889   0.517  0.3636 -0.1088 -0.1990
 9372W        W24503   6.303   8.968  15.475  0.1135 -0.0753 -0.2360
 9373W        W24504  11.972   6.889   0.763  0.0730 -0.1064  0.1428
 9374W        W24505   4.770   5.248  11.425 -0.0614  0.0512 -0.0230
 9375W        W24506   0.939   1.853   4.482 -0.0650 -0.4343  0.0819
 9376W        W24507   2.881   6.843   0.459  0.1046 -0.2719  0.1109
 9377W        W24508   1.875   7.447   0.667 -0.0119  0.0564 -0.0151
 9378W        W24509   1.875  13.392  12.667 -0.0813 -0.2494 -0.2054
 9379W        W24510   2.972   7.787  15.842  0.3008 -0.1314 -0.1667
 9380W        W24511   5.081  11.707   1.541 -0.0094  0.0228 -0.5539
 9381W        W24512  10.301  16.047   3.719  0.2635 -0.0206  0.1145
 9382W        W24513   7.375   1.105   4.720 -0.1575  0.2704 -0.0558
 9383W        W24514  15.808   8.011   4.770  0.1128 -0.2587 -0.2348
 9384W        W24515   5.673  15.277   2.564  0.0798 -0.0747  0.0352
 9385W        W24516  13.114   6.149   0.874  0.1332  0.5051 -0.0633
 9386W        W24517  10.824  11.873  13.524  0.1239 -0.3515  0.0740
 9387W        W24518   1.825   8.516   2.851  0.0369 -0.1026 -0.0017
 9388W        W24519  15.475   7.418  12.300  0.0338  0.1023  0.2157
 9389W        W24520  17.625  14.089   0.157 -0.4525 -0.2077  0.0194
 9390W        W24521  16.207   8.958   2.641  0.1006 -0.0008  0.2576
 9391W        W24522  12.189  16.161   1.187 -0.0166 -0.3675  0.0331
 9392W        W24523   8.968  10.026   1.651 -0.1852 -0.2486  0.3027
 9393W        W24524   9.168  10.961   1.571  0.0423 -0.2331 -0.0492
 9394W        W24525  14.232   4.740   1.346  0.3791 -0.3347 -0.0104
 9395W        W24526   4.315  11.898   5.240  0.1317  0.0232 -0.2076
 9396W        W24527  11.101  11.954   3.935  0.1938  0.2769 -0.0915
 9397W        W24528  12.171   1.706  12.837 -0.0206  0.0154 -0.1673
 9398W        W24529   2.494  10.186   3.303 -0.2658  0.2629 -0.1142
 9399W        W24530   9.240   4.343  14.814 -0.1306  0.1315 -0.1445
 9400W        W24531   8.402   6.301  15.684  0.0092  0.2754 -0.1462
 9401W        W24532   6.852  16.504   0.548 -0.0669 -0.1388  0.1955
 9402W        W24533  17.866   3.297   1.037  0.0720 -0.0341  0.0620
 9403W        W24534  13.265   8.070   3.049 -0.2299 -0.2588 -0.0241
 9404W        W24535  14.739  17.539   2.437  0.1445  0.0559 -0.0723
 9405W        W24536   1.672   6.683  12.078  0.1072 -0.3290  0.1403
 9406W        W24537   1.818   9.347  15.687  0.0664 -0.0413  0.0611
 9407W        W24538  18.366   4.317  12.330 -0.4292 -0.1633 -0.0722
 9408W        W24539   3.163  13.108  12.849  0.4300  0.0647  0.3625
 9409W        W24540   9.719   1.331  15.501  0.1000  0.0951  0.1125
 9410W        W24541   7.502   6.309   5.023 -0.0779 -0.0616 -0.1892
 9411W        W24542   1.307  10.232   5.706  0.0530  0.1848  0.2366
 9412W        W24543  15.401   3.709   1.575 -0.1687 -0.2587  0.1972
 9413W        W24544  12.375   4.608  11.446  0.2344 -0.4530  0.1467
 9414W        W24545   7.301  17.795   4.614 -0.0454  0.1351  0.0575
 9415W        W24546   3.391  12.816   2.613  0.1134  0.1773  0.1323
 9416W        W24547   2.719   4.697  11.593  0.1182  0.2849  0.0590
 9417W        W24548   0.000   7.213   3.721  0.0027 -0.1915  0.0835
 9418W        W24549  11.850   3.379   6.021 -0.1855  0.1385 -0.0115
 9419W        W24550   1.812   2.767  10.481  0.2931 -0.2631  0.0622
 9420W        W24551  13.962   0.186  10.164 -0.0152  0.0165 -0.0812
 9421W        W24552   2.127   1.856   2.536 -0.1550 -0.0917  0.1997
 9422W        W24553   5.280   6.767   0.317  0.1505  0.0711 -0.1878
 9423W        W24554  13.088  14.086  13.285 -0.2762  0.6053  0.0207
 9424W        W24555   7.099   6.238  11.316  0.1049 -0.1042  0.0449
 9425W        W24556   6.014  13.981   1.848  0.0355  0.3041  0.0242
 9426W        W24557  13.455   9.547   0.181 -0.2659 -0.1505  0.0259
 9427W        W24558   1.145  12.256   2.645  0.0792  0.0497 -0.0306
 9428W        W24559   4.073  15.336  15.082 -0.0608  0.0702  0.2134
 9429W        W24560   0.276   9.616   3.874  0.1897  0.0374 -0.2573
 9430W        W24561   5.883  14.166  10.619  0.0365  0.1350  0.1731
 9431W        W24562   8.310   9.462   2.744 -0.0091 -0.1995 -0.1406
 9432W        W24563  16.548  12.572   3.081  0.3967  0.0470  0.0152
 9433W        W24564   7.381   2.939  15.946  0.0770  0.3351 -0.0117
 9434W        W24565   8.830  17.542  13.829  0.1511  0.2364 -0.2226
 9435W        W24566  11.510   5.500   5.824 -0.1139  0.2833  0.0480
 9436W        W24567  11.376  13.231  11.820  0.0096  0.0509 -0.1225
 9437W        W24568  11.202  16.108   2.042  0.4514  0.3201 -0.0822
 9438W        W24569  17.230  16.734   4.199  0.1317  0.1361 -0.2294
 9439W        W24570   8.988   8.349   4.793 -0.3397  0.3704  0.2475
 9440W        W24571  16.018  13.908   2.400 -0.1097 -0.1723  0.2994
 9441W        W24572   0.919  11.793   2.704 -0.0126  0.1851  0.0563
 9442W        W24573  15.920  17.350  14.918 -0.4656 -0.1495  0.1942
 9443W        W24574   3.950   0.751  13.711  0.2003  0.2922  0.1591
 9444W        W24575  11.580   3.554   3.490 -0.0827 -0.3306  0.1513
 9445W        W24576  17.164   1.841   4.816 -0.0867 -0.6740  0.2725
 9446W        W24577   4.598  10.537   0.592  0.0334 -0.1362 -0.0491
 9447W        W24578  16.345   2.957  11.723  0.0020 -0.1520  0.0618
 9448W        W24579   7.069   8.764   5.222  0.2153 -0.1909 -0.0524
 9449W        W24580   9.353   6.825  14.439  0.3388 -0.2484  0.1411
 9450W        W24581   8.063   3.383   1.671 -0.0706 -0.0079  0.1967
 9451W        W24582  14.484  11.166  10.578  0.3959  0.3908 -0.2907
 9452W        W24583   8.342   1.952  12.448  0.0760  0.0852  0.2910
 9453W        W24584   8.708   0.678  15.368 -0.0380 -0.0877  0.2598
 9454W        W24585  17.561   5.403   0.325 -0.0836 -0.1866 -0.3089
 9455W        W24586   4.369  13.134  10.508 -0.2869 -0.0831  0.0241
 9456W        W24587   9.973   9.157   6.058 -0.2654 -0.0395  0.2684
 9457W        W24588   9.481   4.413   3.167  0.1505 -0.2394 -0.0126
 9458W        W24589  15.410   5.319  14.629  0.0578 -0.1756 -0.2335
 9459W        W24590   9.252  14.742  12.422 -0.0196  0.0958 -0.0478
 9460W        W24591   7.011  11.756  14.661 -0.1501  0.0223  0.1585
 9461W        W24592  14.492   5.647   2.493 -0.3223  0.2296 -0.0742
 9462W        W24593   0.897   9.371  11.433  0.2373 -0.0880 -0.0639
 9463W        W24594   8.743   3.711   5.948 -0.0243  0.0936 -0.2660
 9464W        W24595   8.775   7.213   0.086 -0.3065  0.0742 -0.1499
 9465W        W24596   3.059  12.855   0.282  0.5664  0.2211 -0.0258
 9466W        W24597   5.931  12.249  10.604  0.0029  0.0734 -0.0340
 9467W        W24598  16.976   4.658  12.508 -0.0561 -0.1875 -0.0077
 9468W        W24599   9.051  18.253  12.753 -0.1544  0.2278 -0.0717
 9469W        W24600   5.583  11.944  10.385  0.3117  0.1168 -0.1429
 9470W        W24601   3.265  15.326  13.133  0.1857  0.0917 -0.0452
 9471W        W24602   8.024   6.063  15.942 -0.2199 -0.1851  0.1516
 9472W        W24603  17.792  12.623  12.864  0.1589 -0.0168 -0.3100
 9473W        W24604  10.184   5.013   2.271  0.1949 -0.1364  0.0024
 9474W        W24605   5.754   6.409  11.601  0.3524  0.3042  0.0822
 9475W        W24606  10.610  17.839  14.997  0.1445 -0.0154  0.0251
 9476W        W24607   9.880   5.481   3.248  0.3019  0.2502  0.1040
 9477W        W24608   9.128  11.585   2.034  0.3826 -0.0266 -0.1012
 9478W        W24609   0.923  14.034  10.710 -0.1190  0.0823 -0.0710
 9479W        W24610   8.322   8.947  11.271  0.1258  0.0198 -0.2530
 9480W        W24611  15.967   2.357   0.824  0.0869  0.1923 -0.0380
 9481W        W24612  15.575   4.169   4.493  0.1538  0.1229 -0.0892
 9482W        W24613  14.520  10.270   2.915  0.2485  0.1960 -0.0655
 9483W        W24614  17.671  15.979  13.510  0.2009 -0.1020 -0.0309
 9484W        W24615   1.471   2.297  12.396  0.2859  0.1380 -0.0911
 9485W        W24616   0.779   7.979  14.014 -0.1845 -0.0584  0.1981
 9486W        W24617  17.471  14.351  10.806  0.0090 -0.0177  0.2900
 9487W        W24618   6.494   2.912  11.169 -0.1194 -0.2562 -0.0885
 9488W        W24619  14.323   5.938   0.066 -0.0900 -0.1785 -0.2608
 9489W        W24620  10.217  13.484   4.628  0.0195  0.1112  0.0827
 9490W        W24621  14.689  11.425  14.985 -0.0934  0.1170 -0.1901
 9491W        W24622   8.304  11.425   3.319 -0.2549  0.0394  0.2088
 9492W        W24623   4.411  17.362  10.111  0.0591  0.2254 -0.1710
 9493W        W24624  18.127  17.436  12.666 -0.3345  0.1339  0.0081
 9494W        W24625   8.932  14.488  13.414  0.2447  0.1347  0.0707
 9495W        W24626  17.092  12.891   1.931  0.2714 -0.0167 -0.0996
 9496W        W24627   1.598  17.498   3.307 -0.1657 -0.0242 -0.1365
 9497W        W24628  10.162  13.079   0.191 -0.0469  0.0370 -0.0852
 9498W        W24629  15.327   6.929   5.663  0.1086  0.0052 -0.1905
 9499W        W24630   8.050  10.481  15.414 -0.0176  0.1519 -0.1858
 9500W        W24631   7.603   5.433  13.830  0.0516  0.1522 -0.2518
 9501W        W24632  14.921   8.192  13.091 -0.0494  0.0828 -0.1272
 9502W        W24633  10.875   0.899   4.237 -0.3374 -0.1500  0.1080
 9503W        W24634  14.348   3.316   4.633  0.0831  0.1443  0.0439
 9504W        W24635  12.313  17.931   6.049 -0.0618 -0.3596 -0.1047
 9505W        W24636  13.473   9.278   5.546 -0.0098 -0.0414 -0.0621
 9506W        W24637  15.589  16.451   9.352  0.0669 -0.5830 -0.2209
 9507W        W24638   8.940   1.487  10.958 -0.0267 -0.4866  0.2989
 9508W        W24639  16.627  14.692   1.153 -0.0712  0.0683  0.1228
 9509W        W24640  11.743   8.108  13.862 -0.1004  0.2686  0.0970
 9510W        W24641   4.717   3.376   2.809  0.2725  0.2727 -0.0531
 9511W        W24642  12.996  13.626   1.264 -0.1028 -0.0135  0.1288
 9512W        W24643   3.832   4.664   0.702  0.0806 -0.0898 -0.3606
 9513W        W24644   9.521  14.673  10.726 -0.0704  0.0467 -0.2676
 9514W        W24645   8.257  18.447   2.558 -0.0531  0.0276 -0.0956
 9515W        W24646   0.600  14.279   1.923  0.0566 -0.3149  0.0336
 9516W        W24647  14.412  14.581  15.311  0.1987 -0.0758 -0.0714
 9517W        W24648   0.572  12.299  15.113  0.0688 -0.1281  0.2027
 9518W        W24649  12.092   5.185   0.062  0.0223  0.2023  0.2377
 9519W        W24650  14.342  12.281   0.593 -0.0509  0.1103 -0.4726
 9520W        W24651   5.468  17.825  14.881  0.0582  0.0649 -0.0852
 9521W        W24652   0.010   6.255  13.559  0.1180  0.1117  0.2611
 9522W        W24653   5.216  15.969  11.252 -0.4137 -0.0782 -0.1938
 9523W        W24654  13.361   8.489  13.492  0.0299 -0.2291  0.0058
 9524W        W24655   6.298  14.647   4.869  0.1087  0.2810 -0.2089
 9525W        W24656   7.961  10.523  11.727 -0.0357 -0.2095  0.3405
 9526W        W24657   2.598  17.864  13.554 -0.0407 -0.0645 -0.3217
 9527W        W24658  14.460  12.378   5.282 -0.0921 -0.2226 -0.1192
 9528W        W24659   6.763  13.255  13.994 -0.1664  0.3068 -0.1745
 9529W        W24660  17.023   8.223  11.675  0.2051  0.1335 -0.1485
 9530W        W24661   1.082   4.857  13.466  0.3849 -0.1659  0.5264
 9531W        W24662  10.822   4.382  14.511 -0.1359  0.0809 -0.0587
 9532W        W24663  10.643   4.481  13.990  0.1131 -0.0947 -0.4391
 9533W        W24664  14.385   6.071  14.754 -0.0486 -0.2283  0.2981
 9534W        W24665   8.356  10.327   2.601  0.0543 -0.0196  0.0396
 9535W        W24666   1.741   3.123   1.539  0.1531  0.1606  0.2972
 9536W        W24667  10.624  13.734   4.527  0.0336  0.0094 -0.3603
 9537W        W24668   2.963   3.846  10.638  0.2678  0.0351  0.1972
 9538W        W24669  18.479   8.967   4.185 -0.1896 -0.1087 -0.1756
 9539W        W24670   5.109   4.393  13.916  0.0164 -0.0075 -0.2066
 9540W        W24671  12.718   0.967   2.055  0.1572 -0.2779 -0.1376
 9541W        W24672   0.387  15.327  11.004  0.0244 -0.1317  0.1138
 9542W        W24673   2.203   4.442   1.811 -0.2497  0.0029 -0.0388
 9543W        W24674  11.279   6.256   3.941 -0.1847  0.2625  0.0709
 9544W        W24675  12.163  16.510  15.294 -0.0710 -0.4501 -0.1359
 9545W        W24676  17.928   2.018  15.748  0.0588 -0.2282 -0.0912
 9546W        W24677  14.814  15.550   3.563 -0.3959 -0.0436 -0.2889
 9547W        W24678   2.050   7.889   1.883 -0.1257 -0.3282 -0.0310
 9548W        W24679   6.748   8.922   1.249  0.2412  0.2262 -0.1842
 9549W        W24680   5.259   2.444   1.076  0.0771 -0.0762  0.0235
 9550W        W24681  17.575   2.678   2.899 -0.1195  0.0698 -0.1406
 9551W        W24682   8.992  13.740  12.188  0.3014  0.3367  0.1081
 9552W        W24683  10.965  11.125   3.132 -0.2549  0.1422  0.1728
 9553W        W24684   2.596  12.274   0.847 -0.0277 -0.0014  0.0767
 9554W        W24685   0.975   2.705  10.713  0.2577 -0.1911 -0.2619
 9555W        W24686  11.823  16.058   4.522  0.3958 -0.1028  0.1913
 9556W        W24687   1.895  17.399   1.177  0.0425  0.2057  0.1440
 9557W        W24688   5.382  10.725  15.382 -0.2334  0.0465  0.0103
 9558W        W24689   5.739   1.599  14.041  0.0485 -0.0648  0.3313
 9559W        W24690  14.099  10.140  14.345  0.0501 -0.1896  0.1705
 9560W        W24691   4.194   0.770  11.556  0.0319  0.0215 -0.0944
 9561W        W24692   1.059  12.980  14.249  0.1176  0.3152  0.1223
 9562W        W24693  14.235   2.001  12.165 -0.2716 -0.1359 -0.0109
 9563W        W24694  18.027  17.680  10.335  0.2052 -0.1809 -0.2233
 9564W        W24695   1.635   6.243  11.413 -0.0786 -0.0089 -0.2702
 9565W        W24696   5.073   3.606   3.231 -0.1431 -0.0760  0.0082
 9566W        W24697  16.147  11.713   5.648 -0.2124 -0.1104 -0.2663
 9567W        W24698   1.886   2.794  11.571 -0.1171 -0.2888  0.0050
 9568W        W24699  15.473   5.143  14.156  0.0272 -0.0169  0.0547
 9569W        W24700   0.177   4.642  11.110 -0.3886 -0.1303 -0.0017
 9570W        W24701  13.667  12.714  12.457  0.1717  0.1999 -0.3523
 9571W        W24702   8.629  10.802  12.962  0.1476  0.0966 -0.1442
 9572W        W24703  18.010  10.513  13.310  0.1535 -0.2728  0.0670
 9573W        W24704  13.468   3.565   1.302  0.0056 -0.0065  0.0017
 9574W        W24705   4.079   7.223   4.132 -0.0196 -0.1766 -0.0279
 9575W        W24706  17.970   5.903   0.335 -0.3196 -0.0400  0.2300
 9576W        W24707   2.256   4.028   0.920 -0.0917 -0.1330  0.0570
 9577W        W24708   7.713  17.968   4.264 -0.2171  0.1298  0.0897
 9578W        W24709   8.426  11.156  13.344  0.2930 -0.0998 -0.3531
 9579W        W24710  12.781   6.763   0.149 -0.2541 -0.1161  0.0831
 9580W        W24711  18.181  15.598  11.016  0.1130 -0.0108  0.0649
 9581W        W24712   8.180  16.017   1.773  0.2472  0.2591 -0.0205
 9582W        W24713   0.294   1.949  11.903  0.2504  0.1174 -0.1489
 9583W        W24714  17.433   3.474   1.272 -0.0864  0.0273  0.1240
 9584W        W24715   2.071  15.375  15.618  0.3757  0.0926 -0.0106
 9585W        W24716   1.985  11.994   2.899 -0.0418 -0.0754 -0.0384
 9586W        W24717   8.593   0.172   5.035 -0.0989 -0.0172 -0.5732
 9587W        W24718   8.133   8.829   1.630  0.1798 -0.1058  0.1599
 9588W        W24719  12.969   5.648   3.013  0.1921 -0.1832  0.1513
 9589W        W24720   4.690   9.053  12.003 -0.1730  0.0332 -0.1094
 9590W        W24721   6.175  13.074  11.771 -0.2042  0.2353 -0.2777
 9591W        W24722  11.331   4.006   2.988  0.0404 -0.4789 -0.1843
 9592W        W24723   4.577  10.220  13.584 -0.1402  0.3813 -0.1771
 9593W        W24724   2.814  12.612  12.126  0.0792 -0.3102  0.2831
 9594W        W24725   6.628   7.434   4.011 -0.0486  0.2974  0.0344
 9595W        W24726  16.744   2.841  13.035  0.5011 -0.0540  0.0233
 9596W        W24727   8.683  14.014  10.834 -0.2665  0.2989  0.0520
 9597W        W24728  14.784  10.969  13.792  0.0827  0.1396 -0.0955
 9598W        W24729   9.363  18.326   5.537 -0.1048 -0.0492 -0.1561
 9599W        W24730   7.549   4.097  14.828 -0.1333  0.0380 -0.3727
 9600W        W24731  10.087   1.958  11.742 -0.4767  0.1776  0.0950
 9601W        W24732   1.897   6.996   0.891 -0.1449  0.2065 -0.0580
 9602W        W24733   7.175   6.338  14.029  0.2602  0.0981 -0.0551
 9603W        W24734   5.821  11.502  14.740 -0.0375  0.0428 -0.0256
 9604W        W24735   1.961  12.568   2.945 -0.1376 -0.2984  0.0398
 9605W        W24736  12.649   3.220   1.354  0.1655 -0.0667 -0.0022
 9606W        W24737  16.238   3.644   0.481 -0.2128 -0.1983 -0.2613
 9607W        W24738   0.449  15.841   0.010 -0.0387  0.0030 -0.1543
 9608W        W24739   2.020  13.103  14.027  0.0865 -0.0612  0.0722
 9609W        W24740   0.264   4.396  14.471 -0.0493 -0.1205 -0.0268
 9610W        W24741   1.892  10.637   2.047  0.1191  0.2104 -0.0971
 9611W        W24742  10.126   2.585   2.949 -0.1186 -0.2877 -0.2770
 9612W        W24743   5.744   5.446   1.331  0.1164  0.1912 -0.1503
 9613W        W24744  16.443   2.030   2.646  0.2165  0.0172 -0.1277
 9614W        W24745   5.753   0.823   3.203 -0.0738 -0.1250  0.0887
 9615W        W24746   4.621  17.048  14.659 -0.2588 -0.0046  0.0281
 9616W        W24747  11.844   3.461  13.001  0.0390 -0.1815 -0.1087
 9617W        W24748   3.287   7.851   4.535 -0.0059  0.2265 -0.1728
 9618W        W24749   2.373  17.991  12.544 -0.1074 -0.1803 -0.1024
 9619W        W24750   8.382  15.096  15.487  0.0167 -0.2593 -0.2376
 9620W        W24751   5.281  17.322   4.403 -0.1171  0.2955  0.0278
 9621W        W24752  11.407   1.651   3.208  0.3399 -0.0086  0.0289
 9622W        W24753  10.311   1.881   5.053  0.0534  0.1656 -0.3025
 9623W        W24754   7.071  13.830  11.380 -0.0452  0.0645 -0.2025
 9624W        W24755   9.198   6.710  13.059 -0.0145  0.1639 -0.0921
 9625W        W24756   7.246  18.131  15.433  0.0831 -0.1920  0.0945
 9626W        W24757   1.478  13.072  10.591 -0.2088  0.0649 -0.2499
 9627W        W24758   0.579   8.989  14.657 -0.4515 -0.0642  0.0882
 9628W        W24759   3.206  12.044  11.681  0.3410 -0.1131 -0.0518
 9629W        W24760  18.064   4.652   4.518  0.3430  0.0134 -0.3814
 9630W        W24761   3.554   1.634  14.118  0.2061 -0.3123 -0.1501
 9631W        W24762   0.477   3.868   4.720 -0.1937  0.0062 -0.0238
 9632W        W24763  14.492   4.511   2.900  0.1244  0.1255 -0.2333
 9633W        W24764   5.178  13.442  14.765 -0.1441 -0.0445  0.2269
 9634W        W24765   9.406  14.783  11.448 -0.1062  0.0315  0.0345
 9635W        W24766  12.663   1.971  12.722 -0.0801  0.0180 -0.1773
 9636W        W24767   9.990   0.779  15.363 -0.1232 -0.0795 -0.2068
 9637W        W24768   6.725  17.586   3.286 -0.3264  0.1033 -0.0017
 9638W        W24769   2.230   6.900   5.002  0.0573  0.0729  0.1807
 9639W        W24770  13.898  10.366   2.206 -0.1932  0.1535 -0.2094
 9640W        W24771   9.772   9.428  13.827 -0.3055 -0.3532 -0.0792
 9641W        W24772   7.169  18.483  14.474  0.0508  0.1438  0.0292
 9642W        W24773   6.482   6.212   4.674 -0.1074 -0.3221 -0.2421
 9643W        W24774   0.545   3.627   0.175 -0.1427 -0.1296  0.1032
 9644W        W24775  15.468   7.394  11.759 -0.1895  0.0115  0.0850
 9645W        W24776   0.844  17.870  10.830  0.0355  0.1271  0.1711
 9646W        W24777  16.904   3.016  11.781  0.0359 -0.2044  0.2263
 9647W        W24778  10.510   2.686   5.668 -0.0100 -0.0331 -0.1243
 9648W        W24779   0.816  12.759  15.288  0.0325  0.2207  0.4396
 9649W        W24780   7.489   7.965  11.807  0.0947  0.1519  0.2104
 9650W        W24781  13.496   0.304  14.819  0.0804  0.1637 -0.2385
 9651W        W24782   6.240   0.088   0.959 -0.1238  0.0430  0.0695
 9652W        W24783  14.554   3.624  12.040  0.0882 -0.1087  0.2163
 9653W        W24784   5.956  11.887   6.131  0.0853  0.1391  0.1922
 9654W        W24785   3.743  10.446   1.864  0.0371 -0.3124 -0.0282
 9655W        W24786   9.461   5.862  15.979 -0.0600  0.2958 -0.0682
 9656W        W24787  12.112  10.335   0.034 -0.0749  0.1482  0.0944
 9657W        W24788   1.551   6.839   5.561  0.0875 -0.0105  0.2231
 9658W        W24789  18.313   6.281  12.594  0.2391 -0.1118  0.2641
 9659W        W24790   1.550   2.315   0.695 -0.2762 -0.0426 -0.1068
 9660W        W24791   8.148  11.510  12.899  0.2010 -0.0298  0.1950
 9661W        W24792  14.684   9.892  13.038 -0.0243  0.0773  0.1168
 9662W        W24793  11.947   3.200   3.477 -0.1187  0.1579 -0.1159
 9663W        W24794   4.867  12.783   0.789 -0.1021 -0.0550  0.0991
 9664W        W24795   0.118   0.521   3.411  0.1563 -0.1239 -0.1611
 9665W        W24796   4.039   7.219   5.593 -0.0733 -0.0460  0.2101
 9666W        W24797  16.339   9.169  10.793  0.1627  0.4951  0.2572
 9667W        W24798   3.051   4.388   4.329  0.0970 -0.1560  0.3559
 9668W        W24799   0.923   2.960  11.796 -0.0721 -0.1010  0.2465
 9669W        W24800   9.194  12.742  14.364  0.0521 -0.0607  0.0365
 9670W        W24801   0.721  17.141   3.077  0.3243 -0.4099 -0.2213
 9671W        W24802  10.709   9.904   5.154  0.0421  0.2786 -0.2711
 9672W        W24803   2.921   3.386  12.411 -0.0681 -0.0139  0.2581
 9673W        W24804   6.672   3.969  15.967 -0.2004  0.1288 -0.1538
 9674W        W24805  13.334  12.276   1.424 -0.2813 -0.4145  0.1640
 9675W        W24806   2.132   0.577  13.048 -0.0605 -0.0189 -0.4659
 9676W        W24807   5.795  12.016  13.818 -0.0389 -0.1937  0.0606
 9677W        W24808  16.389   1.630   2.009 -0.0072  0.0535  0.4716
 9678W        W24809   7.262   6.612  12.263  0.4048 -0.2258 -0.2295
 9679W        W24810  14.062   5.814   2.283 -0.1023  0.0190  0.1469
 9680W        W24811  15.549  10.795  12.062  0.2294  0.1625 -0.1126
 9681W        W24812   1.872   2.962  12.452  0.2131  0.1859 -0.0220
 9682W        W24813   9.373   1.682   4.050 -0.2055  0.0417 -0.0502
 9683W        W24814  13.746  13.321  15.181 -0.1039  0.1393  0.1964
 9684W        W24815   7.725  15.269  11.470 -0.0886 -0.4157 -0.0517
 9685W        W24816  16.011   6.836  15.808 -0.0488  0.1899  0.0698
 9686W        W24817  15.268   7.976  11.559  0.2891  0.0959  0.2784
 9687W        W24818  15.485  10.702   4.168 -0.0181  0.0922 -0.1772
 9688W        W24819   4.215   0.534  11.160 -0.0466 -0.2166  0.0361
 9689W        W24820  14.199  12.512   2.038  0.1880  0.0174  0.1076
 9690W        W24821   8.899   4.880  12.403  0.4514  0.1188  0.2031
 9691W        W24822   6.128   0.466  12.630 -0.0714  0.0038  0.0715
 9692W        W24823   7.079   7.328   4.220  0.1637  0.1959 -0.4025
 9693W        W24824   7.548   5.468   0.877 -0.1852  0.2695 -0.0746
 9694W        W24825  11.540  13.257   3.429 -0.1745  0.0058 -0.0319
 9695W        W24826   9.450   3.420  15.613 -0.3100  0.0942 -0.0602
 9696W        W24827  14.293  11.611   4.204  0.2913 -0.1932 -0.0221
 9697W        W24828  14.895  15.881   1.375  0.2207  0.2029  0.0460
 9698W        W24829   9.401   9.049   4.194  0.1543 -0.0332  0.0451
 9699W        W24830  16.440  11.818   4.236 -0.2315 -0.1241 -0.2751
 9700W        W24831   7.885   5.338  14.675  0.0477  0.1999  0.0853
 9701W        W24832   3.097  15.724  16.019  0.0998  0.0430 -0.1831
 9702W        W24833   8.564   0.241  15.753 -0.1055  0.3370 -0.0457
 9703W        W24834  17.318   4.354   6.376  0.0951 -0.0316  0.2008
 9704W        W24835   7.043  16.442  13.120 -0.2080  0.0100  0.5291
 9705W        W24836  14.792   3.018  10.393  0.0397 -0.1916 -0.2597
 9706W        W24837   6.149   4.170  16.046 -0.1594  0.0917 -0.3025
 9707W        W24838  16.417   9.613   3.415  0.0523 -0.3218  0.1395
 9708W        W24839  14.627   9.395   1.267  0.2057 -0.0016 -0.0327
 9709W        W24840  14.847  10.438   4.987  0.0607  0.2467  0.0204
 9710W        W24841   0.978   2.397   1.832 -0.0739  0.1470 -0.4302
 9711W        W24842   2.341  14.519   2.047 -0.1785  0.0730  0.0787
 9712W        W24843  17.277  12.832   2.581  0.0870 -0.0732 -0.2502
 9713W        W24844  10.047   1.704   2.532  0.0232  0.0531 -0.0243
 9714W        W24845  18.398   9.143   1.202  0.2034  0.2210 -0.0460
 9715W        W24846   7.250   5.041   5.158  0.0543 -0.4172  0.1445
 9716W        W24847   7.609   6.931   0.681  0.0396  0.1710 -0.1632
 9717W        W24848   8.060  13.126  12.914  0.0177  0.0256 -0.0813
 9718W        W24849   1.818  15.381   0.510 -0.0796 -0.1417 -0.0230
 9719W        W24850  13.162   2.199   3.073  0.0811 -0.0090 -0.2177
 9720W        W24851   0.858  10.300  13.464 -0.0075 -0.2527  0.0561
 9721W        W24852   0.046   9.310  13.995  0.2092  0.2431 -0.0261
 9722W        W24853   8.987  16.970  14.481 -0.0633  0.1244  0.3483
 9723W        W24854  10.141  12.969  15.356 -0.3252 -0.5211 -0.1137
 9724W        W24855   0.736   5.667   5.452  0.1470  0.1178  0.1042
 9725W        W24856   5.682   1.074  12.712  0.3928 -0.1173 -0.2406
 9726W        W24857  10.356   6.192  11.217  0.2851  0.2098 -0.1494
 9727W        W24858  12.002   6.455   2.118 -0.0196  0.1363  0.1073
 9728W        W24859  14.434  12.559   3.794 -0.0148 -0.0118 -0.0060
 9729W        W24860  11.583   6.775   5.934 -0.1241  0.1548 -0.3960
 9730W        W24861  11.135   9.155  11.807  0.0591 -0.2009  0.0814
 9731W        W24862   9.194  17.133  15.537 -0.4630 -0.1195  0.0696
 9732W        W24863   5.796   2.561   0.906 -0.2328  0.2039  0.1068
 9733W        W24864  10.849   0.412  12.342 -0.1265  0.2237  0.1084
 9734W        W24865   7.629  11.186  15.765 -0.0202 -0.0647 -0.0050
 9735W        W24866   6.143  10.567   4.172  0.0325  0.1076  0.2020
 9736W        W24867   3.554  12.611  13.486 -0.1448 -0.1192 -0.1006
 9737W        W24868   6.066  15.151   4.040 -0.1955 -0.1771 -0.1766
 9738W        W24869   7.458   3.886   3.530  0.1532 -0.0844  0.1079
 9739W        W24870   4.648   2.422   2.804  0.2297 -0.1318  0.2364
 9740W        W24871  12.524  10.885  16.094 -0.1427  0.1515 -0.0431
 9741W        W24872  17.909  12.972   4.801 -0.0183  0.3378 -0.0002
 9742W        W24873  14.855   4.028   4.564  0.0031 -0.2017  0.0528
 9743W        W24874  17.695   1.372   0.654  0.2038 -0.0610 -0.0325
 9744W        W24875   3.659  16.866  14.074  0.1115  0.1803 -0.2907
 9745W        W24876  14.641   3.205   5.541  0.0584 -0.1235  0.2810
 9746W        W24877  11.715   1.237   3.417  0.0559  0.0211 -0.0057
 9747W        W24878   9.271   2.248  14.063 -0.0557 -0.2083  0.1349
 9748W        W24879  10.666   3.914   3.373 -0.0172 -0.0877  0.1088
 9749W        W24880   7.175  16.187   4.545  0.1695  0.0152  0.0409
 9750W        W24881  15.549   4.490   3.436 -0.1510  0.0135 -0.0302
 9751W        W24882   1.640  10.207  15.672  0.2764 -0.1978  0.1050
 9752W        W24883  13.210   3.700   4.135 -0.0116 -0.1388 -0.4725
 9753W        W24884   0.026  14.841  12.401 -0.1141  0.0938  0.2612
 9754W        W24885  10.278  12.080   0.148  0.1271 -0.0400  0.0194
 9755W        W24886  11.019  10.106  14.737 -0.0543  0.0444 -0.1283
 9756W        W24887  11.118   8.057   4.796 -0.1598  0.2673  0.1449
 9757W        W24888   1.531   2.439  12.866 -0.5083 -0.1149 -0.0400
 9758W        W24889   6.296  17.247  11.891 -0.0710  0.0713  0.1163
 9759W        W24890   2.784  17.780   3.992 -0.0711 -0.0813  0.1117
 9760W        W24891   3.851  12.929   0.729  0.0748 -0.3135  0.2513
 9761W        W24892   9.178   3.406   2.243 -0.0502  0.1625  0.0272
 9762W        W24893   9.967   7.041   4.364  0.0983  0.0369  0.1600
 9763W        W24894  14.807  14.465  15.638 -0.0078 -0.2176  0.0937
 9764W        W24895   3.828  17.471   0.701 -0.0405  0.2965 -0.0723
 9765W        W24896  13.836   7.660  11.475  0.1621 -0.3977 -0.2570
 9766W        W24897  14.101   0.914   3.343 -0.1936 -0.3679 -0.4089
 9767W        W24898   9.672  14.391  12.983  0.1596  0.0153  0.1704
 9768W        W24899   0.900   6.644  12.600  0.1032  0.2824 -0.0120
 9769W        W24900   7.211   3.771  14.516 -0.0059 -0.0032  0.0565
 9770W        W24901   2.949  10.583  13.983 -0.2271  0.2925  0.3536
 9771W        W24902  11.769  17.870   4.448 -0.1314 -0.3077 -0.1214
 9772W        W24903  11.011   5.905  12.365  0.1902  0.0027  0.0454
 9773W        W24904  15.950  16.977  12.495 -0.3734 -0.3179 -0.1658
 9774W        W24905   2.414   1.008  12.911  0.0308 -0.1939 -0.1694
 9775W        W24906   9.991   9.640   1.962  0.0201  0.1499 -0.0823
 9776W        W24907  18.434  17.869  13.078  0.1013 -0.0098 -0.3134
 9777W        W24908  16.468   8.032   1.379 -0.1308  0.0205 -0.1955
 9778W        W24909  10.970   9.429   0.357  0.2046 -0.0302 -0.2244
 9779W        W24910   7.177  14.842   5.817  0.2363 -0.1102 -0.0769
 9780W        W24911  15.139   5.300  13.766 -0.1685 -0.1341 -0.2835
 9781W        W24912   9.875  10.438  14.547 -0.1689  0.0201  0.0408
 9782W        W24913  15.732  16.574   0.772 -0.3738  0.0944 -0.1209
 9783W        W24914   6.789   2.566  13.295 -0.2513  0.2165  0.1478
 9784W        W24915  16.881   8.418  13.187 -0.3112 -0.1677 -0.3349
 9785W        W24916   5.618   3.199  12.368  0.2472 -0.2484  0.2929
 9786W        W24917  14.061  10.327  15.990 -0.0192  0.3110  0.3375
 9787W        W24918   4.440  11.472   0.838  0.1323 -0.1135 -0.1283
 9788W        W24919   6.348   8.050  11.200  0.0962 -0.0372  0.1092
 9789W        W24920   7.583   7.990  15.988 -0.2029 -0.2787  0.3597
 9790W        W24921   2.041  10.422   2.561  0.2377 -0.0538  0.0659
 9791W        W24922   0.348  16.142   4.404 -0.0007 -0.2896  0.0394
 9792W        W24923   5.095   8.347   3.469 -0.4186 -0.0034 -0.1897
 9793W        W24924   0.297  14.387  13.457 -0.1090 -0.1117 -0.2461
 9794W        W24925   0.126  14.396  11.137 -0.3868 -0.0521  0.2144
 9795W        W24926   2.181   4.095   4.682  0.2828 -0.0126 -0.0095
 9796W        W24927  16.260   8.292  14.149 -0.2541 -0.1829 -0.3537
 9797W        W24928  16.766   6.618   1.930 -0.0919 -0.3596  0.0388
 9798W        W24929   4.483  13.029  12.371 -0.2471  0.0995  0.0863
 9799W        W24930   8.568  14.866  13.139  0.3085  0.0718 -0.0365
 9800W        W24931   9.784  16.201   4.815  0.1225  0.1350 -0.2316
 9801W        W24932  17.267  10.577  14.671  0.0340 -0.1440  0.1080
 9802W        W24933  11.766  11.193   0.201 -0.0796  0.0279 -0.1250
 9803W        W24934  10.369   4.664  14.402  0.0665  0.0218 -0.0961
 9804W        W24935   7.128  11.118  13.966  0.4644 -0.3130  0.2764
 9805W        W24936  12.303   4.178  13.561 -0.0602  0.0836  0.0469
 9806W        W24937  15.669  17.820  15.502 -0.0179 -0.0447 -0.1285
 9807W        W24938  16.413  12.616   3.632  0.1548 -0.0703  0.2535
 9808W        W24939   8.605   7.512   2.269  0.0703  0.1204 -0.3086
 9809W        W24940   3.195  15.729   0.482 -0.2292  0.2573 -0.0295
 9810W        W24941  11.232  14.097   1.749  0.0920 -0.2725  0.0168
 9811W        W24942  13.251   3.733  12.954  0.1127 -0.2153  0.1131
 9812W        W24943  12.052  15.398   0.557  0.0697  0.0052 -0.1752
 9813W        W24944  13.519   4.118   4.445  0.0756  0.1886  0.2267
 9814W        W24945   3.122  10.203  15.291 -0.0379  0.0474 -0.1299
 9815W        W24946  12.044   7.814   3.939 -0.1156 -0.1123  0.0866
 9816W        W24947   3.418   9.256  12.351  0.0029 -0.1112  0.3420
 9817W        W24948  10.025   7.602   0.501  0.1173 -0.2313 -0.0286
 9818W        W24949  15.452   1.880  11.447 -0.3325  0.3622  0.1467
 9819W        W24950  12.179   1.415  15.335 -0.0875  0.2164  0.2434
 9820W        W24951  11.833  13.831  14.329  0.2093  0.1737 -0.1188
 9821W        W24952   6.966   2.304  13.707  0.1577  0.2031 -0.2591
 9822W        W24953   6.665   6.534   0.934 -0.2260  0.2947  0.1733
 9823W        W24954  14.889  14.337  15.185 -0.0949 -0.0738 -0.3323
 9824W        W24955   5.333   9.391  12.003 -0.0446 -0.0079  0.2848
 9825W        W24956   6.860  16.082  11.667 -0.1273 -0.1510  0.0597
 9826W        W24957  16.831   3.420   3.549 -0.1243 -0.1186 -0.2012
 9827W        W24958  10.132   6.885  15.023 -0.3167  0.1414 -0.4819
 9828W        W24959   3.675  18.414   0.902 -0.0549 -0.0374  0.1049
 9829W        W24960  12.123   0.959   3.596  0.0382  0.2910  0.4410
 9830W        W24961  16.054  14.296  15.462  0.1227  0.0523 -0.0293
 9831W        W24962  10.808   8.236   5.656 -0.0390 -0.1423 -0.2049
 9832W        W24963   4.622   0.441   0.273  0.0029 -0.1214 -0.0017
 9833W        W24964   0.372   6.534   1.182 -0.0455 -0.1568  0.0158
 9834W        W24965   6.702  12.642   1.867 -0.1639 -0.1540 -0.1509
 9835W        W24966   3.750   9.994  15.913 -0.1453 -0.2432 -0.1841
 9836W        W24967  15.470   5.235   0.175 -0.0225  0.1356 -0.0393
 9837W        W24968  12.414   4.009   0.492  0.0590  0.1689  0.1758
 9838W        W24969  17.427  18.363  14.010 -0.1304 -0.0682 -0.0518
 9839W        W24970  16.756   9.578   1.869  0.0527 -0.1307 -0.1093
 9840W        W24971   4.796  13.064  11.888 -0.2113 -0.2168  0.0394
 9841W        W24972   9.605  12.780   0.609 -0.2106  0.1434  0.1558
 9842W        W24973  18.429   2.937  12.840 -0.2093 -0.2490 -0.0085
 9843W        W24974   6.450  10.311  14.922 -0.0890  0.1475 -0.0415
 9844W        W24975  18.101   3.007  12.485  0.1521  0.3964  0.1507
 9845W        W24976  11.377   1.605   3.962 -0.0119 -0.0246 -0.0250
 9846W        W24977   8.869  14.359   0.479  0.0433 -0.1793 -0.0143
 9847W        W24978  17.474  14.641  11.677 -0.0280  0.2701  0.0198
 9848W        W24979  16.736  17.138   5.565  0.1658  0.2826 -0.1710
 9849W        W24980   8.680   5.528   2.266  0.0112 -0.0461  0.1586
 9850W        W24981  16.004   5.274  12.245 -0.2472 -0.0856 -0.0396
 9851W        W24982   2.865   7.513  11.645 -0.1967 -0.2728  0.1916
 9852W        W24983   6.101   0.696  10.064  0.1541 -0.0668  0.4172
 9853W        W24984   2.605  12.247  15.468  0.4705 -0.2539 -0.2499
 9854W        W24985  10.409   8.958   5.877  0.0985  0.1619 -0.2474
 9855W        W24986   3.407   4.776   0.449 -0.0474  0.0556  0.2289
 9856W        W24987  11.107  11.374  14.182  0.1155 -0.2202 -0.0652
 9857W        W24988   6.127  13.178   3.644  0.2297  0.0285  0.1198
 9858W        W24989  18.440  11.123   4.702 -0.0628  0.1049 -0.0256
 9859W        W24990  13.819  13.868  13.187 -0.0770  0.3447 -0.1741
 9860W        W24991   5.271  12.414  14.498  0.3770 -0.0157 -0.2191
 9861W        W24992   4.840   9.445  12.276 -0.3035  0.0792 -0.0852
 9862W        W24993   4.183   6.253   4.592  0.0406  0.0042 -0.0087
 9863W        W24994  11.471  11.440   5.342  0.1078  0.0153 -0.1148
 9864W        W24995   0.056   7.719  10.819  0.2316  0.1685  0.1343
 9865W        W24996  17.920   0.475   3.282 -0.2394 -0.3747 -0.0322
 9866W        W24997   4.259   7.815   2.087  0.1427  0.3310  0.0283
 9867W        W24998  18.405   8.899  15.048 -0.1534  0.0229  0.1293
 9868W        W24999  11.497  14.896  12.452 -0.1802  0.3340 -0.0216
 9869W        W25000   2.243  16.381  13.126  0.0378 -0.2935  0.2651
 9870W        W25001   2.830  11.093   4.503  0.0236  0.0455 -0.2281
 9871W        W25002   2.289  13.505  10.946  0.2215 -0.0421 -0.3072
 9872W        W25003   5.042  16.451   1.195  0.3840  0.0145  0.2034
 9873W        W25004   7.808   3.542   0.856  0.0076  0.1831  0.0039
 9874W        W25005   8.584   6.958  12.229 -0.0010 -0.2584 -0.0439
 9875W        W25006   6.742  15.867  12.095  0.1351  0.2245  0.0962
 9876W        W25007   3.265   2.329   3.442  0.0224 -0.1647 -0.1159
 9877W        W25008   5.997  10.658  16.066 -0.1025 -0.2027  0.0604
 9878W        W25009   0.585   6.350   3.693 -0.0279 -0.0227 -0.1504
 9879W        W25010  17.073  16.130   4.727 -0.0644 -0.1492  0.2868
 9880W        W25011   5.989   0.879  12.226  0.3865  0.1440 -0.0789
 9881W        W25012   0.090   7.966   3.195 -0.0147  0.2356 -0.0489
 9882W        W25013  15.375   7.985   3.509 -0.0909  0.1734 -0.1954
 9883W        W25014   4.766   8.980  11.325  0.0861 -0.1286 -0.1748
 9884W        W25015  16.353   7.374  12.214 -0.0677  0.1381  0.0285
 9885W        W25016   9.387  14.115   5.601  0.0969  0.1320 -0.2238
 9886W        W25017   4.885   4.824   2.419 -0.0375  0.0606  0.0940
 9887W        W25018   4.861  11.672   4.127 -0.1765 -0.1763 -0.0052
 9888W        W25019   5.681  11.980   5.738 -0.1719  0.0136 -0.0236
 9889W        W25020  14.029  17.419   2.280 -0.3314 -0.1831 -0.2418
 9890W        W25021  18.489  13.181   1.921  0.4828  0.1586  0.0180
 9891W        W25022   7.783   6.688   5.092 -0.1060  0.0675  0.2365
 9892W        W25023   1.025   2.503   0.039 -0.0218 -0.1579  0.1306
 9893W        W25024  13.784  15.771  13.364  0.2776  0.0750 -0.0645
 9894W        W25025   1.498   7.609  14.048  0.2114 -0.0398 -0.2192
 9895W        W25026   7.744  10.829   1.342 -0.0359  0.5250 -0.0037
 9896W        W25027   3.191   8.389   2.530  0.1034  0.3354 -0.2779
 9897W        W25028  15.223  17.841  14.576 -0.0480 -0.2834 -0.0616
 9898W        W25029  13.823  10.451   4.574 -0.0802 -0.0656 -0.1958
 9899W        W25030  16.541  18.042  14.928 -0.1142 -0.0661 -0.0306
 9900W        W25031  11.685   1.832  13.895  0.2824  0.0368  0.0577
 9901W        W25032  12.971  12.109  10.549  0.3589  0.0815  0.3952
 9902W        W25033  17.514   9.549  12.074  0.0663  0.1157  0.3578
 9903W        W25034   0.151  15.825  12.092  0.3051 -0.4742 -0.0277
 9904W        W25035   5.321  11.343   2.936  0.1528  0.1420  0.0952
 9905W        W25036   2.747  11.936   1.966 -0.3704  0.3076 -0.0843
 9906W        W25037   1.536  16.127   1.446  0.1097 -0.2175 -0.1473
 9907W        W25038  13.870  12.524   6.159 -0.0632  0.0841 -0.2060
 9908W        W25039   1.311   8.805   4.791  0.0719  0.1437 -0.2310
 9909W        W25040  14.320  18.411  13.579 -0.1353 -0.1867  0.3527
 9910W        W25041  16.349  15.513   0.166  0.3970 -0.0449  0.0590
 9911W        W25042  15.959   5.594   3.307 -0.1280 -0.2547  0.1429
 9912W        W25043  12.455   8.021  15.296 -0.0482  0.0280 -0.3645
 9913W        W25044   3.397  13.679  14.941  0.1175  0.1978  0.0103
 9914W        W25045  17.587   6.784  15.303 -0.0133  0.1353  0.2562
 9915W        W25046  13.149   7.564   3.621  0.0224  0.1371 -0.2039
 9916W        W25047  15.546   9.782   3.781 -0.0218 -0.0687 -0.2426
 9917W        W25048  16.706  12.112   4.821  0.1850  0.3463 -0.0424
 9918W        W25049   2.528   3.678   3.132 -0.0651 -0.0261 -0.2911
 9919W        W25050   1.677   9.471  14.760  0.2148 -0.0887 -0.1311
 9920W        W25051  17.428   8.451  11.439 -0.1714  0.1127  0.2110
 9921W        W25052   4.691   9.071   0.220  0.1136 -0.0127  0.0983
 9922W        W25053   2.336  11.665   3.923 -0.2960 -0.2854  0.1366
 9923W        W25054  14.357  18.325  15.949 -0.1979 -0.1990  0.1263
 9924W        W25055   6.035   3.616   3.213 -0.0216  0.0073  0.0372
 9925W        W25056   0.365   5.373   5.653  0.0409  0.0597  0.0710
 9926W        W25057   7.588   5.694   2.182 -0.1410 -0.2051  0.2055
 9927W        W25058   5.396  17.384  15.131  0.1500 -0.1974  0.0845
 9928W        W25059   0.130  12.048  10.904  0.1300 -0.1797 -0.1850
 9929W        W25060   1.364   5.499   2.642  0.1186 -0.2081  0.0020
 9930W        W25061   3.825  15.102  11.247 -0.3858  0.1802  0.1140
 9931W        W25062   8.596  18.302   1.050  0.1693 -0.2391  0.0034
 9932W        W25063   3.479   4.355   4.609  0.1184  0.0145 -0.3391
 9933W        W25064   1.034   7.530  13.870  0.0503  0.0621  0.1961
 9934W        W25065  11.298  18.172  12.684  0.0427  0.1568 -0.0989
 9935W        W25066  17.318  15.899   2.116  0.0223 -0.6409  0.3994
 9936W        W25067   4.645   2.470  10.939 -0.3784  0.2364  0.5444
 9937W        W25068   2.499  11.571   2.222  0.0518  0.2426  0.1838
 9938W        W25069  15.276   9.586  13.807 -0.0055 -0.1109  0.1087
 9939W        W25070  11.239   4.589   5.558  0.1262 -0.0808  0.1038
 9940W        W25071   5.407   3.720  12.559 -0.1872 -0.1271 -0.0711
 9941W        W25072   0.982  15.645  16.021  0.0768 -0.1603  0.0705
 9942W        W25073   2.571   7.727   0.929  0.0875 -0.0269 -0.2343
 9943W        W25074  16.983   8.886   4.681  0.2241  0.5851  0.0054
 9944W        W25075   1.194   6.408   2.024  0.0946 -0.3068  0.1974
 9945W        W25076   6.105  10.742  13.643  0.2717 -0.0104  0.1489
 9946W        W25077  14.106  17.569  14.260 -0.0823 -0.0564 -0.2107
 9947W        W25078  11.277   3.505   0.052  0.0465 -0.4340 -0.0490
 9948W        W25079  15.823  16.048  14.121  0.0669 -0.5238 -0.4114
 9949W        W25080   9.963   6.924   2.095  0.0659 -0.0149 -0.0440
 9950W        W25081   3.241  18.132  14.576  0.3347 -0.0267  0.3057
 9951W        W25082   6.606  17.616   5.146 -0.0277 -0.4308  0.0901
 9952W        W25083  15.219  10.370   3.274 -0.0482 -0.3486  0.0794
 9953W        W25084   1.357   7.761   5.075 -0.0236 -0.1326 -0.2808
 9954W        W25085  15.463  16.435   1.149 -0.0924 -0.0052 -0.6328
 9955W        W25086   7.305   6.261   4.321  0.0745 -0.0636 -0.0799
 9956W        W25087  10.730   0.167  15.318 -0.1207 -0.3021 -0.0807
 9957W        W25088   2.661  11.037  13.577 -0.2819  0.0473  0.0343
 9958W        W25089   1.555   4.802  14.467  0.1048 -0.0503 -0.0180
 9959W        W25090  17.447  17.289   3.268 -0.2806  0.0587 -0.1201
 9960W        W25091  11.180   9.720   3.835  0.1888 -0.0001  0.1179
 9961W        W25092   0.306   6.541   0.255  0.0343  0.0948  0.1558
 9962W        W25093   2.806   5.125  12.084  0.1579  0.1481  0.1479
 9963W        W25094   9.112   4.003   3.120  0.1223  0.0360  0.2955
 9964W        W25095   8.297  11.887   6.132  0.0279 -0.0809 -0.2215
 9965W        W25096  18.460  13.888   0.188  0.1580  0.2385 -0.0069
 9966W        W25097   3.633   6.195  13.324  0.1464 -0.2196  0.0898
 9967W        W25098  12.451  15.431  10.753 -0.0317  0.2131 -0.1463
 9968W        W25099  15.848   9.550  14.058  0.5634  0.0205  0.2109
 9969W        W25100   9.509  14.136  15.711  0.0163 -0.1852 -0.1496
 9970W        W25101   9.380  17.958  12.469 -0.1680  0.1864 -0.3224
 9971W        W25102   2.914   1.530  14.489 -0.0595 -0.1474  0.0309
 9972W        W25103  17.261   1.753   3.197 -0.2749  0.4688 -0.0257
 9973W        W25104  13.253   8.493  15.008  0.1157 -0.0649 -0.0898
 9974W        W25105   8.167   4.109  13.268 -0.1743  0.0497  0.1315
 9975W        W25106   0.182   2.497   5.537  0.1254  0.0497 -0.2157
 9976W        W25107   8.880   6.434  13.391 -0.1182 -0.1763  0.4391
 9977W        W25108   7.082   0.450  11.432  0.1271 -0.0480 -0.0750
 9978W        W25109   6.826   1.526   3.536 -0.1990 -0.4381 -0.1979
 9979W        W25110   9.222   0.748  11.968  0.2796  0.1296  0.1237
 9980W        W25111   7.673   1.521   1.955 -0.2122 -0.1408 -0.1589
 9981W        W25112   7.426  16.716   3.714  0.1952 -0.2438  0.4563
 9982W        W25113   9.079   2.699  13.986  0.0956  0.4783  0.0015
 9983W        W25114   0.597  11.341  10.347  0.0437  0.1004 -0.1794
 9984W        W25115  15.711   0.603  13.326  0.1978 -0.0744 -0.1374
 9985W        W25116   9.928   9.645  14.395 -0.5138 -0.3229 -0.3550
 9986W        W25117   1.914   1.728  11.283  0.1800 -0.1674  0.0824
 9987W        W25118  11.697   5.517  14.677  0.1367 -0.3342  0.1036
 9988W        W25119  16.136  17.894   4.636 -0.2370 -0.1311  0.1269
 9989W        W25120   0.137   3.467   4.845 -0.0252  0.2027 -0.0488
 9990W        W25121   0.966  15.501  14.502 -0.2269 -0.1275 -0.1382
 9991W        W25122  10.747  10.851   2.770  0.0863  0.0862  0.1283
 9992W        W25123  12.144  11.480   2.373  0.0836  0.2100  0.3621
 9993W        W25124  13.566   9.751   1.030 -0.5319 -0.3159  0.0059
 9994W        W25125   7.344  13.925   3.213  0.1258  0.2455 -0.0009
 9995W        W25126  18.083   7.147  12.237 -0.1632  0.0349 -0.1855
 9996W        W25127   1.546   1.397  16.059  0.0763  0.2347  0.1481
 9997W        W25128   2.033   0.452  14.427  0.2543  0.0150 -0.0475
 9998W        W25129  13.451  11.430   1.572  0.0368 -0.1649 -0.1781
 9999W        W25130  13.028   7.928   0.158  0.0092  0.0870  0.2295
10000W        W25131  13.510   7.939   3.542 -0.1849  0.3089 -0.1431
10001W        W25132   2.437   8.364   2.345 -0.0677  0.2285  0.1595
10002W        W25133  16.221   4.378   4.015  0.2884 -0.1383 -0.1396
10003W        W25134   0.807   5.647   1.488  0.0482  0.0834 -0.0572
10004W        W25135  12.943  18.314   1.019  0.0972  0.2350 -0.2666
10005W        W25136  18.389   9.409  15.072  0.1501 -0.4424  0.0539
10006W        W25137   8.174   4.641  12.949 -0.1705  0.1586  0.1268
10007W        W25138  17.186   2.752  12.097 -0.3901 -0.0346  0.1771
10008W        W25139   1.378  17.830   5.483 -0.0525  0.0458  0.2633
10009W        W25140  12.927   7.788   2.777  0.3332  0.3144  0.0849
10010W        W25141   9.201   4.642   4.062 -0.1401 -0.0008 -0.1950
10011W        W25142  16.368  15.337  11.323 -0.4177 -0.1852  0.0359
10012W        W25143   7.930   1.527  12.989 -0.4050  0.0144  0.0171
10013W        W25144   6.961   9.319  12.570 -0.2778 -0.0127 -0.0981
10014W        W25145   1.875  15.240   4.974 -0.0274 -0.0077  0.0959
10015W        W25146   6.296   8.249   4.491  0.0843  0.0897 -0.0815
10016W        W25147   0.501  13.896   1.605 -0.0242 -0.1900 -0.1975
10017W        W25148  14.330   2.019   3.952 -0.0146  0.1468 -0.0282
10018W        W25149   7.994  16.192  12.592  0.0272 -0.0586  0.0667
10019W        W25150   9.785  16.927   2.835 -0.2121  0.1935 -0.0020
10020W        W25151   3.434   0.054   4.220 -0.0278 -0.1431 -0.2370
10021W        W25152   2.198   7.682   3.761  0.0742  0.4017  0.1100
10022W        W25153  13.338  10.009  14.206 -0.3463 -0.0309 -0.1252
10023W        W25154   2.489   0.149  13.158 -0.3652  0.0188 -0.1534
10024W        W25155   7.762  10.421  12.583  0.2008 -0.1137  0.0723
10025W        W25156  13.069  13.947   2.619 -0.0567  0.2755 -0.0946
10026W        W25157   0.135  11.708   0.170 -0.1393  0.0918  0.0508
10027W        W25158  16.507  12.595  15.114  0.1303  0.0502 -0.3481
10028W        W25159  16.793  14.151  15.995 -0.2402  0.2133  0.0949
10029W        W25160  18.123   5.509  11.802  0.1189 -0.1038 -0.0851
10030W        W25161   9.640  12.212   2.128 -0.2007 -0.3705 -0.1056
10031W        W25162  15.368  16.677   1.646  0.3995  0.2069 -0.2437
10032W        W25163   2.175   4.718  13.773  0.0386  0.0322  0.0417
10033W        W25164  11.112  10.987   1.134 -0.3227 -0.1602 -0.1105
10034W        W25165   3.546   6.536  14.493  0.1885  0.2865  0.0974
10035W        W25166   9.503   5.539  15.138  0.1574 -0.1188 -0.1081
10036W        W25167  15.714   1.060  12.867 -0.3538  0.1555  0.2339
10037W        W25168   6.724  17.116   3.129 -0.1825  0.1129  0.0821
10038W        W25169   8.179  10.129  13.368  0.0197 -0.0698  0.1550
10039W        W25170  16.040   9.290   3.003  0.3131  0.1933 -0.4933
10040W        W25171   7.229   7.103  15.654  0.0980 -0.0288 -0.0197
10041W        W25172   1.112  14.082   1.851 -0.1508 -0.1080 -0.1626
10042W        W25173  11.658  13.973   1.556  0.1424  0.2608  0.0667
10043W        W25174   1.281  11.670   3.727 -0.0441  0.0574  0.1910
10044W        W25175   5.917  12.379   5.342  0.1393 -0.0867 -0.2502
10045W        W25176  15.318   1.985   0.950 -0.1161  0.1867  0.0674
10046W        W25177   8.617   5.756   4.106 -0.1304 -0.0211  0.0189
10047W        W25178  15.339  10.729   3.020  0.0749 -0.0323 -0.1955
10048W        W25179   9.018  16.226   3.559  0.1474 -0.0995  0.0523
10049W        W25180  15.417  12.985  10.135  0.0113 -0.1388  0.0261
10050W        W25181   5.064  16.382  15.641  0.3255  0.1137  0.1074
10051W        W25182  11.341   3.615  11.642  0.2047  0.1611  0.2866
10052W        W25183   6.133   9.055   5.296 -0.1273 -0.0498 -0.1959
10053W        W25184  18.202   9.676   5.232  0.1922  0.1505 -0.0576
10054W        W25185  10.146   7.374  14.926  0.2074  0.1549 -0.2107
10055W        W25186  13.320  16.082   2.526  0.2192 -0.1076 -0.1753
10056W        W25187  13.319   6.606   0.137  0.1069  0.3438  0.1664
10057W        W25188   2.645   0.235   2.685 -0.1660  0.2237  0.2164
10058W        W25189   4.599  14.950  12.025  0.2876 -0.0355  0.1300
10059W        W25190   5.730   3.154   0.621  0.0975  0.0021 -0.0797
10060W        W25191   9.718   9.127  12.137  0.1500 -0.0668 -0.2450
10061W        W25192   3.761   3.772  14.181 -0.1013 -0.1546  0.2810
10062W        W25193   4.780   6.292  11.957  0.1468  0.0852 -0.0724
10063W        W25194   5.287   1.265   1.962  0.3117  0.4271 -0.0249
10064W        W25195   7.505  11.916  14.468  0.1202  0.3366 -0.3653
10065W        W25196   7.308   8.305  13.754 -0.0627  0.0548 -0.0208
10066W        W25197  13.744  15.480   1.972  0.1696  0.0710  0.0078
10067W        W25198   4.930   4.453   3.046 -0.2561  0.2962 -0.2762
10068W        W25199  13.735   0.822  15.579 -0.4131 -0.3449  0.2937
10069W        W25200  11.694   6.339   4.274 -0.2010 -0.0832 -0.0841
10070W        W25201   5.751   4.041   0.207 -0.1726 -0.1460 -0.0459
10071W        W25202  13.179   9.463   3.341  0.2050  0.0598  0.1425
10072W        W25203   9.562   8.839   2.430  0.2674  0.0163  0.0129
10073W        W25204  17.601   5.093   2.989 -0.1644 -0.0589  0.0759
10074W        W25205  12.014  12.809  15.087 -0.1161 -0.0502  0.0436
10075W        W25206  11.445  17.812  10.834 -0.0409  0.1685 -0.0770
10076W        W25207   5.860  18.219   3.461 -0.2023  0.0070 -0.1760
10077W        W25208  16.792  13.089   4.572  0.1052  0.1750  0.0181
10078W        W25209   9.645   2.422  12.453  0.0365 -0.1794  0.0165
10079W        W25210  13.596  12.286  13.348  0.2722  0.0494  0.1165
10080W        W25211   3.970   1.711  13.776 -0.4494 -0.0616  0.1604
10081W        W25212   5.235   9.254   4.253 -0.1115  0.0837 -0.0268
10082W        W25213   1.240   8.092  13.318  0.0923 -0.2830 -0.1459
10083W        W25214   7.706   1.814  14.690 -0.0753  0.0954 -0.0909
10084W        W25215  15.124   5.372   5.464  0.4087  0.3167  0.2961
10085W        W25216  11.476   7.518   5.170 -0.0433  0.0456  0.1185
10086W        W25217  10.946   9.961   2.385  0.1250 -0.1556  0.0588
10087W        W25218  15.188  14.729  15.895 -0.1223 -0.0434  0.2780
10088W        W25219  14.124   9.401   4.412 -0.0194 -0.3062  0.1654
10089W        W25220  17.006   9.275   2.777 -0.1149 -0.4321  0.0804
10090W        W25221  18.480   5.176   5.080  0.0205 -0.1887 -0.0236
10091W        W25222   0.071   7.592   5.865  0.1933  0.2302 -0.0385
10092W        W25223  14.003   5.698  14.018  0.0457 -0.4388  0.3601
10093W        W25224  14.126  11.450  12.019 -0.1758  0.0270 -0.2180
10094W        W25225  10.846   3.176   0.816  0.2684  0.1572  0.1138
10095W        W25226   8.921   8.996  12.587 -0.0089 -0.0445  0.1410
10096W        W25227  17.662   6.381   3.638 -0.1250 -0.0616 -0.4013
10097W        W25228   5.553  16.892  15.017  0.3961 -0.0546  0.1497
10098W        W25229   2.755   5.870   3.016  0.1114  0.0294 -0.0261
10099W        W25230   6.824   4.501  13.217 -0.0528 -0.2424 -0.3033
10100W        W25231  18.250   3.756  13.007 -0.0737 -0.0033 -0.0084
10101W        W25232   2.127   8.620   3.288  0.0647  0.3073 -0.0248
10102W        W25233  10.807   0.838  13.630 -0.0791 -0.3670 -0.0539
10103W        W25234  15.827   7.647   5.574 -0.1230 -0.0752  0.0116
10104W        W25235   4.421   8.974  12.917  0.1544  0.3396  0.3631
10105W        W25236   4.625  13.822  12.583 -0.2634  0.1696 -0.0428
10106W        W25237  10.636   3.604   0.710 -0.1080 -0.1661 -0.1478
10107W        W25238   0.045  12.696   2.633 -0.1870 -0.1797 -0.0333
10108W        W25239  12.395   5.692   4.851 -0.2282 -0.0626 -0.0127
10109W        W25240   2.259   0.191  10.529 -0.0882  0.2053  0.0463
10110W        W25241  14.638   1.541  13.273  0.0470 -0.0053 -0.1395
10111W        W25242   5.038  11.101   4.341  0.1397  0.1151 -0.0846
10112W        W25243   7.165  11.347   2.289  0.3701  0.0821 -0.1653
10113W        W25244  11.793   0.153  12.210  0.1392 -0.0663 -0.2328
10114W        W25245   6.033   6.510  13.869 -0.1936  0.1750  0.2493
10115W        W25246   3.412   1.582   4.166  0.1149 -0.1296 -0.2672
10116W        W25247   6.032  16.938   0.327  0.0556 -0.2246  0.4913
10117W        W25248   9.293   7.589  15.030  0.4148 -0.1018 -0.2185
10118W        W25249  12.694   6.344   3.732  0.3466  0.0343  0.4123
10119W        W25250   5.273  15.572  15.644 -0.0255  0.1635 -0.1789
10120W        W25251  14.314   5.145   5.158  0.2184 -0.0450 -0.1275
10121W        W25252  10.125  15.240  12.723 -0.2529 -0.0394  0.1739
10122W        W25253   5.884   8.071   5.493  0.0942  0.1457  0.0045
10123W        W25254  15.260   6.299   0.862 -0.0014 -0.1845  0.1943
10124W        W25255   6.839  15.858   3.957  0.3911 -0.3081 -0.1648
10125W        W25256   2.517   9.892   1.977 -0.1397 -0.0426  0.0252
10126W        W25257   2.836   3.226  11.522 -0.0237  0.1527  0.0669
10127W        W25258  10.510   5.339  12.875 -0.3288  0.0046  0.2806
10128W        W25259   9.902  11.038  15.238  0.2359  0.1436 -0.0458
10129W        W25260   2.301  14.699   0.423 -0.0455 -0.2662  0.4547
10130W        W25261   7.907   3.263   1.247 -0.1964 -0.1333  0.2703
10131W        W25262   5.415   0.699  14.097 -0.0068 -0.1659 -0.1245
10132W        W25263   8.328   3.833   3.288 -0.0697 -0.1627  0.1773
10133W        W25264   8.497   3.226  13.777  0.2285 -0.1513  0.0021
10134W        W25265   4.257  17.369  15.603 -0.1838 -0.0352  0.1098
10135W        W25266   9.417   7.864   2.823 -0.1886  0.2256  0.0669
10136W        W25267   1.145  14.723   2.654  0.0218 -0.0486 -0.0361
10137W        W25268  11.934  16.497   1.496  0.0089  0.0233  0.2136
10138W        W25269  11.587   0.509  10.844  0.2133  0.2228  0.2257
10139W        W25270   8.014  14.465   0.851  0.2997  0.0965 -0.0185
10140W        W25271  17.452  18.358   5.180  0.2901  0.1991  0.0132
10141W        W25272   7.799   3.073   1.950 -0.0568  0.2215 -0.0575
10142W        W25273  11.809   1.569   5.627  0.3886  0.0173 -0.2582
10143W        W25274  10.184  15.414  14.590 -0.2607 -0.0946 -0.1145
10144W        W25275   9.821  11.221   0.791  0.2850  0.0755 -0.2484
10145W        W25276   0.117   0.140  11.082  0.0490  0.0374  0.0788
10146W        W25277  13.685  10.269   3.555 -0.1105 -0.1509 -0.2641
10147W        W25278  11.734   4.734   3.998  0.0485 -0.0646  0.3355
10148W        W25279  13.611  13.537   1.869  0.1462  0.4171  0.1695
10149W        W25280   6.790  15.092   1.123  0.0790  0.0152  0.1885
10150W        W25281   3.026   1.145  11.822 -0.0943  0.4338  0.1598
10151W        W25282   8.724  11.467  14.668  0.1583 -0.3461  0.2602
10152W        W25283   0.719   2.919  12.223 -0.1018  0.3966 -0.1535
10153W        W25284  11.700   8.868  12.665 -0.0067  0.1148  0.1433
10154W        W25285  17.845  14.493   9.921  0.0847 -0.0530 -0.1854
10155W        W25286  13.743   2.339  11.346  0.2028 -0.3511 -0.1164
10156W        W25287  10.035   4.718   3.189  0.2271 -0.0665 -0.0636
10157W        W25288   1.763   7.390   1.180 -0.0974 -0.0516  0.6049
10158W        W25289   7.043  14.847  13.152 -0.1517  0.1821  0.4610
10159W        W25290   5.176   2.460  15.556 -0.4039  0.0632  0.2624
10160W        W25291   2.661  17.506   0.573 -0.4090 -0.4359 -0.0466
10161W        W25292   2.346   3.665  14.426  0.1818  0.0221  0.2385
10162W        W25293   2.487  10.589  13.020  0.0802  0.1114  0.0940
10163W        W25294  12.031  18.232   0.825 -0.2302  0.0916  0.2731
10164W        W25295  10.914  14.479  15.399 -0.1054 -0.1185  0.1781
10165W        W25296  15.893  11.807   5.176 -0.0439  0.0537  0.0658
10166W        W25297  14.415  16.523   2.098 -0.1606  0.0402 -0.0212
10167W        W25298  15.826   0.046  12.710 -0.0095 -0.2067 -0.2094
10168W        W25299  17.901  15.496  12.644 -0.0059  0.4920  0.1302
10169W        W25300  16.675   4.630   1.933  0.2072 -0.1180 -0.2510
10170W        W25301   3.222   2.689  13.716 -0.2480 -0.0113 -0.0215
10171W        W25302  16.072   7.605   0.249  0.1264  0.0414  0.0655
10172W        W25303  16.584   5.576   5.795 -0.6548  0.0428  0.1250
10173W        W25304  15.259  15.350  15.034 -0.0175  0.0741  0.0603
10174W        W25305  16.800   2.890   4.973  0.1912  0.2101 -0.0070
10175W        W25306   8.756  13.525   1.805 -0.1495  0.0064  0.4897
10176W        W25307   9.453  13.381   3.511 -0.2977  0.0386 -0.1777
10177W        W25308  14.349   9.971  14.737 -0.0683 -0.0033  0.0699
10178W        W25309  15.866   3.399   0.807 -0.0864 -0.2466 -0.0432
10179W        W25310  17.017   8.514  14.638 -0.0708  0.0204 -0.2158
10180W        W25311  16.115   9.165  13.755 -0.0737  0.0501  0.0974
10181W        W25312  17.377  10.905  14.273 -0.1719  0.0480  0.3635
10182W        W25313   1.971  10.837   0.657  0.0770 -0.0753  0.1033
10183W        W25314  11.221  11.647   3.078 -0.1777  0.2074  0.2509
10184W        W25315   6.715  13.114   3.646  0.0346  0.0188 -0.3994
10185W        W25316   2.574   5.323   2.123 -0.2569 -0.2188 -0.1126
10186W        W25317   6.916   8.234  12.270 -0.3408 -0.0441 -0.1533
10187W        W25318   6.654   6.529   0.147 -0.0353 -0.0408 -0.0037
10188W        W25319   4.507   1.596  14.637 -0.0729  0.1901  0.0892
10189W        W25320   0.953  14.977  12.817 -0.0624 -0.3002 -0.2043
10190W        W25321  13.578   4.655  14.860 -0.0466  0.0431  0.0346
10191W        W25322   5.033   5.982  15.013 -0.0529  0.1082  0.1645
10192W        W25323  10.564   2.898   2.308  0.2119 -0.2366  0.2033
10193W        W25324   0.424  16.647   0.351 -0.0611  0.1332 -0.4454
10194W        W25325  11.838  11.418  15.439 -0.1148 -0.0411 -0.1942
10195W        W25326   3.841  17.277  14.709  0.1487 -0.3321  0.0263
10196W        W25327   1.859   2.008  12.575 -0.2177  0.1992 -0.1337
10197W        W25328   5.490   2.576  13.812 -0.1991 -0.0146 -0.3894
10198W        W25329  13.460  10.231  10.686 -0.1106  0.0006 -0.0436
10199W        W25330   0.741   2.911   0.044 -0.0982 -0.3897 -0.0804
10200W        W25331  13.372   4.194  12.771  0.1220 -0.2755 -0.0366
10201W        W25332  18.417  14.297  14.904  0.3049 -0.0463 -0.1059
10202W        W25333  17.012   0.959  12.655 -0.0612 -0.1875 -0.0101
10203W        W25334  18.169  12.780   1.564 -0.0609 -0.0206 -0.0839
10204W        W25335  18.486   7.538   4.949 -0.1776 -0.0033  0.2155
10205W        W25336  12.659   2.241   2.811 -0.0545  0.1413  0.1525
10206W        W25337   9.587  11.837  14.152 -0.1529 -0.0116  0.1216
10207W        W25338   4.739  13.409  15.189 -0.0591 -0.0412  0.0551
10208W        W25339  10.580  10.745  11.954  0.1455  0.4011  0.0692
10209W        W25340  18.213  15.026  15.464 -0.2557  0.1966 -0.3674
10210W        W25341  15.697  12.658  14.639  0.0090  0.0528 -0.1009
10211W        W25342   0.613  13.213  11.410  0.0801  0.1319 -0.0222
10212W        W25343  16.380   0.907  13.952 -0.2285 -0.1569  0.0768
10213W        W25344  13.468  16.827  11.224 -0.0739  0.2004 -0.0319
10214W        W25345  14.053  12.559   3.497 -0.0903 -0.0873  0.0101
10215W        W25346  16.152   1.740  15.987 -0.0855  0.0932 -0.1211
10216W        W25347   0.521   4.208  12.289  0.0603  0.1149 -0.1361
10217W        W25348   6.300  11.072   5.053 -0.0298 -0.0320 -0.5541
10218W        W25349  17.629  13.240   3.659  0.0690 -0.2676 -0.3126
10219W        W25350  17.503   8.939   5.681  0.0599  0.0728  0.1470
10220W        W25351   6.071  13.525   0.576  0.1665 -0.2094 -0.0753
10221W        W25352  17.871  17.967  14.861  0.2320 -0.0946  0.2322
10222W        W25353   6.665  11.836  11.924 -0.0942 -0.1411  0.3280
10223W        W25354  14.330   3.050  13.033  0.2314  0.1648 -0.0370
10224W        W25355  16.465   6.556  11.934  0.1674  0.3769 -0.4307
10225W        W25356  10.358  11.244  10.799  0.1337  0.2486 -0.0823
10226W        W25357   4.554  15.170   2.292  0.2017  0.1305  0.0629
10227W        W25358  15.387   3.701  10.929 -0.2914  0.0718  0.0408
10228W        W25359   6.338  18.183  11.902  0.1683  0.1143  0.1471
10229W        W25360   7.907   9.860   3.738  0.0019 -0.2375  0.3068
10230W        W25361   4.537   8.186   0.578  0.2120  0.3159 -0.0462
10231W        W25362  12.675   4.503   2.407  0.0681  0.2054  0.1736
10232W        W25363   2.317   2.727   2.111 -0.1526  0.1033  0.0679
10233W        W25364  16.346   2.959   2.585 -0.0041 -0.1077 -0.2116
10234W        W25365  14.030  11.895   2.708 -0.0837  0.0278 -0.0130
10235W        W25366   6.754   9.555  12.120  0.0294 -0.0291 -0.0019
10236W        W25367  15.956  10.977   0.914 -0.0672  0.0955 -0.0134
10237W        W25368  18.039   6.622  13.952  0.0329  0.0023  0.0234
10238W        W25369   3.330   8.045  10.564 -0.0664  0.2250  0.4922
10239W        W25370  17.544  17.860   1.217 -0.2632  0.1674 -0.3250
10240W        W25371   9.835  10.610   1.549  0.3027 -0.0921  0.2090
10241W        W25372   5.240   1.219  15.614 -0.0789 -0.0919 -0.1780
10242W        W25373  17.782  18.123  14.266  0.0295 -0.0216 -0.1000
10243W        W25374   0.178  18.442   1.916 -0.1903 -0.0274  0.2955
10244W        W25375   9.017   9.136   3.332 -0.0083 -0.4432  0.2943
10245W        W25376   8.792  10.447   1.429  0.0840 -0.1175  0.0637
10246W        W25377   2.622   4.813   2.284 -0.0933 -0.0216 -0.1958
10247W        W25378  17.107  16.407   2.321 -0.0662  0.0390 -0.2837
10248W        W25379   8.377   6.022   1.705 -0.0345 -0.0609  0.2560
10249W        W25380   7.487   2.137   5.404  0.1534 -0.3362  0.0045
10250W        W25381  10.460  15.924  12.633  0.0100 -0.0550  0.0838
10251W        W25382  13.107  11.973   3.749 -0.0718 -0.2916  0.2496
10252W        W25383   6.479  16.216  12.325  0.0037 -0.0499  0.2216
10253W        W25384   6.982   0.249   0.133  0.1806  0.0863 -0.0951
10254W        W25385   6.145   0.269  13.081 -0.1068 -0.3259  0.1984
10255W        W25386  14.360   5.915  11.972 -0.1617 -0.3767  0.2429
10256W        W25387  16.927  11.400   2.323  0.1915 -0.1459 -0.0338
10257W        W25388  10.302  10.668  15.488 -0.1106 -0.3320 -0.3187
10258W        W25389  12.149  15.344  14.173  0.0764  0.0646  0.1619
10259W        W25390   0.562   0.735  12.175  0.1399 -0.2126 -0.2817
10260W        W25391  10.011   0.159   0.537  0.1296 -0.2315 -0.2547
10261W        W25392   9.387  14.846  13.144  0.0802 -0.1223 -0.0792
10262W        W25393   5.556   6.430   0.030 -0.0938  0.0670  0.4397
10263W        W25394   6.898   3.103   4.030  0.0421  0.0014  0.2177
10264W        W25395   9.747  16.775   0.236 -0.0327 -0.1898 -0.1110
10265W        W25396   2.583   8.591   0.570  0.2012 -0.2374  0.2821
10266W        W25397  15.105  16.302   1.481  0.0921 -0.3506 -0.0540
10267W        W25398  11.010   9.806  12.892 -0.0680  0.2519 -0.1995
10268W        W25399   7.472   5.881   6.207 -0.1374  0.2777 -0.1122
10269W        W25400   6.920  17.625   4.374 -0.1730  0.1264  0.0940
10270W        W25401   9.892  14.500   0.952  0.0011  0.1877 -0.0872
10271W        W25402  15.767   1.991  14.216 -0.0637 -0.1737 -0.2809
10272W        W25403   4.662   0.764  11.757 -0.0605  0.1219 -0.0477
10273W        W25404  16.825  14.259  15.243 -0.0345 -0.0370 -0.1923
10274W        W25405   3.448   2.500  10.699  0.0490 -0.2414 -0.0138
10275W        W25406   1.321   3.673   0.805  0.2126 -0.2323 -0.2676
10276W        W25407  13.001   0.762   1.168 -0.1750 -0.2892 -0.4981
10277W        W25408  16.408  13.430   3.620 -0.2065 -0.0195  0.0565
10278W        W25409  17.751  17.905   4.866  0.2941  0.2388 -0.2245
10279W        W25410   4.734   7.513  15.527 -0.1718 -0.2312  0.0900
10280W        W25411   3.359   4.385   2.020 -0.0071  0.0788  0.2167
10281W        W25412   3.408   9.898  14.486  0.0174  0.0122  0.0251
10282W        W25413  11.878   4.583   1.292  0.1909 -0.1364  0.0437
10283W        W25414  11.126   6.551   4.868  0.0691 -0.2547 -0.0111
10284W        W25415   5.493   6.082  15.212 -0.0737 -0.4296 -0.2138
10285W        W25416  13.324  15.602  13.579 -0.1488 -0.2220 -0.0948
10286W        W25417   7.406  16.828  13.663  0.1575  0.1503  0.1349
10287W        W25418   9.068  16.527  11.771  0.0409  0.2131 -0.0736
10288W        W25419   0.512   9.246   1.284  0.1358  0.0717 -0.2476
10289W        W25420  17.550   0.465  10.812  0.4477 -0.0997  0.0381
10290W        W25421  10.645  12.982   3.036  0.0524  0.1201 -0.1154
10291W        W25422   5.709   5.962   0.278 -0.0321 -0.2023 -0.3260
10292W        W25423   8.287   9.133   3.615 -0.0692  0.0173  0.1497
10293W        W25424   5.759  13.716  10.230  0.0829 -0.1521  0.0808
10294W        W25425  11.564  10.180   0.138  0.0572 -0.1446  0.0780
10295W        W25426   8.869   7.064  14.437 -0.1332  0.0013 -0.1512
10296W        W25427   5.163   2.179   2.614 -0.2621 -0.0293 -0.1842
10297W        W25428  17.968  14.693  15.826 -0.2110  0.0354 -0.2001
10298W        W25429   8.865   7.933   3.896  0.1392 -0.0651  0.0389
10299W        W25430  15.877   7.867   1.347  0.1163 -0.0948  0.0657
10300W        W25431   4.490  10.731   4.017 -0.2146  0.1028 -0.0870
10301W        W25432  11.792   3.153  12.592  0.0176  0.1924 -0.1510
10302W        W25433   2.561   7.529  14.820 -0.0082  0.2536 -0.0546
10303W        W25434   9.117   5.592  13.997  0.3063  0.0895  0.0010
10304W        W25435   6.913   6.711  11.435  0.0458  0.0216  0.2111
10305W        W25436   2.089  13.743   3.585 -0.1547  0.3105 -0.1172
10306W        W25437  10.317   3.065  13.183 -0.0472 -0.1446 -0.0220
10307W        W25438   8.025   2.170  15.437  0.3281 -0.0613 -0.1805
10308W        W25439   8.918   3.412   6.346 -0.2797 -0.0664  0.2072
10309W        W25440   5.902  15.574  11.759  0.0866  0.3184  0.1323
10310W        W25441  12.745   5.266  12.179 -0.1363  0.1332  0.1029
10311W        W25442   0.832  17.782  12.074  0.0291 -0.0541 -0.0247
10312W        W25443   9.368  14.015  11.893  0.0739  0.1093  0.2050
10313W        W25444   0.645   1.117  12.933 -0.0398  0.0439 -0.1868
10314W        W25445   0.870   7.003   5.211  0.1709  0.0107 -0.1228
10315W        W25446   9.161   9.592   2.394  0.0981  0.2911  0.0413
10316W        W25447   7.213   9.704  12.246 -0.2510 -0.1802 -0.1564
10317W        W25448   9.656   5.943   2.950 -0.2141 -0.1002  0.1009
10318W        W25449  13.052  17.834   1.515  0.3028 -0.1793 -0.1201
10319W        W25450   4.527  17.674  15.890  0.1684  0.0639  0.1024
10320W        W25451  16.039  10.859  11.986 -0.3646  0.1423 -0.0814
10321W        W25452   0.877  15.827   4.598 -0.1937  0.0077  0.0055
10322W        W25453   4.693  18.142   2.319  0.3775  0.2275  0.0613
10323W        W25454   1.444  13.607   0.986  0.1062 -0.0628 -0.5269
10324W        W25455  11.549  18.071  11.448  0.1786 -0.0068  0.0878
10325W        W25456  12.337   7.257   0.914 -0.0184  0.2035 -0.2544
10326W        W25457   8.790   4.227  15.717  0.1479  0.0497  0.0737
10327W        W25458   2.846   5.568  12.311 -0.0492  0.2597  0.2737
10328W        W25459   7.955  14.494  10.858  0.3587 -0.1741 -0.0066
10329W        W25460   7.698  11.224   0.764 -0.1850  0.3288 -0.0496
10330W        W25461  10.329   7.784  14.154 -0.0784  0.1057  0.0182
10331W        W25462  12.985   2.980  14.853  0.2783  0.0605  0.1782
10332W        W25463  16.466   0.302   4.364  0.0248  0.1975  0.0146
10333W        W25464   6.244   1.716   2.785 -0.1168  0.1952 -0.1198
10334W        W25465  10.637   7.540  13.398 -0.0699 -0.2933 -0.0020
10335W        W25466   5.599  12.488  11.511 -0.1078 -0.1053  0.0786
10336W        W25467  17.539   8.579   4.183  0.1387 -0.2917  0.0410
10337W        W25468  10.948   4.011  11.677  0.1024  0.0491 -0.0034
10338W        W25469   8.153   1.416  10.226 -0.0098 -0.1184  0.4197
10339W        W25470  18.320   8.430  11.388 -0.2876  0.0187  0.1974
10340W        W25471   7.088   7.818   3.934 -0.0398  0.2433  0.1881
10341W        W25472   0.326   7.541  13.333 -0.0546 -0.0709  0.2107
10342W        W25473   2.323   9.383   1.984  0.1653 -0.2724  0.2999
10343W        W25474   4.950  13.819  15.000  0.3369 -0.0932 -0.1977
10344W        W25475   8.780   2.573   3.103  0.5592 -0.3862  0.3167
10345W        W25476  12.015  16.038  13.783 -0.2262  0.1498  0.1086
10346W        W25477  13.498  18.398   3.547  0.0862  0.0256  0.0706
10347W        W25478  13.512   5.830  11.814  0.0258 -0.1725 -0.4545
10348W        W25479   1.883   3.060  13.701  0.0693  0.1672  0.0758
10349W        W25480  11.032   9.831   4.753 -0.0181  0.0620 -0.0042
10350W        W25481  12.759  13.563  11.066 -0.1020 -0.1127 -0.1796
10351W        W25482  14.623   0.941   5.246  0.0159  0.3458  0.1280
10352W        W25483   8.917   2.829   0.652  0.0644 -0.0975  0.2524
10353W        W25484  15.573   0.833  11.968  0.0578 -0.2757 -0.0652
10354W        W25485   9.143   3.754  12.032  0.2139 -0.3243 -0.0392
10355W        W25486  14.048  10.923  12.554  0.1282 -0.1932 -0.3209
10356W        W25487   3.430   9.404  13.599 -0.1766 -0.0491  0.1064
10357W        W25488  17.888  11.634   5.295 -0.2864 -0.0843 -0.0363
10358W        W25489   5.656   2.840   4.002  0.0684  0.0790  0.0615
10359W        W25490  10.920   1.582  12.708 -0.1056  0.2975  0.1382
10360W        W25491   7.564   1.328   2.622 -0.0513 -0.0398  0.3075
10361W        W25492   3.718  16.828  15.928  0.0711  0.2533  0.1001
10362W        W25493  12.332   5.641  12.291 -0.1964 -0.2391  0.2604
10363W        W25494   3.268  11.463  11.589 -0.0016 -0.1229 -0.0706
10364W        W25495   8.108   6.195  15.000 -0.1804  0.0791 -0.0560
10365W        W25496   1.544   4.663   4.890 -0.0139 -0.0084 -0.0780
10366W        W25497   4.984   7.030  12.750  0.0220  0.1151 -0.0592
10367W        W25498   2.953  10.015   3.309 -0.1842 -0.0765  0.0021
10368W        W25499   2.888  10.685  15.838  0.0049  0.0419  0.0671
10369W        W25500  14.432   5.183   2.122 -0.0288  0.0533  0.1691
10370W        W25501   2.234  11.211   3.430  0.2556  0.0073 -0.0368
10371W        W25502  12.332  14.447  13.955 -0.1483  0.1891 -0.0414
10372W        W25503  17.079  17.740  14.442 -0.4781 -0.2960  0.3813
10373W        W25504  12.648  11.830   1.625 -0.0696 -0.0714  0.0635
10374W        W25505   5.598   0.569  10.452 -0.0757 -0.0304 -0.0519
10375W        W25506  18.361   0.239  10.413  0.0157 -0.2273  0.2341
10376W        W25507   7.605  13.899   2.647  0.0110 -0.2859 -0.1541
10377W        W25508   7.265   6.940   5.077 -0.0893 -0.1751  0.0043
10378W        W25509  12.168   5.737   0.105 -0.0604 -0.1200  0.2006
10379W        W25510   7.406  16.853   0.132  0.0473 -0.1104  0.0392
10380W        W25511   7.491  10.547  13.968 -0.0902 -0.3055 -0.0527
10381W        W25512   1.112   5.048   0.930  0.3962  0.2298  0.2381
10382W        W25513  16.556   4.680   4.154 -0.3349 -0.1169 -0.1264
10383W        W25514  16.424  14.025  13.231 -0.2982  0.0674  0.0073
10384W        W25515   5.876   2.543   3.558 -0.2517 -0.1862 -0.0837
10385W        W25516   8.111   9.966   2.898  0.1285 -0.0228 -0.0718
10386W        W25517   7.500   1.403  10.608 -0.3527  0.2780 -0.1404
10387W        W25518  11.058  10.720  11.243  0.3663  0.1363  0.5104
10388W        W25519  10.501  17.561  11.677 -0.1738  0.0115  0.2014
10389W        W25520   5.475  12.158   0.894  0.0266  0.3612 -0.1899
10390W        W25521  12.381  13.587   3.740  0.1483  0.4931  0.1904
10391W        W25522   7.554   1.490  15.088 -0.0061  0.1530 -0.1058
10392W        W25523  10.347  16.973  14.701 -0.2294  0.3572 -0.0902
10393W        W25524   3.986  13.304   4.033 -0.0592 -0.1753  0.2506
10394W        W25525   1.410   9.370  14.259  0.4382 -0.2813 -0.3282
10395W        W25526   8.500  11.747  13.109 -0.0776 -0.2339  0.1047
10396W        W25527   2.449   2.922   0.692 -0.2020  0.3448  0.0942
10397W        W25528  16.265   0.729   6.112 -0.1141 -0.1979  0.1756
10398W        W25529   1.590   6.499  14.660 -0.2015  0.0080  0.0721
10399W        W25530   5.669   6.646  13.536  0.4323 -0.0814 -0.0144
10400W        W25531  15.616   2.856   1.954  0.1056 -0.1094 -0.0683
10401W        W25532   6.385  17.804   2.945 -0.5686  0.1897  0.0913
10402W        W25533  11.246  10.016   0.586  0.1060  0.1278 -0.1027
10403W        W25534  18.372   6.730  13.547  0.1535 -0.0112 -0.1440
10404W        W25535  17.046  13.992   0.338  0.0746  0.0224 -0.3385
10405W        W25536   5.390  18.182   2.216  0.1225 -0.1198 -0.0210
10406W        W25537  16.734  16.892   3.071  0.0423 -0.1731 -0.3038
10407W        W25538  10.717  16.663   1.258 -0.1413  0.2134  0.1769
10408W        W25539  18.122  12.086   5.259  0.1027  0.0555  0.1083
10409W        W25540  12.399   7.575   1.723 -0.0724  0.3952 -0.2332
10410W        W25541  14.442   6.597  13.038 -0.0421 -0.2098  0.0303
10411W        W25542   4.371   8.567  13.403 -0.0156  0.0830 -0.0533
10412W        W25543  12.948   0.006   3.187 -0.2601  0.0016  0.1717
10413W        W25544  16.907   9.245   6.406  0.2498 -0.1143  0.1920
10414W        W25545   0.064   4.925  12.980  0.2879 -0.0687  0.0188
10415W        W25546  10.385  18.182   0.880 -0.0382 -0.1762  0.3595
10416W        W25547   2.325   7.507   1.930 -0.2200 -0.1823 -0.2565
10417W        W25548   7.802   7.267  12.409 -0.1271  0.0222  0.0159
10418W        W25549   5.672   7.711   1.980 -0.0383 -0.3224  0.2673
10419W        W25550  17.578   5.404   3.432  0.1126  0.0635 -0.0203
10420W        W25551   7.739   1.960   4.048 -0.2755  0.0729 -0.0859
10421W        W25552  17.678  17.778   0.243  0.2919  0.3282  0.0510
10422W        W25553  16.559   9.592   0.076  0.2489  0.2486 -0.2394
10423W        W25554   6.990  14.862   1.582  0.2701  0.1353  0.0898
10424W        W25555  15.547   6.833   2.072  0.1097  0.1897  0.0213
10425W        W25556  15.599   9.572  15.908  0.0043  0.3519 -0.3618
10426W        W25557   9.060  12.939   2.276  0.0282 -0.1258  0.1006
10427W        W25558  17.135   5.312  11.347 -0.1675 -0.0265  0.1352
10428W        W25559   7.831  17.626   4.597 -0.2628  0.1424  0.0307
10429W        W25560  12.447   7.322  11.818  0.0143 -0.2717 -0.2740
10430W        W25561   7.346   1.658   2.369 -0.0425  0.1755 -0.2407
10431W        W25562   7.979   8.010   3.439  0.2742 -0.3685  0.1337
10432W        W25563   5.578   8.957   4.635  0.1481  0.0034  0.0679
10433W        W25564  14.576  14.260   0.761 -0.0710 -0.1249  0.2410
10434W        W25565   7.482   8.429   0.208 -0.1765  0.1888  0.0621
10435W        W25566   4.598   6.738  15.826 -0.2061 -0.2744 -0.1378
10436W        W25567  15.523   7.907  14.722  0.0920  0.0132 -0.0478
10437W        W25568   5.283   4.570   0.157  0.0378 -0.2710  0.0356
10438W        W25569   3.658   5.623  12.005 -0.2049  0.0060 -0.1908
10439W        W25570   8.183   0.799  12.653  0.1296 -0.0973 -0.1591
10440W        W25571   8.241   7.251  12.543  0.1252  0.2126  0.0337
10441W        W25572  12.315   3.452   1.101  0.0137 -0.0663 -0.1485
10442W        W25573  16.532   6.069  11.270  0.0829 -0.0597 -0.0201
10443W        W25574   6.476   6.780   4.762 -0.1120  0.1090  0.2754
10444W        W25575   8.650  11.990  15.109  0.2656  0.1442 -0.0536
10445W        W25576   1.947  18.009  14.694 -0.0191  0.2476  0.0881
10446W        W25577  14.207  13.082  11.436  0.0154  0.1011  0.1743
10447W        W25578  16.696   7.990   5.392 -0.1197 -0.0584  0.1476
10448W        W25579   1.509  14.314  14.197 -0.0676  0.3589  0.2688
10449W        W25580  12.946  15.330  11.675 -0.0685 -0.1208 -0.0617
10450W        W25581   2.301   4.641   3.476 -0.4030  0.1345 -0.3759
10451W        W25582   0.908   6.134  14.255 -0.1714 -0.4172  0.0419
10452W        W25583  11.701  13.515  12.338  0.1049  0.1271 -0.0693
10453W        W25584   2.612  18.374  13.596  0.0341 -0.0280 -0.1570
10454W        W25585   6.520   1.798   3.828  0.2812 -0.0522 -0.0661
10455W        W25586  13.493   9.034  12.062 -0.1360 -0.3549  0.0077
10456W        W25587   0.687   9.019   3.495  0.1322  0.1470 -0.1201
10457W        W25588  13.430   9.316   2.929  0.2471 -0.3259 -0.3263
10458W        W25589  13.230  17.126  11.582 -0.0075  0.3212  0.2361
10459W        W25590  16.913   8.360   1.290  0.0550  0.2048  0.2488
10460W        W25591   4.027  10.433  15.725 -0.2150 -0.1418  0.2996
10461W        W25592  17.049  10.696   4.668 -0.0846 -0.3684  0.1448
10462W        W25593  12.804  11.349  14.444  0.0161 -0.1066  0.0788
10463W        W25594  14.319   3.857   1.237 -0.0106  0.1645  0.1080
10464W        W25595   2.168   7.709  15.244 -0.0911 -0.2262  0.3011
10465W        W25596  12.781   7.107   6.665  0.1499 -0.1902  0.0188
10466W        W25597   8.611  18.264  15.612  0.4465  0.0431 -0.3855
10467W        W25598  14.537   2.883  14.640  0.2111 -0.0522 -0.0512
10468W        W25599  12.611   2.873  13.845  0.2517 -0.1339  0.0822
10469W        W25600  11.835  16.568  14.439  0.2279  0.0765  0.1522
10470W        W25601   3.993   3.572  15.487 -0.0620  0.0864  0.2279
10471W        W25602   2.642  17.682  12.229 -0.0566  0.1208 -0.0291
10472W        W25603  11.401   6.364  13.172 -0.2121  0.0537 -0.1033
10473W        W25604  12.547   5.037   2.354  0.0361  0.1057 -0.1974
10474W        W25605   9.873  14.870   2.400  0.2674 -0.2308  0.4378
10475W        W25606  11.880   6.129  13.158  0.2993 -0.0424  0.0020
10476W        W25607   1.468   7.266   0.379 -0.0255  0.1441 -0.4039
10477W        W25608  10.252   4.476   2.261  0.3791  0.1602 -0.1124
10478W        W25609   3.679   0.571  15.670  0.1692 -0.0619 -0.1505
10479W        W25610  16.610   2.208   0.426 -0.0869  0.3394  0.0768
10480W        W25611   8.611   7.825   4.289 -0.0643 -0.0590 -0.1582
10481W        W25612   9.128  11.272  11.131  0.0886 -0.0320 -0.1251
10482W        W25613  14.567   4.856   1.776 -0.0996  0.0015 -0.0453
10483W        W25614  17.529   7.027   2.319 -0.0910 -0.2495  0.1777
10484W        W25615   3.069  17.351   0.315  0.0528 -0.2130 -0.2794
10485W        W25616   5.021   6.696  11.184 -0.1246  0.2012  0.1626
10486W        W25617   9.159  10.796   2.370 -0.2423  0.1774 -0.0511
10487W        W25618   2.861   7.252   3.650  0.0721 -0.3412 -0.0302
10488W        W25619   9.018  11.514   1.564  0.1534 -0.2086  0.1346
10489W        W25620  16.894   7.902   0.509 -0.0352 -0.1601 -0.0339
10490W        W25621  17.511  15.172  12.668 -0.0314 -0.1911  0.0175
10491W        W25622  17.731   4.644  11.647  0.2123 -0.5372 -0.2178
10492W        W25623   2.162  11.478  12.602 -0.1145  0.1119 -0.4671
10493W        W25624  18.213   1.614   4.286 -0.1940 -0.3547 -0.2141
10494W        W25625   8.850   4.273   1.034 -0.2475 -0.1721 -0.0722
10495W        W25626   3.262  14.750   1.560 -0.2579  0.1830 -0.0099
10496W        W25627  15.460  16.872  11.626  0.0494  0.1028  0.1813
10497W        W25628  11.194  16.590  15.484  0.1174  0.2261 -0.1640
10498W        W25629   0.719   6.540   2.271  0.0520 -0.0235  0.4343
10499W        W25630   1.685  15.692   4.414 -0.0254  0.2836 -0.3374
10500W        W25631   8.930   2.676  11.954  0.0016 -0.1353  0.1403
10501W        W25632   6.451  13.481  11.648  0.1365 -0.0957 -0.4336
10502W        W25633  18.389   2.528  12.343  0.1607 -0.1620 -0.3564
10503W        W25634  11.056   3.199   2.998 -0.2104  0.1640  0.3191
10504W        W25635   8.357  13.783   1.599 -0.2570 -0.1254  0.2052
10505W        W25636   8.047  18.030   2.438  0.1554  0.0811  0.1596
10506W        W25637  16.815  14.538   4.654 -0.0985  0.0847 -0.0233
10507W        W25638   9.973   0.339   3.369  0.0143 -0.1679 -0.1747
10508W        W25639   1.277  14.340  11.870  0.1055 -0.0084 -0.0458
10509W        W25640  16.539   1.412  12.473  0.3634  0.1797 -0.0406
10510W        W25641   2.158   5.871  15.695 -0.1239  0.4976 -0.0117
10511W        W25642   7.832  16.146  11.180 -0.0276  0.2583  0.2326
10512W        W25643  16.792  17.178  13.608 -0.0476  0.1327 -0.0664
10513W        W25644   6.302   2.512   0.984 -0.1673  0.0075 -0.2243
10514W        W25645   1.651   3.259   1.027 -0.0414 -0.2319 -0.0974
10515W        W25646   4.486  12.188   1.874  0.0599 -0.1891  0.1930
10516W        W25647  15.396   1.928  15.399 -0.1123 -0.0343 -0.1000
10517W        W25648  10.008   8.681   1.696  0.2338 -0.3550 -0.1607
10518W        W25649  15.546   5.621  14.073  0.0126  0.0505  0.1030
10519W        W25650   8.990   5.498   3.206  0.0970  0.2763 -0.0527
10520W        W25651  10.699  13.818  15.282 -0.0319 -0.0853 -0.1309
10521W        W25652   3.732   1.070  10.600 -0.2793  0.0735  0.3487
10522W        W25653   5.517  14.675   5.269  0.0773  0.2759  0.0712
10523W        W25654   9.685  17.792   4.403  0.0189 -0.1299 -0.0575
10524W        W25655  11.827   2.836  10.898  0.0445 -0.2939 -0.0706
10525W        W25656  15.937   5.243   4.468  0.2946 -0.0756 -0.0027
10526W        W25657  14.601   1.292   3.876 -0.1937  0.1750 -0.1365
10527W        W25658   1.490  16.301  13.543 -0.2796  0.4469  0.6664
10528W        W25659   3.692  17.108   9.524  0.1005 -0.1207  0.1330
10529W        W25660  17.791   9.807   1.618  0.0355 -0.1400 -0.2534
10530W        W25661  13.523   1.968  15.230 -0.0848  0.0247 -0.1126
10531W        W25662   3.010  12.131  10.000 -0.4608 -0.1549  0.0564
10532W        W25663   0.036  13.854   5.418 -0.2699 -0.1187 -0.1139
10533W        W25664   0.199  12.992   2.993 -0.0825 -0.2705 -0.0782
10534W        W25665  12.735   6.062   6.503 -0.0689 -0.3040  0.2360
10535W        W25666   7.300  12.344  11.803 -0.1742 -0.0785  0.1612
10536W        W25667   8.658   8.875  14.805 -0.0971 -0.0619 -0.2901
10537W        W25668  16.315   5.035   0.287  0.0423 -0.3925 -0.1551
10538W        W25669  14.058   0.222  11.573  0.1515  0.0258 -0.1530
10539W        W25670   0.059   8.143   1.519  0.1996  0.1377  0.1716
10540W        W25671   0.750   9.281   0.875  0.0471  0.1754  0.0420
10541W        W25672   7.098   4.314  12.148  0.1216 -0.5029  0.0818
10542W        W25673  11.616  16.261  15.200 -0.4327 -0.1196 -0.0349
10543W        W25674   3.716  12.257   3.923 -0.2232  0.1311 -0.0531
10544W        W25675  17.684   3.920   3.182  0.4767 -0.2592  0.0283
10545W        W25676   0.148   2.401   0.653  0.1404 -0.1598 -0.0666
10546W        W25677  17.021  13.994   2.970 -0.1674 -0.2213 -0.2349
10547W        W25678   9.771   6.174   3.820 -0.1465 -0.1945  0.0045
10548W        W25679   9.815  12.427  15.452 -0.2988  0.0129 -0.2993
10549W        W25680  10.897   5.384   3.709  0.3266 -0.1777 -0.1914
10550W        W25681   0.918   4.584  12.425  0.3239  0.0195  0.0956
10551W        W25682   6.674   9.846   5.201 -0.1147 -0.2368 -0.1074
10552W        W25683  13.234   0.735   2.742 -0.1563  0.1428  0.3211
10553W        W25684  17.328   9.467   4.053 -0.0345  0.0654 -0.0194
10554W        W25685   0.121  17.786  11.107 -0.0811  0.3235  0.2202
10555W        W25686   9.637   5.124  11.954  0.0641 -0.0936 -0.1933
10556W        W25687  11.136  16.151  15.207 -0.0784  0.0396  0.0091
10557W        W25688   2.872   9.837  11.360 -0.0084  0.0661 -0.5510
10558W        W25689  18.032   6.922  15.465  0.0100 -0.0057 -0.1970
10559W        W25690   1.175  18.199  12.176 -0.1109  0.1539 -0.1760
10560W        W25691  14.402   2.483   5.183 -0.0687 -0.0556  0.1276
10561W        W25692   9.801   7.387  12.673 -0.0537  0.1793 -0.0937
10562W        W25693  16.358   7.107  12.704  0.2197  0.2571 -0.1368
10563W        W25694   4.598  10.408  15.150 -0.1971 -0.2765  0.3242
10564W        W25695   7.046   3.946  11.413 -0.1901  0.0835  0.0952
10565W        W25696   6.527   0.472  10.986 -0.0285 -0.1369 -0.1805
10566W        W25697   8.812   6.188   0.074  0.0107  0.1674  0.3128
10567W        W25698   7.481   0.898  15.997  0.1776  0.0796  0.1903
10568W        W25699   0.419   0.826   2.213 -0.0227  0.0464  0.2837
10569W        W25700   9.208   9.795   2.894  0.0144 -0.1980 -0.0832
10570W        W25701   9.551   4.157   0.002  0.1272 -0.2709 -0.2175
10571W        W25702  14.991   9.614   5.098  0.1003  0.1852  0.1255
10572W        W25703  13.213  17.453   5.232 -0.1873  0.4383 -0.1942
10573W        W25704   0.316   6.686   4.016  0.0689  0.0004 -0.0872
10574W        W25705   2.975  16.526   1.553 -0.1006 -0.0129 -0.1113
10575W        W25706   4.138   7.129   3.620 -0.1586  0.0514  0.2785
10576W        W25707   5.011   1.368   2.565  0.0019  0.1087 -0.0539
10577W        W25708   9.229  13.957  12.606 -0.1584  0.4044 -0.2740
10578W        W25709   8.978   2.672  15.530 -0.2290  0.1220 -0.0444
10579W        W25710  16.052  13.956  11.931  0.0747 -0.0833  0.0235
10580W        W25711  13.395  15.366   0.590  0.2558 -0.2700  0.2115
10581W        W25712  11.784   6.415  14.752 -0.1013 -0.0006  0.3014
10582W        W25713  13.696   1.502  11.093 -0.2727 -0.1677  0.1035
10583W        W25714   0.646   5.864   3.928  0.1378  0.0702  0.2345
10584W        W25715   9.874   7.030  11.918 -0.2966 -0.1077  0.3347
10585W        W25716   1.979   5.676   0.043  0.1655 -0.3877 -0.1207
10586W        W25717   2.524  11.766  11.953 -0.0975  0.0341 -0.0600
10587W        W25718   5.822  11.622  12.958  0.0826  0.1350  0.1351
10588W        W25719   3.477  11.516  12.346  0.1443  0.3020  0.6000
10589W        W25720  15.864  18.101   5.018  0.0183 -0.1709  0.1364
10590W        W25721  12.017  13.095   3.608  0.0542 -0.2086  0.0115
10591W        W25722   6.249   8.847   5.789 -0.1800  0.0836  0.3944
10592W        W25723  14.580   3.436   5.103  0.0956 -0.0870  0.2167
10593W        W25724  11.409   9.854   2.112  0.1512  0.1471  0.0129
10594W        W25725  12.013   4.460  13.037  0.2270 -0.1189  0.0358
10595W        W25726  16.174   0.329   9.222  0.1032 -0.2000 -0.0343
10596W        W25727  15.336   9.818  10.337  0.0852 -0.0451 -0.0003
10597W        W25728   9.372  11.266   0.458  0.2311 -0.3494  0.0202
10598W        W25729   0.215   2.908  11.826 -0.1466 -0.2951 -0.3012
10599W        W25730   5.570  14.210  13.318  0.0688 -0.0604 -0.0083
10600W        W25731  17.670   1.159   1.125  0.1877 -0.0355 -0.0947
10601W        W25732   6.419   9.211   4.178 -0.1203 -0.2527 -0.0564
10602W        W25733   2.312   3.960   0.367 -0.0427  0.0860 -0.2555
10603W        W25734  17.307   3.243  13.685 -0.0385 -0.1526 -0.3398
10604W        W25735  12.570   5.030   4.258 -0.4771  0.0320 -0.4030
10605W        W25736   1.477   3.796  10.656 -0.4434  0.0746 -0.1969
10606W        W25737   5.861  13.610  14.732  0.5511 -0.3095  0.4206
10607W        W25738  17.982   3.822   3.925  0.1786 -0.0995  0.0249
10608W        W25739   4.959   0.550   5.116  0.1911 -0.2922 -0.1101
10609W        W25740  13.667   4.877   0.530 -0.1476 -0.1193 -0.1219
10610W        W25741  16.890   9.358   0.715 -0.0827 -0.2068  0.4781
10611W        W25742  13.960  13.838  14.407  0.1820 -0.0393  0.1962
10612W        W25743   8.418   0.279   1.207  0.0448  0.2534 -0.4301
10613W        W25744   0.633  15.736  15.316  0.1658 -0.1134 -0.0485
10614W        W25745   7.066  16.990  11.851 -0.1458 -0.0655  0.2658
10615W        W25746   6.232  14.077   5.295  0.1115 -0.0193 -0.0348
10616W        W25747   5.584   9.314  14.386  0.2333  0.1367 -0.2333
10617W        W25748  15.742  15.934   1.997  0.0984  0.0652  0.0539
10618W        W25749   9.835   5.641  14.689  0.3419  0.0002 -0.4340
10619W        W25750  13.634   5.097  15.117  0.1224  0.3407 -0.3753
10620W        W25751   2.658  16.172   3.529  0.0534  0.4171  0.1510
10621W        W25752   0.583   2.559  13.143 -0.0268 -0.0722  0.3181
10622W        W25753  18.249   5.318   0.514  0.1189 -0.1892 -0.0466
10623W        W25754   3.942  16.711   2.922  0.1990 -0.2890 -0.0151
10624W        W25755   0.714  11.113  15.947  0.0943 -0.0412  0.1802
10625W        W25756   2.473  12.723  11.764  0.2323 -0.5256 -0.1570
10626W        W25757   2.040  11.895  12.886 -0.0729 -0.1654 -0.1915
10627W        W25758   2.321   4.542   1.251  0.2439 -0.0582 -0.1364
10628W        W25759   9.291  16.365  12.178  0.1822 -0.3104 -0.2130
10629W        W25760   5.788   2.077  14.230 -0.0256 -0.0996  0.1629
10630W        W25761  16.110   0.108  11.583 -0.0772  0.2064 -0.1924
10631W        W25762  15.564   4.165  12.805  0.3152 -0.0839  0.1722
10632W        W25763  11.777   7.374  14.466  0.1815  0.0601  0.0080
10633W        W25764   4.731  18.164  15.334 -0.1438  0.0371  0.2657
10634W        W25765   8.105  10.099  13.917 -0.2387 -0.0156  0.1619
10635W        W25766  16.724  10.948   5.415 -0.1924 -0.1678  0.1568
10636W        W25767   6.533  12.544  13.725 -0.2591  0.1789  0.1844
10637W        W25768   8.372   6.914   5.684 -0.2085 -0.0134  0.3500
10638W        W25769   6.012   7.046   4.778 -0.1233  0.0140 -0.0401
10639W        W25770   3.117  17.892   5.343  0.1150  0.2659 -0.2336
10640W        W25771   3.460   1.508  10.467  0.2605 -0.1622  0.1548
10641W        W25772  10.930  16.339  11.501 -0.1617 -0.3223  0.0596
10642W        W25773   3.736   6.394  15.430 -0.3543 -0.3277 -0.0474
10643W        W25774  13.743  14.816  11.896  0.1061 -0.1396  0.1084
10644W        W25775   6.593   8.969  14.790 -0.0564 -0.0713  0.0746
10645W        W25776   4.119   0.521   0.287  0.1789  0.3203 -0.0258
10646W        W25777   4.383  12.508  15.519  0.0279 -0.3925 -0.3087
10647W        W25778   8.244  13.422  13.342 -0.4666 -0.3484  0.0279
10648W        W25779   9.627   0.916   0.125 -0.3382  0.2450 -0.2145
10649W        W25780  12.453  11.872   5.648 -0.1561 -0.0756 -0.1719
10650W        W25781   4.172   7.853   0.591  0.0364  0.2465 -0.1841
10651W        W25782   4.999   4.135   0.171 -0.2975 -0.2435 -0.2300
10652W        W25783   7.502   6.682  12.749 -0.5012 -0.0517 -0.0128
10653W        W25784   3.352   7.996   0.525  0.1762  0.1017  0.1484
10654W        W25785  15.808   2.024  10.102 -0.0960  0.1128  0.2979
10655W        W25786   6.848  13.750  14.956 -0.0653  0.1478  0.2402
10656W        W25787  13.466   1.811   0.903  0.0853 -0.1679 -0.0495
10657W        W25788  15.420   7.468  12.807 -0.0282  0.1771  0.1511
10658W        W25789  12.045   6.467   1.185 -0.2623 -0.0496  0.1716
10659W        W25790   6.146   6.982  15.449 -0.0714  0.0411  0.2934
10660W        W25791  10.338   9.447   5.045 -0.0788 -0.1214 -0.0047
10661W        W25792  11.940  16.105  10.839  0.3281  0.0643 -0.0928
10662W        W25793  11.968   9.836   0.287 -0.0244  0.1111  0.0272
10663W        W25794  12.939   5.530  11.238  0.3010  0.1983  0.0983
10664W        W25795   0.888  14.195  11.470  0.2303  0.1128 -0.2333
10665W        W25796  18.260   5.282  12.718 -0.1663 -0.0196  0.1837
10666W        W25797   7.307  14.332  12.057  0.1296  0.0184 -0.2067
10667W        W25798   6.936  10.707  13.693 -0.3266  0.1574 -0.0966
10668W        W25799  17.560   8.663   0.405  0.4474 -0.2564  0.1833
10669W        W25800   7.265  17.889  14.498 -0.3496  0.0675  0.1765
10670W        W25801   4.697   5.306   3.669 -0.2403 -0.1655  0.2069
10671W        W25802  16.069   4.852  13.968 -0.2430 -0.0465 -0.1709
10672W        W25803  10.343  18.258   5.318 -0.2428  0.1726  0.3396
10673W        W25804   6.880  15.431  14.009 -0.0198  0.2981  0.4728
10674W        W25805   3.247   2.002  14.369  0.2519 -0.0591 -0.3042
10675W        W25806   3.612  15.309  10.834 -0.5161 -0.0362  0.0871
10676W        W25807  11.697   1.948  15.870  0.0435  0.0263 -0.0566
10677W        W25808  12.679  13.531   0.830  0.3120  0.0575 -0.0913
10678W        W25809  13.113   8.897  15.487  0.0894 -0.0025  0.0425
10679W        W25810   9.860  13.461  13.540 -0.0686 -0.1193  0.0782
10680W        W25811  15.288  17.495   2.441  0.0260  0.1504  0.2321
10681W        W25812   3.114  17.157   4.620 -0.1116 -0.2195 -0.2744
10682W        W25813   4.607   7.990  15.085 -0.0058  0.2616 -0.4719
10683W        W25814  17.371   2.080   1.130  0.0940  0.0832  0.1826
10684W        W25815  18.133  11.835   2.660 -0.0295 -0.1682  0.1296
10685W        W25816   4.145  14.627   5.103  0.0563 -0.3900 -0.0095
10686W        W25817   8.527  13.780   1.020 -0.0953 -0.2520 -0.1639
10687W        W25818   9.087  13.589  14.996 -0.4140 -0.3572  0.1729
10688W        W25819   7.576   5.188   3.020 -0.1550  0.0293  0.3525
10689W        W25820  11.100   1.824  14.284  0.2800 -0.0964  0.0786
10690W        W25821  12.773   1.921  11.086 -0.2533  0.0599 -0.1544
10691W        W25822  13.315   2.256  13.557 -0.1051  0.1222  0.2179
10692W        W25823   6.695   2.109  11.384 -0.0448 -0.0331 -0.1159
10693W        W25824   6.275  11.792   2.879  0.0159 -0.3281 -0.0802
10694W        W25825  12.087  15.139   1.562 -0.0771 -0.0765 -0.0154
10695W        W25826   0.809   0.977   1.862 -0.0192  0.0683 -0.0625
10696W        W25827   7.524   3.947  15.379  0.0972  0.3383  0.2343
10697W        W25828   8.953  18.257  14.757 -0.0178 -0.3168 -0.0794
10698W        W25829  17.112  11.563  13.795 -0.1594 -0.4156 -0.1614
10699W        W25830   3.021   9.487  11.899 -0.1667  0.2407 -0.0517
10700W        W25831  16.245   1.692   1.129  0.1810  0.1744 -0.1138
10701W        W25832   6.576  17.705  10.286  0.2532 -0.0167 -0.0374
10702W        W25833   2.758  15.349   2.624 -0.3989  0.2004 -0.2171
10703W        W25834   7.497   8.793   2.856 -0.0216 -0.0332 -0.0761
10704W        W25835   5.784  10.118  14.127  0.1454 -0.0582 -0.1177
10705W        W25836   6.996  10.406   2.459 -0.0031 -0.2303  0.4729
10706W        W25837  15.613   9.111  11.217  0.1239  0.2329 -0.0975
10707W        W25838  15.481  17.659  16.079  0.1903 -0.0827 -0.1549
10708W        W25839  17.290   8.047   5.264 -0.1207  0.0477  0.1055
10709W        W25840   3.448   6.749   0.740  0.0092 -0.0177 -0.0256
10710W        W25841  18.068  17.124  13.115 -0.2745 -0.1333  0.1511
10711W        W25842   5.576  16.040   2.031  0.0057 -0.0588  0.0870
10712W        W25843   9.578  14.949  15.057 -0.2590  0.0134 -0.1258
10713W        W25844  10.421   7.700  14.674 -0.0011 -0.0304 -0.2434
10714W        W25845  11.141   0.671   1.510  0.4037  0.0428  0.0274
10715W        W25846   8.553   7.710   5.417 -0.4031 -0.3199  0.0591
10716W        W25847   6.786  18.240  15.370 -0.0642  0.2152  0.0227
10717W        W25848  14.412  13.737  11.563  0.4351 -0.2877 -0.4271
10718W        W25849   7.372  13.925   0.210 -0.2026  0.2525 -0.2251
10719W        W25850  15.607  12.757   4.989  0.3754  0.1689 -0.2502
10720W        W25851  17.506   8.422  14.673 -0.1879 -0.0013 -0.1520
10721W        W25852  14.053   5.849   6.214 -0.0619 -0.1828  0.1456
10722W        W25853  18.029   3.338  15.535 -0.1490 -0.0963 -0.2532
10723W        W25854   1.144  12.788  12.341 -0.2186  0.3450  0.3683
10724W        W25855   5.195   7.523  15.683  0.0001 -0.3367  0.0822
10725W        W25856   7.215   8.007  11.336  0.0548 -0.1504 -0.1486
10726W        W25857   0.586  15.672  12.824  0.2883  0.2221 -0.0210
10727W        W25858  14.149  16.825  14.427 -0.1504  0.1138 -0.1140
10728W        W25859  10.787   2.448   0.011 -0.0440  0.1653  0.1354
10729W        W25860  12.517  13.517   1.583  0.0544  0.2423 -0.1927
10730W        W25861  11.446   6.710   4.029 -0.0410 -0.1772  0.2151
10731W        W25862   9.954  16.575   1.826 -0.0116  0.1404  0.0769
10732W        W25863  12.809   0.347  14.382 -0.0358 -0.2166  0.1563
10733W        W25864   4.729  16.113   4.455  0.0460  0.1814 -0.2822
10734W        W25865   3.192  15.361  15.673 -0.0022 -0.1343 -0.3670
10735W        W25866  10.843   2.922  12.400 -0.2160  0.3544 -0.3936
10736W        W25867  12.557  15.485   3.788  0.3463 -0.0617 -0.0579
10737W        W25868   7.290   7.236   1.002  0.2500  0.0635  0.0456
10738W        W25869   3.777  14.797   4.748 -0.2344  0.1623 -0.0754
10739W        W25870  14.507   0.660   1.653 -0.4088 -0.1259  0.1486
10740W        W25871   8.202  18.302  11.508 -0.1887 -0.0530  0.3620
10741W        W25872   6.089  13.114  14.868 -0.3384  0.2188 -0.0617
10742W        W25873   6.791   4.168   3.155  0.2566 -0.3577  0.0498
10743W        W25874  10.351  13.001  14.907 -0.0556  0.2436 -0.0236
10744W        W25875   0.502   1.019   4.101  0.0202  0.1448  0.0655
10745W        W25876   3.633  15.016  14.372 -0.1049  0.1404  0.1500
10746W        W25877   3.358  12.731   1.493 -0.0600 -0.1866  0.0213
10747W        W25878   8.760  15.464   1.639  0.2211  0.0747  0.1327
10748W        W25879   2.153   7.502   0.165  0.2672  0.1234 -0.2070
10749W        W25880   7.353   0.587   4.664 -0.0086  0.0247 -0.2992
10750W        W25881   7.435  15.025  15.085 -0.0411  0.0144 -0.2413
10751W        W25882  10.322   9.073  13.850 -0.1692 -0.1173  0.1762
10752W        W25883   6.292  15.303   4.495  0.0922  0.0676 -0.2036
10753W        W25884  11.175   1.968  12.497 -0.1598  0.1896 -0.0087
10754W        W25885   4.676  14.045   0.205  0.2116  0.0567  0.0487
10755W        W25886  11.290   1.971   6.447 -0.3494  0.1533 -0.4106
10756W        W25887   8.175   2.160  14.401  0.0940  0.0663 -0.1975
10757W        W25888   4.340   8.005   2.567  0.0642 -0.1436  0.3342
10758W        W25889   1.862   6.439   3.485 -0.1741  0.1180  0.1178
10759W        W25890  15.382   3.548  14.889 -0.1574 -0.3079 -0.1377
10760W        W25891  11.086   5.265  14.085  0.1550  0.0702 -0.3292
10761W        W25892  11.474   4.435  15.210 -0.1884 -0.3320 -0.0704
10762W        W25893   4.968  17.276  11.548 -0.0501 -0.2311 -0.1431
10763W        W25894   0.144  17.484  12.806 -0.3731 -0.1627  0.0370
10764W        W25895  15.000   9.578   5.602 -0.5687  0.2735  0.2346
10765W        W25896  17.972   7.743   3.841  0.2178  0.1023  0.2155
10766W        W25897   0.582   8.842   0.554 -0.0842 -0.3468 -0.0448
10767W        W25898   3.613   7.639   5.636  0.1864  0.0621  0.1632
10768W        W25899  16.670   3.898   0.954  0.0817 -0.2298 -0.3337
10769W        W25900   4.708  16.052  10.919 -0.1114 -0.1594  0.2119
10770W        W25901  11.579   3.956   3.840  0.1531  0.0528  0.1039
10771W        W25902   8.981  17.280   3.456  0.4006 -0.0246  0.0422
10772W        W25903  13.624  10.290   0.984  0.0018  0.3625 -0.2648
10773W        W25904   3.118  17.508  14.011 -0.0049  0.0711  0.0768
10774W        W25905   2.481  10.132   1.524  0.1442 -0.1177 -0.0876
10775W        W25906   0.155  17.793  14.680  0.2357  0.2242 -0.0097
10776W        W25907   8.972   6.320  11.328  0.0609 -0.0655  0.0742
10777W        W25908  14.651   0.593  10.859 -0.2787 -0.3319 -0.0220
10778W        W25909   1.491  15.633  11.868  0.0390  0.2013 -0.0074
10779W        W25910   4.757   0.695   1.146  0.1443  0.0785  0.1635
10780W        W25911  11.100   9.485   2.347 -0.0100  0.1991  0.1090
10781W        W25912   6.704   3.983   6.074  0.0756 -0.0028  0.0967
10782W        W25913  12.985   9.677  11.784 -0.0154  0.2602 -0.1521
10783W        W25914   6.029   6.282   5.302  0.1368 -0.0728  0.3628
10784W        W25915  10.321   1.634   2.127 -0.1808  0.0576 -0.1149
10785W        W25916  11.371   3.359   5.317  0.2120  0.1199  0.0930
10786W        W25917   0.551   5.453   4.299 -0.0379  0.3826  0.0547
10787W        W25918  17.052  14.656   1.438 -0.0405  0.0884 -0.1260
10788W        W25919   9.629   7.132  14.836  0.1513 -0.0405  0.2743
10789W        W25920  11.057  16.903   3.225 -0.2087  0.0523  0.0702
10790W        W25921   8.987   2.339   0.494  0.1190 -0.0496 -0.1224
10791W        W25922   9.305   9.772  15.984  0.0879 -0.0676  0.1713
10792W        W25923  11.503  15.033   0.052 -0.0545 -0.3610  0.1245
10793W        W25924   4.512   9.879  15.233  0.0773  0.0368  0.0775
10794W        W25925  17.075   4.958   4.174  0.1968  0.0880  0.1158
10795W        W25926   5.152   2.572   2.885  0.1475 -0.2715  0.1484
10796W        W25927  11.968  10.649   2.458 -0.5582  0.0232 -0.0540
10797W        W25928  16.068  17.793  14.686 -0.0655 -0.0014  0.2806
10798W        W25929   9.232  15.360   1.453  0.3497  0.1907  0.0235
10799W        W25930   5.753   4.672  15.093  0.4344 -0.0903  0.2015
10800W        W25931   5.586   2.059   0.856 -0.0051  0.2328  0.0058
10801W        W25932   6.302  14.394  15.418 -0.0162 -0.3044 -0.2207
10802W        W25933   1.914  12.122   4.649 -0.4576  0.2016 -0.0738
10803W        W25934  15.380  11.693   2.945  0.1777 -0.0237 -0.2446
10804W        W25935  10.292   7.348  12.614 -0.1703 -0.2702  0.0289
10805W        W25936   1.662  12.342   0.623 -0.2029  0.2618  0.1902
10806W        W25937   1.368  13.103  11.858  0.0469 -0.1776 -0.4668
10807W        W25938   0.821   4.202  14.549 -0.1334  0.0152  0.0395
10808W        W25939  15.530  16.220   4.310  0.0875  0.1161 -0.1376
10809W        W25940  14.106   7.505  13.241 -0.0856 -0.2457 -0.0301
10810W        W25941  13.994   5.440   1.978 -0.0794 -0.0598  0.0797
10811W        W25942   0.508   3.211   3.941 -0.3826  0.1915  0.1306
10812W        W25943  16.256  12.510  15.589 -0.0710  0.2740  0.1405
10813W        W25944  17.645  17.842   4.068 -0.3243 -0.3348  0.2133
10814W        W25945  17.720   8.902  14.431  0.0179  0.1522 -0.0526
10815W        W25946   0.842  10.275  12.918 -0.0607 -0.0724  0.1083
10816W        W25947   3.901   7.961   2.737  0.1139 -0.0795  0.0274
10817W        W25948   7.677  13.950   4.094  0.3929 -0.1731  0.1876
10818W        W25949  11.236  13.344   0.594  0.0118  0.1373 -0.1467
10819W        W25950   3.907  11.232  15.459  0.0958 -0.0822  0.1653
10820W        W25951   5.362  12.536  16.050 -0.3140 -0.5224  0.0549
10821W        W25952   3.458   4.780  15.050 -0.1771 -0.2361  0.0278
10822W        W25953  16.857  16.061  10.682  0.1843  0.0810 -0.0954
10823W        W25954  15.788  11.844  13.231 -0.1782  0.0648 -0.0286
10824W        W25955   8.126   5.955   1.283 -0.0147  0.1639  0.3201
10825W        W25956  10.070   7.935  11.830 -0.1406  0.0909 -0.4479
10826W        W25957   8.534  10.576  11.932 -0.0168 -0.3966  0.1437
10827W        W25958  15.411   3.221   3.275 -0.0497 -0.4454 -0.1985
10828W        W25959  15.490  16.359  11.295  0.0593 -0.0231 -0.2401
10829W        W25960  17.746  10.075  15.282 -0.1436  0.0045 -0.0871
10830W        W25961  17.661   7.236   2.779 -0.2197  0.0725  0.2744
10831W        W25962  15.282   4.379  15.720  0.0746  0.4280 -0.0157
10832W        W25963   4.299   8.869  15.275 -0.0626 -0.0954 -0.0863
10833W        W25964  12.695   8.774  13.677 -0.1486 -0.3305  0.1265
10834W        W25965   3.559   8.935  10.845  0.0024 -0.0856  0.0364
10835W        W25966   4.737  15.635  14.425 -0.0457 -0.0657 -0.0037
10836W        W25967   1.562  13.177   0.081 -0.2940  0.0179 -0.0557
10837W        W25968   4.584   9.243  13.765 -0.0122 -0.1871 -0.3064
10838W        W25969   3.373  10.353   3.136  0.4695 -0.2749 -0.1349
10839W        W25970  17.361   5.809   4.791 -0.0747 -0.2617  0.2570
10840W        W25971  14.715   4.418   1.863 -0.0686  0.2499 -0.4088
10841W        W25972  10.275  12.211   1.359  0.1574 -0.0656 -0.2150
10842W        W25973  18.350  10.627  15.496  0.0946 -0.1548  0.3795
10843W        W25974  17.944   9.539   0.707  0.1670  0.1206  0.1005
10844W        W25975  11.113  10.107   5.701  0.1097  0.1583 -0.0262
10845W        W25976  17.854   1.844   4.018 -0.0440  0.0801  0.1229
10846W        W25977   0.496   2.818   3.565 -0.0839  0.0732  0.3629
10847W        W25978  18.239   3.950   2.442  0.0724  0.2744  0.1240
10848W        W25979   4.589  17.614   2.582 -0.0425 -0.4273  0.2310
10849W        W25980  10.615   3.607   5.657 -0.1777  0.1680  0.0487
10850W        W25981   7.620  12.901   2.322  0.0614 -0.1620  0.2503
10851W        W25982  13.202  11.631  15.577  0.3182 -0.0280 -0.0296
10852W        W25983  15.252   4.822  13.847  0.2605 -0.3095 -0.1757
10853W        W25984   3.753   7.166   5.183 -0.3173  0.1456  0.2829
10854W        W25985   2.074  14.907   1.079 -0.1585  0.1506  0.1547
10855W        W25986   7.563  16.275   4.916 -0.0119  0.0514 -0.1346
10856W        W25987  13.263   4.860   5.758 -0.0043 -0.1132  0.0272
10857W        W25988   2.278  12.125   1.238 -0.1359 -0.0984  0.1108
10858W        W25989  15.192  14.728   3.712  0.0926 -0.0581 -0.2216
10859W        W25990  11.869  12.027   1.671 -0.0742  0.2717 -0.1844
10860W        W25991   9.881  11.714   1.667  0.2832  0.1885  0.1757
10861W        W25992  11.509   8.908  13.576 -0.0756 -0.2857 -0.0459
10862W        W25993   5.122  17.495   3.042  0.2543  0.0333 -0.0185
10863W        W25994   2.713  17.183  13.597 -0.1228  0.1110  0.0457
10864W        W25995   3.672  16.768  10.447 -0.4634 -0.0311  0.1708
10865W        W25996  17.139  10.374  16.037 -0.0952  0.2153  0.0232
10866W        W25997  14.788   6.327  14.361  0.1763 -0.4013 -0.0425
10867W        W25998   4.153  15.033  15.849 -0.0956  0.1406 -0.1032
10868W        W25999  10.174   4.655   5.247 -0.0698  0.2667  0.0955
10869W        W26000  16.419  12.638   4.790 -0.0109 -0.4367  0.0795
10870W        W26001  16.512  16.570   3.474 -0.1264 -0.0447  0.1644
10871W        W26002   5.716  17.756   1.255 -0.0185 -0.2184 -0.4364
10872W        W26003  14.645   4.058   3.012  0.4035  0.2044 -0.0255
10873W        W26004   9.123   1.410   2.172 -0.0549 -0.1019  0.0128
10874W        W26005   6.296   4.949  14.698 -0.2830  0.0028 -0.2115
10875W        W26006  17.662   5.875   3.360  0.1418  0.3715  0.1981
10876W        W26007  12.965  10.140   6.140  0.0284 -0.1410 -0.0472
10877W        W26008   5.262  12.048  15.108 -0.1819  0.1034 -0.1276
10878W        W26009   2.081  10.051   2.118 -0.0695 -0.0180  0.0351
10879W        W26010  16.358  14.798   1.976  0.3564  0.0457 -0.1795
10880W        W26011  11.976   7.602   1.415  0.0186  0.0746  0.4197
10881W        W26012  10.404   1.769   5.541 -0.1455 -0.1925  0.0497
10882W        W26013   9.885   2.764   5.607 -0.0908  0.1911 -0.2153
10883W        W26014   0.986  11.015  12.541  0.0095  0.2068  0.0401
10884W        W26015   5.729  15.201  12.665 -0.1132  0.0983  0.1003
10885W        W26016   6.791  18.222  14.731 -0.0189  0.1768 -0.3076
10886W        W26017   6.278  15.164   3.566 -0.3131 -0.3539 -0.2401
10887W        W26018   8.061   5.915   3.595  0.3104  0.0101  0.0072
10888W        W26019   2.737  11.417   0.269  0.0920  0.0166  0.0435
10889W        W26020   0.808   3.536   1.591 -0.0001 -0.0474 -0.2418
10890W        W26021   4.746   2.365  15.847  0.2552 -0.0171  0.3246
10891W        W26022  10.224   5.517   2.267 -0.1699  0.0275  0.1124
10892W        W26023  16.924   4.047   4.733  0.2621  0.1078 -0.1810
10893W        W26024   7.716   5.457   4.345  0.0393 -0.2135 -0.3958
10894W        W26025   5.919   8.831  11.266 -0.0219  0.3264 -0.0268
10895W        W26026  17.143   6.222   5.674  0.0386  0.1023 -0.0666
10896W        W26027  17.108  14.237   1.631 -0.0979  0.1087  0.0765
10897W        W26028   5.117   5.610  13.055  0.1581  0.0488  0.2237
10898W        W26029   9.697  17.416   5.649 -0.0790  0.3197  0.0773
10899W        W26030   2.821   3.770   0.232 -0.0129 -0.0815  0.0966
10900W        W26031   8.955   6.781   0.848 -0.1636 -0.0517 -0.3473
10901W        W26032   1.056  13.564  10.661  0.0116  0.2345  0.2430
10902W        W26033   6.339  17.353  13.723 -0.1342  0.2152  0.0406
10903W        W26034  12.043  13.999   0.393  0.1302 -0.1850 -0.0245
10904W        W26035  12.148  13.433  14.253 -0.0343 -0.0323  0.1324
10905W        W26036  18.355  11.184   5.253 -0.1258 -0.0237 -0.0371
10906W        W26037  10.640   3.404   3.224 -0.0423  0.0155 -0.0608
10907W        W26038  10.968   0.358  11.448 -0.2192 -0.0856 -0.2990
10908W        W26039  12.726  13.928   3.971  0.1336 -0.1789  0.1951
10909W        W26040   7.787   4.952  13.787 -0.1432 -0.2720  0.0208
10910W        W26041  18.373  10.654  13.670 -0.2753  0.2995 -0.1326
10911W        W26042   0.736   2.756   3.158  0.2834 -0.0675  0.0550
10912W        W26043  18.489   8.079   0.119 -0.1292  0.2630 -0.0974
10913W        W26044  15.288   5.982   2.575 -0.0357  0.1602  0.0254
10914W        W26045   5.954   9.337   3.257 -0.0919  0.0499  0.0477
10915W        W26046  13.627  18.254   0.533 -0.1624 -0.1535 -0.0433
10916W        W26047  16.434  14.153   4.710 -0.0571 -0.1698  0.1646
10917W        W26048  10.188  10.791  12.633  0.2187  0.1616 -0.0644
10918W        W26049  16.824   3.029   0.490  0.1894  0.1074 -0.1199
10919W        W26050   6.786   2.012  12.660 -0.1664  0.2502 -0.2064
10920W        W26051  13.483   2.984  14.884  0.2332 -0.1715 -0.0130
10921W        W26052   4.250  12.477   4.560  0.1383  0.0350 -0.1746
10922W        W26053   2.297   2.246   4.044  0.1188 -0.1087 -0.2021
10923W        W26054  11.612  14.920   2.115  0.1618  0.1131 -0.1345
10924W        W26055   7.653   4.963  14.468 -0.0654 -0.1088  0.1017
10925W        W26056   0.271   5.576   1.342  0.0555 -0.1371 -0.1453
10926W        W26057  16.416  16.505  13.073  0.1067  0.2965 -0.2208
10927W        W26058   1.668   3.543   2.343 -0.0963  0.0240  0.0366
10928W        W26059   7.921   2.539  14.207  0.0262 -0.1721 -0.2169
10929W        W26060  13.573  17.517   2.509  0.1288  0.0469  0.1159
10930W        W26061   8.572   1.458   0.912  0.5656 -0.2584  0.0802
10931W        W26062   9.474  10.747  15.091  0.0738  0.0794  0.1193
10932W        W26063   0.134   6.733   0.680 -0.0100  0.1120  0.0546
10933W        W26064   5.454   1.240   3.086  0.0081  0.0544 -0.1194
10934W        W26065   8.244  17.601  14.516  0.2781 -0.0674 -0.0223
10935W        W26066  15.302  17.553  15.255 -0.0154 -0.1569 -0.0623
10936W        W26067   5.381  10.174   6.470  0.4169  0.2440  0.1413
10937W        W26068  14.406   2.177  15.833  0.1382  0.1226  0.1878
10938W        W26069  17.395  14.858   3.055 -0.1748 -0.1967 -0.0626
10939W        W26070  10.792   5.662  13.301 -0.3957  0.1991  0.0190
10940W        W26071   8.685   4.036   0.551 -0.2231  0.0886 -0.3444
10941W        W26072   7.452   6.779   3.631 -0.1684 -0.0208 -0.2990
10942W        W26073  13.173  12.022   0.978 -0.1060 -0.0685  0.2145
10943W        W26074   1.411   1.770  11.755 -0.1823 -0.1460 -0.0876
10944W        W26075   2.754  14.206   2.174  0.0047  0.3717 -0.2871
10945W        W26076   8.234   1.052   5.048 -0.0354  0.2769  0.0584
10946W        W26077   1.584  14.790  14.036  0.6221  0.3086 -0.0605
10947W        W26078   0.598   1.664   3.189  0.0340  0.1223 -0.0358
10948W        W26079   3.495   7.172  16.071 -0.1371  0.0476 -0.1539
10949W        W26080  12.515   1.262   4.323 -0.3032 -0.1067 -0.3183
10950W        W26081  14.769  15.029  15.684 -0.0552  0.2885 -0.2356
10951W        W26082   9.426   2.553   5.705  0.0749 -0.0208 -0.1196
10952W        W26083   3.388   1.498  14.598  0.0412 -0.2169  0.0310
10953W        W26084   8.747   5.130   1.357  0.1878  0.1235  0.2078
10954W        W26085   4.607  17.019   3.580 -0.0471  0.2866  0.1387
10955W        W26086  18.037   8.254  14.585  0.1318  0.2346  0.0795
10956W        W26087   6.899  15.079   2.483  0.1449 -0.2266  0.1721
10957W        W26088   7.735  16.639   0.884 -0.0234 -0.1074  0.0350
10958W        W26089  15.318  10.085   2.527 -0.1089  0.3686  0.1385
10959W        W26090   0.103   3.011  12.351  0.1206  0.1068 -0.1358
10960W        W26091  10.325   6.328   4.186  0.3382 -0.0248 -0.2070
10961W        W26092  16.838   0.380   4.866  0.0573  0.3269 -0.0072
10962W        W26093  15.714  13.286  15.594 -0.3180  0.1167 -0.0864
10963W        W26094   3.416  12.324   9.817  0.0392  0.5146  0.2922
10964W        W26095  16.394   8.045   1.896 -0.5578  0.2270 -0.0499
10965W        W26096   1.519  10.357   1.390 -0.0146  0.1658 -0.1601
10966W        W26097  16.557   6.233  14.339 -0.2945  0.2528 -0.1984
10967W        W26098   6.163   1.122  12.862  0.2701 -0.1968  0.0056
10968W        W26099   8.412   3.115  12.682 -0.1037 -0.0152 -0.0034
10969W        W26100  14.325  16.985  13.947  0.0702  0.2878 -0.1116
10970W        W26101  16.281   7.214  11.303 -0.0550 -0.1004 -0.2110
10971W        W26102   4.992  12.853   4.671 -0.1429 -0.2491  0.1121
10972W        W26103   2.391  13.630   0.785 -0.0024  0.1231 -0.0357
10973W        W26104  13.876  16.397   4.861  0.1822 -0.3869 -0.0367
10974W        W26105   1.523   9.858  14.100  0.2345  0.1246  0.1156
10975W        W26106   0.928  13.154   2.163 -0.0017 -0.1503 -0.0745
10976W        W26107  11.792  12.323  12.282  0.0028  0.0883  0.1681
10977W        W26108   4.008   0.846  14.251 -0.2149  0.0879 -0.1449
10978W        W26109  14.401  12.580   4.280  0.3727  0.1113  0.1462
10979W        W26110  14.214   6.734   5.804 -0.1698 -0.0822  0.2741
10980W        W26111  13.675   8.666  14.770 -0.1612 -0.0213  0.1161
10981W        W26112   4.912   4.616  15.355  0.0050 -0.2017  0.2791
10982W        W26113  14.083  15.149  10.549  0.1743  0.2206  0.1548
10983W        W26114  12.833   3.456  15.595  0.2217 -0.1489 -0.2160
10984W        W26115  10.821  10.910  14.041 -0.1690 -0.0052  0.0568
10985W        W26116   1.669  15.161  12.456  0.2324 -0.1008  0.3266
10986W        W26117  14.628   6.917   1.281 -0.2952  0.0251  0.0865
10987W        W26118   4.771  16.733  12.830  0.1911  0.1284  0.2543
10988W        W26119  16.543  11.521  11.017 -0.0426 -0.0449 -0.0071
10989W        W26120  13.209   1.224  15.640  0.1589 -0.2152  0.3135
10990W        W26121  12.480   9.562   0.314 -0.1490 -0.1036 -0.3246
10991W        W26122  15.139   7.383  15.912 -0.0394  0.0200  0.0908
10992W        W26123   1.158   4.655   0.541 -0.0964 -0.1219 -0.2558
10993W        W26124  17.469  14.798   4.178  0.0833  0.1845 -0.0186
10994W        W26125   3.460  14.510  12.027  0.2907  0.0125  0.2235
10995W        W26126   6.860   2.220   1.685 -0.2321  0.2677  0.0990
10996W        W26127  18.304  10.367   1.254 -0.0933 -0.0435 -0.1352
10997W        W26128   8.186  13.266  11.924 -0.0897  0.2295  0.0695
10998W        W26129  10.169   8.294   2.283  0.2414 -0.0887 -0.0074
10999W        W26130   2.561   3.294  15.786 -0.1076 -0.4557 -0.0177
11000W        W26131   3.040   0.573  13.989 -0.3575 -0.1660 -0.4225
11001W        W26132   8.003   2.002  12.788  0.2987 -0.0578 -0.0768
11002W        W26133   0.600  17.442   0.751  0.0353  0.1930  0.0213
11003W        W26134  15.098   2.845   2.339 -0.0615  0.0468  0.0066
11004W        W26135   6.805   4.667  14.736  0.2583  0.1773  0.1920
11005W        W26136  12.119  15.665  12.045  0.1471 -0.0514 -0.2112
11006W        W26137  15.747   8.976  12.777 -0.1189  0.1792 -0.1057
11007W        W26138   7.669   6.063  15.107  0.1230  0.2207 -0.1068
11008W        W26139   6.265  16.384  13.818 -0.0202  0.1544  0.0446
11009W        W26140   2.614   5.183  15.982 -0.0442 -0.3985 -0.1575
11010W        W26141   1.885  15.181  10.193 -0.1251  0.0067 -0.1392
11011W        W26142  13.876  11.695   5.815 -0.2486  0.1310 -0.0792
11012W        W26143   2.731   9.806   1.030  0.0106 -0.1141 -0.2369
11013W        W26144   3.483  14.291  15.414  0.1421 -0.1445 -0.3099
11014W        W26145   5.097   4.203   5.115  0.0204 -0.2584  0.2935
11015W        W26146  10.893   8.050  14.410 -0.1978  0.0074 -0.4060
11016W        W26147   5.160  11.787  12.185 -0.1816 -0.1212  0.0066
11017W        W26148   5.159  15.886  12.329  0.0436 -0.0845  0.0861
11018W        W26149   1.345  14.412  13.703 -0.0652  0.3206 -0.0711
11019W        W26150  12.254   9.377  10.257  0.2270  0.4777 -0.1078
11020W        W26151   4.091   4.154   0.766 -0.0968  0.0135  0.1065
11021W        W26152  13.607   8.382  11.992  0.0517  0.1439 -0.0572
11022W        W26153   2.126  13.052  10.962  0.3411  0.1908  0.0190
11023W        W26154  15.792   8.389   1.355  0.1793 -0.1346 -0.0040
11024W        W26155  12.224   1.302   4.746 -0.0243 -0.1040 -0.1125
11025W        W26156  18.230   4.274  12.921 -0.1171  0.0490  0.2252
11026W        W26157  13.737   5.499   3.207 -0.0312 -0.0338 -0.1087
11027W        W26158  17.724   6.634   5.605  0.4840 -0.1783  0.0975
11028W        W26159   9.964  16.528   5.248 -0.1052 -0.1149 -0.0127
11029W        W26160  13.180  12.161  11.073 -0.0334  0.1557  0.1547
11030W        W26161  16.099   8.163   2.925  0.2162  0.2409 -0.1698
11031W        W26162  16.510  10.293  14.613 -0.1940 -0.1065  0.7385
11032W        W26163   5.761   8.700   0.617  0.1025 -0.1928  0.0350
11033W        W26164   1.803  16.560  10.954  0.0478  0.2075 -0.0317
11034W        W26165   1.784   2.330  14.838  0.0890  0.0099 -0.0851
11035W        W26166   9.615  14.068   2.638  0.1880  0.3099 -0.0658
11036W        W26167   2.910   5.200  11.529 -0.1629  0.1220  0.1248
11037W        W26168  17.825  15.793   9.316 -0.1568 -0.0131  0.0432
11038W        W26169   9.808  16.118  13.628 -0.0814  0.0639  0.0972
11039W        W26170  17.044  11.703   5.871  0.1337 -0.0627 -0.0543
11040W        W26171  11.451  16.596   5.507  0.2930 -0.3854 -0.2369
11041W        W26172   3.032   3.198   0.048  0.0730 -0.0893 -0.2732
11042W        W26173   8.106   6.595   0.588  0.0219 -0.1929 -0.1377
11043W        W26174  12.446  15.131   1.980 -0.2121 -0.0950 -0.0254
11044W        W26175  17.982  14.147   4.232 -0.3522  0.2362  0.0487
11045W        W26176   9.127  10.914   4.954 -0.1483  0.1366 -0.2741
11046W        W26177  12.325   9.909  13.395  0.2958 -0.0149  0.1996
11047W        W26178   1.445   9.876  15.022  0.1170  0.0299 -0.1410
11048W        W26179   4.366   7.065  15.571  0.2008  0.1428 -0.7423
11049W        W26180   2.682  17.945  10.711  0.0543 -0.1447 -0.1529
11050W        W26181  16.534   0.029  13.450  0.0145 -0.2662  0.0581
11051W        W26182   3.894  16.818  12.075  0.3910  0.0880 -0.2444
11052W        W26183   1.041  14.448   0.919 -0.0326 -0.4410  0.0390
11053W        W26184   7.134   7.500  11.442  0.2540  0.1412  0.2491
11054W        W26185  14.201  13.563  11.167  0.0255 -0.0663 -0.2083
11055W        W26186   9.321   3.535  11.061 -0.0878  0.4325  0.0494
11056W        W26187  13.165  11.078  14.265  0.2178  0.2723  0.1663
11057W        W26188   5.677   3.668   1.923  0.2137 -0.2670  0.3545
11058W        W26189   6.003  15.247   0.315  0.2562 -0.2036 -0.3709
11059W        W26190   5.739  11.917   3.377 -0.3319  0.2157  0.0795
11060W        W26191   1.689   2.744   0.269 -0.2752 -0.0893  0.0332
11061W        W26192   4.272   5.442   3.928  0.0539 -0.1332 -0.0625
11062W        W26193  17.513   3.774   2.644  0.0915 -0.0147  0.2856
11063W        W26194  13.835   9.626   0.546  0.0629 -0.1719  0.0256
11064W        W26195  16.106  11.245   5.013  0.3626 -0.3770 -0.0362
11065W        W26196   4.203   5.046   3.604  0.0310 -0.0666  0.1370
11066W        W26197   0.522   6.462  11.508 -0.2880  0.0270  0.2106
11067W        W26198   1.111   8.228   0.888 -0.1815  0.1605 -0.3577
11068W        W26199  10.056   4.036   2.508 -0.0840  0.1835 -0.1305
11069W        W26200   3.149   3.565  12.842  0.1711  0.0957  0.3470
11070W        W26201   2.040   5.120   5.351  0.1003  0.0366 -0.0472
11071W        W26202   3.869   3.596  12.535  0.0322 -0.3425  0.1603
11072W        W26203  17.082   8.772   0.460  0.4948 -0.0259 -0.3613
11073W        W26204   8.830   2.218  16.019 -0.2733  0.2505 -0.4156
11074W        W26205  16.466  16.546   2.636  0.1830 -0.0301  0.1280
11075W        W26206   5.972  17.384  12.756 -0.3659  0.0717  0.0920
11076W        W26207  11.860   5.315  10.974  0.0541  0.0423  0.1404
11077W        W26208   5.304   3.030   3.640  0.2255 -0.1031 -0.1554
11078W        W26209  13.618  13.842   4.468  0.1442  0.1133 -0.0925
11079W        W26210   4.155  17.639   4.090 -0.0884  0.0978 -0.0738
11080W        W26211  12.736   8.143  15.824  0.1294  0.2420 -0.0323
11081W        W26212   1.508  15.547  12.851  0.1047  0.0574  0.1336
11082W        W26213  10.017   1.603  15.841 -0.0535 -0.0542  0.1904
11083W        W26214   8.752   6.501  11.847 -0.2302  0.0031 -0.2783
11084W        W26215  13.032   3.951   3.241 -0.1912 -0.0804  0.0516
11085W        W26216  16.875  11.876  14.971  0.1478  0.1076 -0.1661
11086W        W26217  16.458  15.049  14.592 -0.3223 -0.4056 -0.3571
11087W        W26218   9.799   1.577  13.819  0.0211  0.1583  0.3370
11088W        W26219   5.567  15.054   0.029 -0.1868  0.4374  0.1553
11089W        W26220  17.274   4.883   1.593 -0.0940 -0.0593  0.2498
11090W        W26221  13.818   8.040   2.544 -0.3949 -0.1737  0.1211
11091W        W26222  11.642  13.053   5.231  0.4496 -0.3207  0.0553
11092W        W26223  15.612  17.866   0.924  0.2891  0.4738 -0.2096
11093W        W26224   5.403   4.651  12.716  0.2929  0.3986  0.0777
11094W        W26225  18.081   1.152   3.961  0.0322  0.0367  0.2339
11095W        W26226  16.256  17.013   2.779  0.1108 -0.3552  0.2630
11096W        W26227  10.452  11.095  15.721  0.2158  0.0817  0.2334
11097W        W26228   0.325   2.193  12.364 -0.4491 -0.0544 -0.0093
11098W        W26229  17.294   0.613  11.233  0.2089  0.1273 -0.0712
11099W        W26230   6.131  15.598  14.518 -0.0885 -0.0511 -0.2607
11100W        W26231  17.570   5.700   2.217 -0.0202 -0.0745 -0.0946
11101W        W26232   9.240   5.824   2.055  0.0807 -0.5123  0.1264
11102W        W26233  10.022  12.242  10.896  0.2826 -0.2125  0.0269
11103W        W26234   4.743   4.507  10.703  0.0323 -0.1386 -0.1512
11104W        W26235   0.789   5.057  14.934 -0.1612  0.0660  0.3032
11105W        W26236  15.875   1.829  13.110  0.0975  0.2541 -0.3005
11106W        W26237   6.043   8.232   2.359 -0.0132 -0.1149 -0.1441
11107W        W26238  10.752   4.474   5.730  0.2023  0.2148 -0.0974
11108W        W26239   1.122  10.203   0.062  0.0392  0.1561  0.1084
11109W        W26240   8.754  16.777  11.438 -0.1790 -0.3775  0.1890
11110W        W26241   8.016   7.868   6.626  0.0536 -0.0258  0.2341
11111W        W26242   4.050  11.254   0.092  0.2654 -0.0746 -0.1405
11112W        W26243  15.974  10.888   4.239  0.0028  0.2132  0.2122
11113W        W26244   7.805   2.679  10.074  0.2576 -0.4316  0.0015
11114W        W26245  10.290   5.165   3.221 -0.0434  0.0905 -0.0346
11115W        W26246   4.178  10.048   2.625 -0.6078 -0.3711 -0.1628
11116W        W26247   9.491   4.568   0.429  0.2065 -0.1255 -0.1891
11117W        W26248   0.491  12.901   5.112 -0.0570 -0.0521 -0.1385
11118W        W26249   1.877   1.919   4.763 -0.2527 -0.2063 -0.0334
11119W        W26250  13.544   8.019  13.210 -0.1572  0.1189  0.0662
11120W        W26251  15.736   4.368  11.422 -0.1672  0.0723  0.1836
11121W        W26252   0.760   6.061   2.254  0.1001 -0.1255  0.3018
11122W        W26253  17.203  15.884  14.834 -0.0812  0.1663 -0.0517
11123W        W26254   9.600  13.545   5.363  0.0924  0.2015 -0.1121
11124W        W26255  12.981   7.986  12.274  0.1678  0.1957 -0.0198
11125W        W26256  11.511   2.652  14.419  0.1681  0.0030 -0.2476
11126W        W26257   2.426   6.878  12.245  0.0130  0.0536  0.1469
11127W        W26258   1.124   0.524  12.955  0.2085  0.0163 -0.2095
11128W        W26259   3.483  11.155   2.853  0.1252  0.2648 -0.3423
11129W        W26260  17.723   1.951   2.754  0.1906 -0.1072  0.1567
11130W        W26261  18.353  17.593  12.240  0.1743 -0.1191  0.0452
11131W        W26262  12.129  13.904   4.037  0.2343 -0.0248 -0.0040
11132W        W26263  12.230  14.635   3.565  0.0416 -0.1021  0.2847
11133W        W26264   9.060   8.396   3.796  0.3977 -0.4435  0.1694
11134W        W26265  14.187  14.048  13.640  0.2311  0.4232  0.0550
11135W        W26266  10.918   2.493   6.533 -0.2000 -0.1213  0.2524
11136W        W26267  16.767  18.231   3.787 -0.1556 -0.0108  0.1111
11137W        W26268   7.482  16.057   3.156 -0.1775  0.4359  0.0260
11138W        W26269   6.669   1.462   2.889  0.0534 -0.4812 -0.0179
11139W        W26270  13.675  16.458   2.569  0.1532  0.3750  0.3489
11140W        W26271   0.032   7.042   4.954 -0.2820 -0.1478 -0.2545
11141W        W26272  13.660  15.262  12.779 -0.0945 -0.1406  0.0841
11142W        W26273   7.991  14.681   0.265  0.0811 -0.2540  0.1050
11143W        W26274  14.906  12.588  14.005 -0.1321  0.0579 -0.0004
11144W        W26275   0.542  10.921  14.361 -0.1764  0.0242 -0.5473
11145W        W26276   8.019  13.969   3.465 -0.2726 -0.0716  0.1329
11146W        W26277  10.135   9.997  14.770 -0.0936  0.1019 -0.6397
11147W        W26278  13.884  13.522   5.072  0.1742 -0.1689 -0.1762
11148W        W26279  17.767  14.737  14.059  0.0542 -0.3823 -0.0149
11149W        W26280   3.222  13.761   1.457 -0.1218 -0.2358 -0.0366
11150W        W26281   8.723   4.978   0.469  0.0794 -0.0139 -0.0365
11151W        W26282   0.968   3.658  11.110  0.1042 -0.1158 -0.1189
11152W        W26283  17.218   5.616   3.743  0.1727 -0.1204  0.3571
11153W        W26284  17.318   1.978   0.580  0.2182  0.1314 -0.2045
11154W        W26285   2.867  17.270   9.710  0.1067 -0.2288  0.1565
11155W        W26286   9.270   6.026  11.710  0.2505  0.1595  0.1818
11156W        W26287   8.368  14.571  14.176 -0.1572  0.1194 -0.3428
11157W        W26288  17.703  14.231  13.942 -0.0428 -0.0268  0.0302
11158W        W26289  16.252   7.932  12.046  0.2890  0.1887 -0.0919
11159W        W26290   3.182  16.743   0.346 -0.0010 -0.3501  0.0118
11160W        W26291  16.696  10.110   0.595 -0.3312 -0.3558 -0.1919
11161W        W26292   5.598   5.913   5.445 -0.1165 -0.3632 -0.0609
11162W        W26293   6.617  17.900  15.091  0.3639 -0.0472 -0.2614
11163W        W26294   7.266   4.388  11.217  0.0254  0.1988 -0.0883
11164W        W26295  17.957  14.800   3.393 -0.0394  0.1680 -0.3290
11165W        W26296   1.841  11.488   2.975  0.2533 -0.0878 -0.3638
11166W        W26297   1.664   0.069  15.064 -0.0704 -0.1768 -0.0322
11167W        W26298   7.422   7.469   2.031 -0.0573  0.1316  0.0703
11168W        W26299  10.730  16.720   2.189 -0.1385 -0.3258  0.1255
11169W        W26300   9.692   8.880  15.781 -0.0953  0.1291  0.3132
11170W        W26301   2.549   1.808   1.664  0.0628 -0.2885  0.0585
11171W        W26302  12.066   1.611  15.805  0.0838  0.0022 -0.0024
11172W        W26303   8.903   9.617   4.692  0.0035 -0.0919  0.1069
11173W        W26304  12.893   1.614  12.414  0.2427  0.1555 -0.3472
11174W        W26305  17.561   1.663   0.154  0.1468 -0.0106 -0.1553
11175W        W26306   9.620   1.814  15.597 -0.1298 -0.0642 -0.0537
11176W        W26307  12.301  14.672  13.504  0.1020  0.0326  0.0524
11177W        W26308  17.802   0.512   1.148 -0.1428 -0.1963 -0.1418
11178W        W26309  14.316  17.519   5.986  0.2112 -0.1739 -0.2073
11179W        W26310   9.012   5.816  11.323  0.2531  0.3205 -0.2371
11180W        W26311  13.957   3.743   2.240  0.4747 -0.1125  0.2859
11181W        W26312   7.643  17.826   3.629 -0.2636 -0.0508  0.4932
11182W        W26313  12.805   5.006  15.398  0.1327  0.1363  0.0699
11183W        W26314   2.818   1.406   1.343 -0.1822  0.1331 -0.0975
11184W        W26315  11.865   9.879  11.514 -0.3426 -0.3635  0.2538
11185W        W26316   2.023  13.778  11.789  0.0505 -0.2743 -0.1569
11186W        W26317   2.942  12.109  15.791 -0.2820 -0.0455  0.1775
11187W        W26318   6.157   2.311   0.013 -0.2637 -0.0813  0.1378
11188W        W26319   7.715   4.276   4.983 -0.3154  0.2639  0.2389
11189W        W26320   7.970   7.792  14.839  0.2680 -0.0310 -0.0383
11190W        W26321  15.549  17.197   1.791  0.1461 -0.1282  0.0287
11191W        W26322  17.918  11.238   4.810 -0.0578 -0.1347  0.2085
11192W        W26323  15.102  15.104  11.523  0.2704 -0.1858 -0.0139
11193W        W26324  16.650  16.101   2.547  0.3899 -0.1535  0.0301
11194W        W26325  15.220  16.963  14.297  0.2041  0.0271  0.0033
11195W        W26326   3.745   5.817   1.357 -0.1526 -0.1489 -0.0890
11196W        W26327  18.442   2.429   0.156 -0.0507  0.1129  0.1572
11197W        W26328   9.327   2.883   0.930 -0.1644 -0.1113  0.0454
11198W        W26329   2.233  14.380   0.778  0.1335  0.3739 -0.0978
11199W        W26330   0.317  16.631   3.754 -0.1291  0.0688 -0.0127
11200W        W26331  14.515   5.105  13.038  0.3129 -0.0300 -0.2918
11201W        W26332  18.469   6.995  11.418 -0.0460  0.1187 -0.0042
11202W        W26333   5.791  12.417   1.802  0.3136 -0.1943  0.2809
11203W        W26334   5.469   3.227  10.856  0.1179  0.1435  0.1189
11204W        W26335  14.998  16.487   3.521 -0.1868 -0.1359  0.3190
11205W        W26336   1.064   1.108  14.127  0.1573 -0.2855  0.0897
11206W        W26337  18.021  12.028  10.971 -0.0426  0.2959  0.0837
11207W        W26338  14.491   0.488  13.132 -0.0420 -0.0240  0.1713
11208W        W26339  10.500   2.244   0.353  0.2394  0.4744  0.3045
11209W        W26340   5.635  11.984  12.181 -0.0740  0.1548 -0.0616
11210W        W26341  17.464   9.697   5.501  0.0739 -0.1677  0.0070
11211W        W26342   8.979   8.578  13.474 -0.1880 -0.0902 -0.0108
11212W        W26343  10.153  12.378   4.090  0.1201 -0.1051  0.1645
11213W        W26344  11.275   7.097   4.569 -0.1773 -0.2901  0.1823
11214W        W26345   4.862   7.709   3.971  0.0199 -0.3843 -0.1704
11215W        W26346   7.629   1.501   1.386 -0.0971 -0.1648  0.3421
11216W        W26347   5.427   2.056   4.869 -0.3077  0.0274  0.0688
11217W        W26348   7.776   7.965   0.358  0.0808 -0.0128 -0.0442
11218W        W26349  12.643   0.765  12.907  0.1200 -0.1139 -0.1895
11219W        W26350  14.355  12.690  10.046  0.0598 -0.0781  0.2273
11220W        W26351   1.317   4.260   1.995  0.0245  0.1678 -0.3602
11221W        W26352  13.055  11.987  12.525 -0.1506 -0.0350  0.0729
11222W        W26353  14.277  10.243   4.293  0.5154  0.1406 -0.2788
11223W        W26354  16.893   8.669  12.075 -0.4839  0.0725 -0.1011
11224W        W26355  10.930  10.536   5.967  0.0240 -0.3963  0.2701
11225W        W26356   1.069   2.852  11.207 -0.0991  0.1017 -0.4407
11226W        W26357   6.609   3.275   0.236  0.0642  0.3180 -0.1511
11227W        W26358   6.184  18.037  12.427 -0.0294  0.0025 -0.0926
11228W        W26359   3.223  14.413   3.542 -0.0579 -0.0602  0.1650
11229W        W26360  17.814   0.629  10.350 -0.1584  0.2141  0.0501
11230W        W26361  10.860   2.054   4.748  0.4350 -0.1563 -0.1659
11231W        W26362   0.634  17.518  15.774  0.4556  0.2331 -0.1170
11232W        W26363   8.384  15.390  10.366  0.1339  0.2688 -0.0646
11233W        W26364   7.007  17.683   0.704 -0.0838  0.2223  0.3986
11234W        W26365  15.324  15.957   3.953  0.1013  0.6380 -0.2608
11235W        W26366  16.222  16.063  10.463 -0.0692  0.0055  0.3202
11236W        W26367   6.018   5.345   2.236  0.4746  0.0095 -0.2289
11237W        W26368   1.476   1.417   0.481  0.1298  0.1470 -0.1522
11238W        W26369  10.726   9.980  15.270  0.2781 -0.3602  0.3342
11239W        W26370   0.323   2.134  13.177  0.0181 -0.1181 -0.1305
11240W        W26371  16.506  10.135  15.816 -0.2378 -0.0811  0.3703
11241W        W26372   6.060   7.558  11.726 -0.1400 -0.2706 -0.0470
11242W        W26373   2.155  14.242   4.918  0.1252 -0.1437 -0.1023
11243W        W26374  10.608  11.318   1.796 -0.0795 -0.0965  0.2549
11244W        W26375   9.749   5.793   0.313  0.1366 -0.0739 -0.0048
11245W        W26376  12.223   8.282  12.545  0.0907 -0.1942  0.0219
11246W        W26377  11.384   1.099  10.165 -0.0543 -0.0435  0.0955
11247W        W26378   6.350  17.681  15.553  0.0223  0.2070  0.4716
11248W        W26379   0.144   1.160   1.003  0.3131  0.4887  0.0604
11249W        W26380  10.069  14.087   3.362  0.0678 -0.1948 -0.0286
11250W        W26381   5.159   2.775  10.691 -0.0512 -0.1599 -0.1628
11251W        W26382   4.463  16.889  10.279 -0.1413 -0.3842  0.0901
11252W        W26383   2.909  15.858  12.503  0.2345  0.1434  0.4456
11253W        W26384   6.924  13.373   5.042 -0.1436 -0.0807 -0.0415
11254W        W26385   4.807  15.335   3.297 -0.2240 -0.0419 -0.2355
11255W        W26386   0.159   5.519  10.497 -0.2799  0.0009  0.0980
11256W        W26387  12.431  12.773  13.608  0.0802 -0.0467 -0.0826
11257W        W26388   1.783  13.002  15.420 -0.0815 -0.0776  0.0049
11258W        W26389  18.102  12.307  14.650 -0.1642 -0.4803 -0.0086
11259W        W26390   4.521   3.136   3.495  0.1205  0.1197 -0.0050
11260W        W26391   3.329  10.685  14.933  0.1460  0.1900 -0.0684
11261W        W26392  15.049   3.734   3.963 -0.0179 -0.0273 -0.2276
11262W        W26393   1.995  18.018  15.416 -0.0436 -0.0789 -0.2104
11263W        W26394  10.642  15.223  12.211 -0.0692 -0.0182  0.0302
11264W        W26395  17.578   4.031   1.296 -0.2934  0.3819 -0.1955
11265W        W26396   7.944  17.404  12.509  0.0596 -0.3091  0.0542
11266W        W26397  11.933   0.584  15.434  0.3287  0.1125  0.1722
11267W        W26398   8.949   2.438  12.986 -0.1077 -0.1397  0.0484
11268W        W26399   4.471  11.050  15.983 -0.0254 -0.0771  0.1534
11269W        W26400   3.883   4.605  13.029  0.1838  0.0781 -0.0923
11270W        W26401   6.290  16.981  14.308 -0.1664 -0.1103  0.0908
11271W        W26402   0.383  12.777  11.850 -0.2391  0.3846 -0.2537
11272W        W26403   2.435  17.638   1.952  0.1662 -0.1077  0.0765
11273W        W26404  17.732   5.888  14.416  0.1080  0.0866  0.2162
11274W        W26405  14.309  16.312  13.219  0.1373 -0.0439 -0.1779
11275W        W26406   5.357   2.822  13.204 -0.1735 -0.0124 -0.0602
11276W        W26407   8.178   5.088  15.194 -0.1055  0.0129 -0.1033
11277W        W26408   9.725  13.227  14.016  0.2529 -0.4073 -0.1755
11278W        W26409  17.076   7.765  12.663 -0.0507  0.0095 -0.0552
11279W        W26410  13.149  13.485  14.172  0.0330  0.1864  0.0949
11280W        W26411  13.612   3.102   3.021 -0.3874  0.0501  0.1487
11281W        W26412  13.823   6.621  15.863  0.4022 -0.1202 -0.2334
11282W        W26413   0.130   0.461  14.582  0.1969  0.0217 -0.0476
11283W        W26414  15.506  10.675   5.996  0.1821  0.3061  0.1822
11284W        W26415  13.995   1.372   4.567  0.2099  0.1490 -0.0095
11285W        W26416   9.390  15.070   4.747  0.1651  0.1044 -0.0452
11286W        W26417  17.805   6.457   1.722  0.1825 -0.1109 -0.0592
11287W        W26418  15.621  14.544  12.905  0.0661  0.3293  0.2011
11288W        W26419  11.073  15.634  12.717  0.0190 -0.0294  0.0234
11289W        W26420   2.236  12.761   2.532  0.1372 -0.1654  0.3240
11290W        W26421   6.872  16.613   5.417  0.0599 -0.0083  0.0443
11291W        W26422   8.125   8.476   5.554 -0.0427  0.1737  0.2251
11292W        W26423   9.109   6.027  12.415 -0.0276 -0.3333  0.2089
11293W        W26424   2.940   5.691  12.784  0.0564 -0.0826  0.1177
11294W        W26425  17.634  10.180   2.789 -0.1175 -0.1806  0.3726
11295W        W26426  16.019  12.576   5.152 -0.0362 -0.2909 -0.2277
11296W        W26427   9.033   0.956  11.458 -0.2642 -0.2284 -0.2176
11297W        W26428  11.898   3.842   2.290  0.0444  0.3371 -0.0624
11298W        W26429   2.736   5.352  13.147 -0.3342 -0.2971 -0.0240
11299W        W26430   4.807   9.325  14.516 -0.1966  0.3190  0.2444
11300W        W26431   6.999   1.349   0.674  0.1575 -0.0423  0.4053
11301W        W26432  13.916   5.893   4.056  0.1065 -0.0765  0.0926
11302W        W26433  14.573  13.808   0.636 -0.1119  0.0361 -0.1297
11303W        W26434  18.118  10.377  15.040  0.0256 -0.0514  0.0887
11304W        W26435   5.477  17.749   0.746  0.0655  0.2085  0.0991
11305W        W26436   4.614  11.091  11.006 -0.0122 -0.2754  0.1666
11306W        W26437  12.645   7.120  15.420  0.2163  0.3769 -0.0572
11307W        W26438  13.211   1.608  12.037  0.0086 -0.1115  0.0298
11308W        W26439   1.854   4.892   2.809 -0.0643 -0.2411 -0.0149
11309W        W26440  11.063  17.513  12.526  0.0898 -0.0279 -0.1026
11310W        W26441  16.843  15.428  11.390 -0.0793  0.0818 -0.0194
11311W        W26442  12.785  13.701   2.983  0.0234  0.0333 -0.3000
11312W        W26443   4.492   8.082  11.539  0.4024  0.1381  0.1132
11313W        W26444   2.874  14.860  15.202 -0.0661 -0.0033  0.0155
11314W        W26445  15.096   4.351  13.441  0.1322  0.0626 -0.4757
11315W        W26446   7.333  11.333  11.792  0.0471  0.1921  0.1136
11316W        W26447   8.110  13.198  13.754 -0.4025  0.2655 -0.0898
11317W        W26448  14.405  17.211   0.946 -0.0625  0.0174 -0.0639
11318W        W26449   0.777   8.355  14.741  0.0218 -0.1799 -0.0263
11319W        W26450  11.778  12.521  11.587 -0.2144 -0.2236 -0.4629
11320W        W26451  16.333   1.471  11.205  0.1485 -0.2136  0.2611
11321W        W26452   8.320  10.501  14.537 -0.1204  0.0932  0.1929
11322W        W26453  10.439   7.583   3.588  0.3713  0.3090 -0.2773
11323W        W26454  16.355  16.673  12.578  0.0981 -0.0890  0.3528
11324W        W26455   5.463  15.081  14.559 -0.1127 -0.2322  0.2238
11325W        W26456   8.412   2.230   0.188  0.4880 -0.0406  0.0912
11326W        W26457   9.623  13.201  12.457 -0.2743  0.0327 -0.0714
11327W        W26458   3.309  11.682   0.024  0.2896  0.3344 -0.0672
11328W        W26459  11.001   1.897  11.111 -0.0062 -0.0700 -0.3088
11329W        W26460   4.680  14.441   3.709 -0.0848  0.0865  0.0952
11330W        W26461   6.893   2.947  15.042  0.1737  0.1184 -0.2074
11331W        W26462  17.804   0.996  10.782 -0.2870 -0.0416 -0.3526
11332W        W26463   8.389   7.374   4.141  0.2279 -0.1754 -0.2663
11333W        W26464   6.960   9.432   5.850  0.0140 -0.0575 -0.2090
11334W        W26465   0.914  11.823  10.523  0.1386 -0.2091  0.1817
11335W        W26466  17.376  15.049  14.984 -0.2449 -0.3223 -0.0248
11336W        W26467   7.343   2.239   4.939 -0.1305  0.1388 -0.0860
11337W        W26468   0.540  11.154  12.682  0.1372  0.1373 -0.1363
11338W        W26469  14.654   4.372   2.370  0.0093 -0.1409 -0.3304
11339W        W26470   5.184  11.134  15.703  0.0838  0.1019  0.3053
11340W        W26471   0.935  13.101  10.599 -0.0392  0.0294 -0.0205
11341W        W26472   0.885  15.005   4.126  0.2049 -0.1589 -0.1409
11342W        W26473  15.453   6.383  14.796 -0.0326 -0.2149 -0.2205
11343W        W26474  16.449  15.577  13.576 -0.1984 -0.0277  0.0878
11344W        W26475   8.762   5.787  12.147  0.1017  0.1951 -0.4793
11345W        W26476  15.412  17.915   1.882 -0.2932 -0.1239 -0.0415
11346W        W26477  10.173   4.407   6.102  0.2168  0.1204  0.1198
11347W        W26478   9.025   9.656  13.403 -0.2541  0.1560 -0.1377
11348W        W26479  10.276   3.120  15.660 -0.0816  0.0740 -0.0342
11349W        W26480   0.877  12.329   1.232  0.2150 -0.1480  0.1492
11350W        W26481  17.684  10.933   3.491  0.3128 -0.0062  0.5151
11351W        W26482  10.370  16.351  14.577 -0.0289 -0.1467 -0.0363
11352W        W26483  14.517  11.349  14.282 -0.2060 -0.0267  0.0620
11353W        W26484   7.435  10.590   4.795  0.1312  0.0126 -0.2827
11354W        W26485  16.898  12.618  11.032  0.2512 -0.2199 -0.0034
11355W        W26486   5.143   9.236  15.458  0.2214  0.0652  0.2323
11356W        W26487   6.028   9.671   0.485 -0.1826 -0.1076 -0.1281
11357W        W26488  12.231   2.457  12.139 -0.3463  0.2089 -0.0046
11358W        W26489   3.024   2.122   2.008 -0.1456 -0.2589  0.2169
11359W        W26490   0.347  12.578   3.220  0.0978 -0.1953  0.0512
11360W        W26491   9.591   4.209  11.718 -0.1252  0.1959 -0.1766
11361W        W26492   2.603  18.390  12.684 -0.0885 -0.0616 -0.4428
11362W        W26493  16.119  15.812  12.416  0.0554 -0.0719  0.1042
11363W        W26494  15.805   8.114  11.615 -0.2929 -0.0412  0.2580
11364W        W26495   6.159  14.822   4.424  0.1696  0.1134  0.2011
11365W        W26496   7.397   2.373  12.053  0.1015  0.0606  0.0026
11366W        W26497  14.218  16.073  12.802  0.1532  0.1465  0.2311
11367W        W26498  15.036   2.335  15.841 -0.0588 -0.1516 -0.2610
11368W        W26499  15.294   8.369  15.562 -0.1574  0.2717 -0.0208
11369W        W26500   1.891  14.072   4.512 -0.0101 -0.0137 -0.0248
11370W        W26501   1.383  16.324   2.736 -0.1401  0.3257  0.0688
11371W        W26502   3.883  15.049   2.387 -0.1405 -0.2457 -0.0252
11372W        W26503   7.534  14.381  13.776  0.0238  0.2120 -0.1797
11373W        W26504   6.730   3.809   4.156  0.2524 -0.1512  0.0623
11374W        W26505   2.997  13.141  12.026  0.0804 -0.1930 -0.1450
11375W        W26506   1.741   8.033   4.886  0.3162  0.0488  0.0120
11376W        W26507  16.947   3.947  15.817 -0.0078  0.2987 -0.2340
11377W        W26508  10.130   3.022   2.557 -0.3315 -0.1887  0.0414
11378W        W26509   0.525  16.062   4.929  0.1143 -0.0938  0.1959
11379W        W26510  14.347  14.809   2.002 -0.0981 -0.1095 -0.0614
11380W        W26511   0.129  12.805  12.617  0.0895 -0.1710 -0.0526
11381W        W26512  10.443   6.257  10.671  0.0672 -0.2064 -0.1410
11382W        W26513   6.017  14.651   3.662 -0.1895 -0.0236 -0.0936
11383W        W26514  11.357  12.730  15.901 -0.0612  0.1406 -0.0220
11384W        W26515   0.795   6.794  13.125 -0.0027 -0.2478  0.0202
11385W        W26516  12.628  14.583  11.254 -0.0776 -0.1342 -0.0194
11386W        W26517   0.218   1.203   1.951  0.0650 -0.1835 -0.1359
11387W        W26518   7.968   2.836   2.485 -0.0967  0.2537 -0.1212
11388W        W26519  17.207   5.809   1.555 -0.0422  0.1637 -0.0696
11389W        W26520  13.022   4.890  10.400 -0.0834 -0.3308 -0.3635
11390W        W26521   3.766   0.837   5.404  0.0569 -0.4004 -0.1967
11391W        W26522   2.146   5.514   4.963 -0.2162 -0.1556 -0.4059
11392W        W26523  17.012  11.050  14.571  0.0012  0.0761  0.0595
11393W        W26524   2.518  15.205   4.841  0.1513 -0.3118  0.2195
11394W        W26525  11.128   2.401   2.803  0.2727  0.1207  0.1231
11395W        W26526  16.598   7.504   5.156  0.1977 -0.2200 -0.0954
11396W        W26527  11.117  16.766   4.151  0.0443  0.1148  0.0126
11397W        W26528   2.711   5.352   5.168  0.2451 -0.5197 -0.3232
11398W        W26529  10.231   0.297  15.445  0.0159  0.1847  0.0049
11399W        W26530   5.429  12.725  13.712  0.0404 -0.0964 -0.2711
11400W        W26531  10.817   6.040  15.410  0.1725  0.1950  0.2384
11401W        W26532  14.138   5.100  14.925 -0.3673  0.1475 -0.0684
11402W        W26533  11.498   8.675   5.232  0.0031 -0.0399  0.0377
11403W        W26534  12.335  16.861   4.424  0.1923  0.0006 -0.2011
11404W        W26535   1.843   7.675  13.713 -0.0315  0.2137 -0.0578
11405W        W26536   7.092  11.638   3.597  0.1582 -0.1260  0.0899
11406W        W26537   6.745  14.159   3.894  0.1759  0.0203  0.1807
11407W        W26538  16.018  17.038   0.967 -0.0931  0.3367 -0.1232
11408W        W26539   6.678   7.874   3.135  0.4856 -0.1183  0.1846
11409W        W26540   9.408  14.931   1.136 -0.4091  0.2307 -0.0955
11410W        W26541  12.242   5.129  12.166 -0.0468  0.1752 -0.3596
11411W        W26542  16.212  12.736   1.631  0.0439 -0.1823 -0.0031
11412W        W26543  15.025   1.170   1.080 -0.0579  0.2772  0.0295
11413W        W26544   3.730   9.152   3.908  0.3613 -0.1160  0.1557
11414W        W26545   3.416  17.996  16.018  0.5524 -0.0551 -0.3016
11415W        W26546   9.808  13.521   0.978 -0.0823 -0.2016 -0.3346
11416W        W26547   5.846   8.623   1.634  0.0627  0.2714  0.0307
11417W        W26548   9.788   4.824   4.771 -0.0361  0.0894  0.3385
11418W        W26549   7.543   4.686  12.694  0.1061 -0.2398  0.0853
11419W        W26550  12.455   9.208   4.588  0.3136 -0.0877  0.2343
11420W        W26551  15.536   3.620   6.162 -0.5717 -0.0339  0.0397
11421W        W26552  13.702  14.341  15.798 -0.1749 -0.4387 -0.0233
11422W        W26553   0.039   6.332   3.464  0.0097  0.0333 -0.2009
11423W        W26554  16.875  15.968  13.058 -0.4509  0.1009 -0.2515
11424W        W26555   3.529  13.336  15.851 -0.0625  0.2958  0.2755
11425W        W26556  11.272   8.560  12.758  0.2840  0.3006  0.3113
11426W        W26557   6.751   2.263   0.072 -0.2411  0.0426 -0.3373
11427W        W26558  12.513   8.458   3.462 -0.1418  0.3336  0.0092
11428W        W26559  10.862   3.595   2.161  0.1812  0.1747 -0.0768
11429W        W26560  11.343   6.797  15.598 -0.0585 -0.2025 -0.1442
11430W        W26561  16.161  10.006  14.189  0.0566 -0.0291 -0.3796
11431W        W26562   5.253  14.225  14.714  0.0620 -0.3538 -0.2634
11432W        W26563   8.542  11.047  10.254 -0.2733 -0.1575  0.1099
11433W        W26564   5.891   4.991   0.410 -0.0403  0.3268  0.2034
11434W        W26565   5.636  16.711   4.096 -0.2766  0.0248  0.2024
11435W        W26566  14.454   9.521   4.043 -0.2478  0.2159 -0.0137
11436W        W26567  15.213   2.240  10.663 -0.3133 -0.1402  0.4870
11437W        W26568  15.361  14.429  14.781 -0.2131 -0.2539 -0.1247
11438W        W26569   7.883  18.001  11.291  0.1894  0.0664  0.3900
11439W        W26570  13.209  12.228  13.972  0.1431 -0.0954  0.2878
11440W        W26571  14.910   0.085   0.911 -0.0938  0.3436 -0.1432
11441W        W26572  18.385  10.865   3.752  0.0012 -0.1077  0.0652
11442W        W26573  10.691  11.259   0.643 -0.3521  0.1467 -0.0322
11443W        W26574   3.844  11.961  12.355  0.0064  0.2411 -0.1407
11444W        W26575   7.240  11.748   3.130 -0.0972  0.1329 -0.1946
11445W        W26576   0.586  13.917   2.679 -0.0322  0.1070 -0.1070
11446W        W26577   0.534   0.923   0.814  0.1599 -0.0957  0.0912
11447W        W26578  13.642  12.189   5.905 -0.0912 -0.0869  0.0925
11448W        W26579   0.101  16.545   4.187  0.0477  0.2027  0.0306
11449W        W26580  10.193   9.900   4.288 -0.1046  0.2465 -0.1012
11450W        W26581   8.866   7.308  11.660  0.0614 -0.1141 -0.0273
11451W        W26582  15.333   9.230  11.960  0.0054  0.1178  0.1604
11452W        W26583   6.671  11.283   4.261  0.2164  0.1238  0.0361
11453W        W26584   8.390  14.452  13.419 -0.0529  0.0592 -0.1262
11454W        W26585  15.727  14.782   2.293  0.0187  0.2192  0.1329
11455W        W26586   0.930  14.535  10.475  0.1464 -0.2144  0.3526
11456W        W26587  13.391  10.944  11.816 -0.1635 -0.4542  0.0340
11457W        W26588  18.015  17.328   3.642 -0.0476 -0.1025  0.0777
11458W        W26589  15.458   9.460   4.226  0.2318 -0.0625 -0.2739
11459W        W26590   5.046  17.927   5.760 -0.0484 -0.1481  0.1499
11460W        W26591   9.264   9.324  13.701 -0.1542  0.1320  0.0513
11461W        W26592   5.625   4.893   5.371 -0.0780 -0.0431  0.0448
11462W        W26593   6.216  18.153   3.784  0.3118  0.3736  0.2707
11463W        W26594   4.064   2.329  15.042 -0.1032  0.1621 -0.0406
11464W        W26595  11.307   1.881   4.913 -0.1525 -0.2958 -0.0547
11465W        W26596  17.273   9.098   3.230  0.2046  0.3750  0.0044
11466W        W26597  15.879  17.588   1.913  0.5100  0.1874 -0.3663
11467W        W26598   4.526   5.807   1.270  0.1110  0.1802 -0.0107
11468W        W26599   4.538  10.360   1.814  0.4082  0.3746 -0.0727
11469W        W26600  13.926  11.430  10.933 -0.3633  0.1571  0.0775
11470W        W26601  11.333   0.911  13.712 -0.1582  0.0808  0.2398
11471W        W26602  14.942   7.742   4.523  0.3131  0.4613 -0.0985
11472W        W26603   3.057  12.753  10.581  0.1166 -0.1426  0.3649
11473W        W26604  14.473  12.734   3.321 -0.3921 -0.0354  0.1500
11474W        W26605   6.374   9.454  12.461 -0.2535 -0.0293 -0.0939
11475W        W26606   5.104  17.688  15.980 -0.2515 -0.3795 -0.0758
11476W        W26607   5.174   0.372   3.376 -0.1207 -0.2610 -0.0997
11477W        W26608  13.662  18.087   5.534 -0.0051  0.2444  0.1569
11478W        W26609   0.118  12.482   1.764  0.0874  0.3448 -0.2431
11479W        W26610   2.923  13.488  15.062 -0.1309  0.1471  0.1009
11480W        W26611  17.696  11.922  14.797 -0.0144 -0.1909 -0.0469
11481W        W26612   9.061   1.800  14.867 -0.3208 -0.4672 -0.0558
11482W        W26613   6.317  16.080   1.315  0.2277 -0.1450 -0.2505
11483W        W26614  10.016  15.915   0.738 -0.0398 -0.0024  0.0552
11484W        W26615   7.154   6.700   4.077  0.1362  0.2696 -0.1981
11485W        W26616   9.312   2.039   1.409 -0.0126  0.3921 -0.0017
11486W        W26617   3.633   7.739  14.950  0.2093  0.0508  0.2403
11487W        W26618   5.142  17.029   3.360 -0.2635  0.2717 -0.2340
11488W        W26619  11.652   9.289   4.116  0.0264  0.0274 -0.0827
11489W        W26620   9.590  15.082  13.578  0.3728  0.3502 -0.0455
11490W        W26621  14.480   7.406  11.353  0.0427  0.2453 -0.0761
11491W        W26622   4.543  16.082  14.788  0.0966 -0.2465  0.1306
11492W        W26623   1.139  13.400  15.967 -0.2922  0.0054 -0.0563
11493W        W26624   4.022   7.307  12.815 -0.1837  0.1820 -0.0355
11494W        W26625  13.929   6.428   4.311 -0.1090  0.0963 -0.0210
11495W        W26626  17.965   9.649   0.191 -0.0972 -0.2261  0.2785
11496W        W26627   9.537  13.470  14.816  0.1839 -0.0696  0.2341
11497W        W26628  10.953  14.341  11.331 -0.0226  0.1156 -0.3260
11498W        W26629  18.317  13.608   2.768 -0.0983 -0.2456  0.1500
11499W        W26630   8.560   3.661  13.434 -0.0074  0.2023 -0.0221
11500W        W26631  17.061   1.826  12.698 -0.2704 -0.0043  0.2598
11501W        W26632   1.990  17.765  11.496 -0.3250  0.2034  0.0217
11502W        W26633  11.550   4.470   0.948 -0.0423 -0.2698  0.1761
11503W        W26634   7.423  11.290   3.304  0.0745 -0.2076 -0.0503
11504W        W26635  11.031   2.423   6.068  0.1549 -0.0665  0.0128
11505W        W26636  13.658  15.302   3.585 -0.3429 -0.1018 -0.4614
11506W        W26637   8.432  10.358   3.103  0.2619 -0.1023  0.1941
11507W        W26638   8.154  17.388  15.345 -0.0466  0.0171 -0.1485
11508W        W26639   7.482  10.708   5.792 -0.0076  0.2345  0.2469
11509W        W26640   5.244   1.791  12.793 -0.6078 -0.0432  0.0295
11510W        W26641   1.080  13.883  11.147 -0.2424  0.2326 -0.0842
11511W        W26642   4.832   7.232  13.813  0.3083  0.4936  0.0216
11512W        W26643   4.403   1.689   0.526 -0.2594  0.2048 -0.1547
11513W        W26644   8.243   5.921   4.540  0.0156 -0.0907  0.0115
11514W        W26645  12.544   3.734  12.824  0.1077  0.0691  0.1885
11515W        W26646  13.202   6.054  13.572  0.1668  0.0248  0.2237
11516W        W26647   7.366   6.657   0.356 -0.1933 -0.2614 -0.1644
11517W        W26648   5.342  16.099  15.369 -0.1649  0.1620  0.4487
11518W        W26649  10.903  16.393  14.438 -0.3032 -0.0235  0.0037
11519W        W26650   6.626  15.939  15.303 -0.1025 -0.3283 -0.1130
11520W        W26651   5.958   6.634  12.043 -0.0983  0.2295 -0.0945
11521W        W26652  18.279   8.745  14.555  0.1467 -0.0371  0.2563
11522W        W26653   3.147   0.265   2.979  0.2980 -0.1124 -0.1614
11523W        W26654  16.616   3.733   3.896 -0.0386  0.0935  0.1303
11524W        W26655   9.044  11.250  12.592  0.4728 -0.0903 -0.1928
11525W        W26656   3.994  18.329  11.784 -0.1383 -0.0617  0.2572
11526W        W26657   0.690   0.477   4.708  0.0626  0.3673  0.4086
11527W        W26658  11.275  17.690  10.089  0.4207  0.2756  0.0724
11528W        W26659  14.243  14.790   3.325  0.1660 -0.0939  0.0265
11529W        W26660  11.561   4.996   5.714  0.2864 -0.1100  0.0601
11530W        W26661   1.881   0.051   3.955 -0.0300 -0.2418 -0.1041
11531W        W26662   3.652   6.125   3.987  0.1832 -0.0100 -0.2426
11532W        W26663   2.244   5.268   2.537  0.1911  0.0343 -0.2619
11533W        W26664   7.165  11.383   4.379  0.5188  0.0745 -0.0640
11534W        W26665  16.348  11.289   3.556 -0.0251 -0.3232  0.2624
11535W        W26666  13.568   2.668   3.623 -0.2610  0.4377 -0.0787
11536W        W26667   8.059  12.151  15.691 -0.0934  0.1480 -0.1282
11537W        W26668  11.113   0.643  10.926  0.1476 -0.0212 -0.1349
11538W        W26669   6.763   2.128   5.713  0.0130 -0.1505  0.2324
11539W        W26670   6.574   1.219   0.918 -0.5120 -0.1681 -0.1183
11540W        W26671  17.359  14.833  15.809  0.2399  0.2091 -0.2295
11541W        W26672  15.717   3.191  13.048  0.3987  0.0067 -0.0259
11542W        W26673   7.382   2.438  13.410  0.0944 -0.0931 -0.1087
11543W        W26674   9.897   8.705  11.977  0.1250 -0.2600 -0.1382
11544W        W26675   2.995   9.015  12.299  0.4701  0.0800  0.1412
11545W        W26676  13.342   2.650   3.176  0.2414  0.2547  0.3840
11546W        W26677   1.312  14.448   4.956  0.3318 -0.4641 -0.1863
11547W        W26678  15.299  12.421  11.956 -0.0527 -0.1924 -0.2427
11548W        W26679  18.010  17.476   0.074  0.0390  0.1031 -0.0655
11549W        W26680   5.961   2.483  13.072  0.0566 -0.1798 -0.1179
11550W        W26681   8.082   4.861   3.128  0.2834  0.0830  0.0537
11551W        W26682   5.932   4.947  13.805 -0.2231  0.2712  0.1156
11552W        W26683  10.542  10.041   0.858  0.3757  0.0649  0.0801
11553W        W26684   6.311   5.619  15.093 -0.1315 -0.0490 -0.2032
11554W        W26685   9.098  11.016  13.065 -0.0026  0.0165  0.1737
11555W        W26686   3.586  10.274   5.922  0.0496  0.1056 -0.1595
11556W        W26687   4.733   9.544   1.916 -0.4594  0.2038  0.2780
11557W        W26688   7.877   8.763   3.603  0.2748 -0.0516 -0.2159
11558W        W26689   0.717   0.236  11.351  0.2077 -0.2731  0.2143
11559W        W26690  13.392   6.968   0.905  0.1699 -0.2254  0.0903
11560W        W26691  16.639   7.276   3.202 -0.0191 -0.1214  0.1344
11561W        W26692  14.928  13.483   1.780  0.1551 -0.1111 -0.1467
11562W        W26693   7.985  14.708   4.522 -0.0206 -0.0800  0.0304
11563W        W26694  14.451   8.954   6.044  0.1611  0.3985 -0.1757
11564W        W26695   1.764   3.159  11.927  0.0002  0.0207  0.0491
11565W        W26696   9.686   3.961   4.590 -0.1806  0.0971 -0.1866
11566W        W26697  10.039  13.846   2.350  0.2362  0.0975  0.0157
11567W        W26698  13.128  11.771   1.473 -0.2897  0.2078 -0.0856
11568W        W26699   4.392   3.950   4.025 -0.3223 -0.1638 -0.0016
11569W        W26700  12.242   1.208  13.470  0.2914 -0.3337  0.1102
11570W        W26701  16.311   6.832  14.923  0.1543  0.0422 -0.4532
11571W        W26702  14.890   6.622  13.713  0.0063 -0.1335 -0.0002
11572W        W26703   6.222   6.186   4.251  0.0082  0.1245  0.2919
11573W        W26704  12.256   7.844  15.723  0.1291  0.0743 -0.1903
11574W        W26705  12.605   1.207  11.715  0.0859  0.2828  0.3776
11575W        W26706  13.943   2.977   0.859  0.1720  0.2626 -0.0028
11576W        W26707  18.167   8.152   2.342 -0.3691  0.1836  0.1010
11577W        W26708   2.593  16.437  11.848  0.4460 -0.0778 -0.0681
11578W        W26709   9.675  15.591   0.831  0.2966 -0.1130 -0.1980
11579W        W26710   7.948   8.905   2.104 -0.0174 -0.0371 -0.0115
11580W        W26711  14.853  11.639  10.376  0.2914 -0.1151 -0.2829
11581W        W26712   8.469  17.552   1.739  0.0372  0.2458 -0.0462
11582W        W26713  16.149   5.770   0.654 -0.2085 -0.1751  0.1438
11583W        W26714  13.222   3.900  15.578 -0.1837  0.1442  0.2319
11584W        W26715   2.224   5.846   5.790  0.0933  0.1337 -0.1782
11585W        W26716  10.050   2.272   4.898  0.0666  0.0219 -0.1303
11586W        W26717   1.753   8.275  11.371  0.0086  0.0251 -0.1260
11587W        W26718   7.680  17.248   4.970 -0.1193 -0.3294  0.1836
11588W        W26719  12.110  15.034  15.309 -0.0500 -0.0797 -0.0728
11589W        W26720  10.524   4.145  13.205 -0.0982 -0.1417  0.0685
11590W        W26721  11.621   3.083   5.676  0.0836 -0.0700 -0.2564
11591W        W26722   8.118   7.878  15.305  0.0744  0.1902 -0.0656
11592W        W26723  14.645   6.408  11.297 -0.0548 -0.1906 -0.0795
11593W        W26724   2.760   5.370  10.435  0.0006 -0.2153 -0.1266
11594W        W26725   4.420   0.079  15.142  0.3339  0.0484 -0.3302
11595W        W26726  12.439  16.971   3.001  0.2555  0.0042  0.3304
11596W        W26727  13.563  13.841  14.165  0.2793  0.1293  0.1672
11597W        W26728  17.224   9.983  12.144  0.0054  0.0682  0.0727
11598W        W26729  17.133  16.125  13.914  0.1154 -0.0185 -0.0148
11599W        W26730  15.230  14.947   2.333  0.1641 -0.1926 -0.3005
11600W        W26731  13.922   3.780   5.636 -0.0007  0.1125  0.0612
11601W        W26732  12.610  14.647   3.224 -0.2864  0.0053 -0.2150
11602W        W26733  16.101   1.155  15.206  0.1187 -0.1391 -0.3553
11603W        W26734   7.931   9.165  12.055 -0.2266  0.0679 -0.0238
11604W        W26735   6.364   6.343   3.569 -0.2532  0.0621  0.3599
11605W        W26736   5.484   1.256  14.349  0.2345  0.0034 -0.4859
11606W        W26737  10.322   8.726   1.316 -0.1332 -0.0998  0.0773
11607W        W26738  15.296   4.642   4.510 -0.0563 -0.2121  0.2581
11608W        W26739   4.588  10.819   5.901 -0.0360  0.1707  0.1249
11609W        W26740   4.935   5.650   2.531 -0.1664 -0.0279 -0.2216
11610W        W26741  11.904  10.127   2.867 -0.2051 -0.1538  0.0227
11611W        W26742   2.781  16.678  11.044 -0.0981 -0.3210  0.0219
11612W        W26743   8.330  12.116   0.881  0.3352  0.1725  0.1086
11613W        W26744   1.925   3.469  14.102 -0.1080 -0.6200 -0.0483
11614W        W26745   8.596   8.202  13.025 -0.1380  0.0886  0.0684
11615W        W26746  16.214  11.657  14.667  0.1337 -0.2819  0.0209
11616W        W26747  10.216   4.321  12.867 -0.2748 -0.2095  0.0394
11617W        W26748   9.114   2.377  11.544  0.0088  0.1648  0.0016
11618W        W26749   9.175  13.483  11.823 -0.0808 -0.3260 -0.3035
11619W        W26750  14.530   3.033   0.332 -0.1087  0.0790 -0.3223
11620W        W26751   7.680  12.538  15.593  0.1426 -0.3299 -0.1398
11621W        W26752  10.770   1.146   4.803  0.1983 -0.3100 -0.1689
11622W        W26753  12.128  13.728  15.165 -0.0050  0.2990  0.1369
11623W        W26754   6.498   5.605   0.080  0.0695 -0.2708  0.0210
11624W        W26755   7.483   2.538   0.669 -0.1956 -0.0514 -0.0165
11625W        W26756  16.603  10.894   2.164 -0.1592  0.2255  0.0267
11626W        W26757  17.214   5.072   0.677 -0.1379 -0.2864 -0.0948
11627W        W26758  10.016   0.871  10.404  0.1125 -0.1994 -0.0572
11628W        W26759   1.485   1.012  13.272  0.0528 -0.0219  0.3014
11629W        W26760   6.284   6.296  15.603  0.0110 -0.0073  0.0365
11630W        W26761   0.668   1.769  12.993 -0.1813 -0.2237 -0.1029
11631W        W26762   8.933  13.462  14.501  0.0439  0.0015  0.1130
11632W        W26763   6.399  17.866  13.962 -0.0751  0.2737  0.5340
11633W        W26764   8.876  17.942  12.175 -0.1113 -0.2390 -0.0810
11634W        W26765   5.559   4.555  15.867 -0.3608 -0.3183  0.2645
11635W        W26766   5.613  13.266  14.499 -0.0822 -0.0303 -0.4149
11636W        W26767   4.189   9.683   3.064  0.1220  0.0467  0.4786
11637W        W26768   5.378   7.757  12.279  0.0478  0.1255  0.1186
11638W        W26769   4.649   3.157   3.964  0.3011 -0.2259 -0.0937
11639W        W26770  16.385   1.673  15.348  0.3256 -0.0252 -0.1073
11640W        W26771   5.837   3.930   2.321 -0.1232  0.0788  0.0926
11641W        W26772  17.903  16.060  11.055 -0.0258 -0.0259 -0.0356
11642W        W26773  16.107   5.717  11.336  0.0666 -0.1484 -0.0196
11643W        W26774  13.742   7.094  12.339  0.1790  0.1153  0.0153
11644W        W26775   9.121   9.760   6.121 -0.0115 -0.1620 -0.1426
11645W        W26776  12.448   4.297  14.038  0.0505  0.0054 -0.0423
11646W        W26777  16.265   5.346  12.789  0.3197  0.2538  0.1366
11647W        W26778  13.985  12.391  15.315  0.2090 -0.3109 -0.2064
11648W        W26779   4.807  14.970   9.497 -0.2953  0.0599  0.1462
11649W        W26780   8.064   5.997  10.734 -0.1137  0.2461 -0.1100
11650W        W26781   6.535  10.621   4.590 -0.4841 -0.0223 -0.1519
11651W        W26782   6.295  17.714  14.664 -0.2563  0.0728  0.0881
11652W        W26783   0.450  10.601  14.781  0.0171  0.2380  0.3016
11653W        W26784  13.160  14.826  10.811  0.1832  0.0987  0.1697
11654W        W26785  14.617   2.711   4.496 -0.5037  0.1002 -0.0410
11655W        W26786  10.041  11.370  13.381  0.4116  0.1996  0.0197
11656W        W26787  11.336   2.578  15.614 -0.1309 -0.3514 -0.0852
11657W        W26788  18.002  12.342  16.023 -0.1055 -0.3811  0.2399
11658W        W26789   0.507  12.303  14.127 -0.0646  0.0651  0.1101
11659W        W26790   9.013   5.953  14.359  0.2775 -0.0705  0.1059
11660W        W26791  12.319   2.603  14.606  0.1818  0.1439  0.0519
11661W        W26792   2.506   9.118  13.844  0.1319 -0.1236 -0.2196
11662W        W26793   4.606  10.736  13.637 -0.1835 -0.0356 -0.1588
11663W        W26794   0.050  11.923   0.633 -0.3026 -0.0923  0.0670
11664W        W26795  17.829  11.481  14.598  0.1039  0.0939 -0.1679
11665W        W26796   2.190   8.981   0.450 -0.2438  0.0405 -0.1238
11666W        W26797  15.679  16.937  14.505  0.0583  0.1520 -0.0219
11667W        W26798   7.904   6.150   3.198  0.2053  0.2320 -0.3337
11668W        W26799  17.988  11.039   0.127  0.0257  0.2207  0.2996
11669W        W26800  15.679   4.973   1.660  0.1032 -0.1374 -0.2611
11670W        W26801  10.920  16.137  12.542  0.1061 -0.0911  0.2012
11671W        W26802   8.463   8.008   2.304  0.0531  0.1445  0.2901
11672W        W26803  16.990   6.266  14.570  0.0754  0.1546  0.0191
11673W        W26804   8.389  17.405   3.921 -0.1025 -0.2189  0.1294
11674W        W26805   0.877   1.092  15.094  0.3098  0.0128 -0.0629
11675W        W26806  15.418  12.836   0.395  0.1337 -0.0958 -0.0748
11676W        W26807  16.660  16.328  13.878 -0.0265 -0.0939 -0.2386
11677W        W26808  13.762   0.578  16.036 -0.4058  0.1773 -0.3550
11678W        W26809   9.393   9.231   2.109 -0.0871  0.2273  0.1476
11679W        W26810   5.180   6.399  14.714  0.0212  0.1566 -0.0173
11680W        W26811   3.831  15.589   4.905 -0.0820  0.0229  0.2085
11681W        W26812   8.247   4.983  12.173  0.3533 -0.1676  0.0560
11682W        W26813   2.909  11.495   4.867 -0.2620 -0.0135  0.3469
11683W        W26814  14.625  15.806  12.142  0.1021  0.5603 -0.2257
11684W        W26815   5.184   1.887  12.278 -0.0322 -0.2165  0.1019
11685W        W26816  18.233   2.900  11.958 -0.2040  0.0516 -0.2315
11686W        W26817  14.643  16.046  13.658 -0.1319  0.0752 -0.1043
11687W        W26818   9.685   4.390  15.497 -0.0697 -0.0355 -0.2850
11688W        W26819   0.468   8.645   4.265 -0.0442 -0.1184  0.0743
11689W        W26820   7.050  16.217  10.057 -0.0742 -0.1404  0.3008
11690W        W26821   9.985   3.677  12.656  0.0714  0.1115  0.0622
11691W        W26822   9.950   8.697  10.912 -0.2375 -0.0913 -0.1373
11692W        W26823  13.464  17.484  14.334 -0.0842  0.0831 -0.1975
11693W        W26824  15.413   1.079   2.729  0.2709 -0.0953 -0.0244
11694W        W26825   5.966   7.802  10.328  0.1051 -0.1584  0.1111
11695W        W26826   5.387  13.630  15.915 -0.2955  0.1589  0.5162
11696W        W26827  14.155  17.790  15.172  0.0404  0.0958 -0.4040
11697W        W26828  13.346   0.804  15.946  0.3782  0.0950 -0.2422
11698W        W26829   8.031  12.318   3.043 -0.1268  0.1713  0.1780
11699W        W26830   1.006  17.050  15.660  0.0240 -0.0460 -0.0247
11700W        W26831  11.175   1.418   2.405  0.0689  0.0153 -0.1489
11701W        W26832  15.317   3.048  14.994 -0.1401  0.2112  0.0737
11702W        W26833  10.317  15.615   0.470  0.2184  0.0129 -0.0547
11703W        W26834   5.586  11.337   0.783  0.0888 -0.3983 -0.0273
11704W        W26835   3.546  15.555  13.962 -0.0864  0.0935  0.0897
11705W        W26836  12.828   5.109  10.906  0.0361  0.2543 -0.2782
11706W        W26837  18.260   4.759   4.961  0.1911  0.0088  0.1868
11707W        W26838  14.991   0.472  15.550  0.0640 -0.1099  0.1910
11708W        W26839  13.266   2.694   4.530 -0.0087  0.1053  0.3661
11709W        W26840   4.243  15.124   0.686 -0.0546 -0.1687 -0.2893
11710W        W26841   3.714   9.532   3.199  0.0065 -0.1730  0.0727
11711W        W26842  12.291   5.106   2.789  0.1925 -0.1083 -0.3938
11712W        W26843  11.197  13.415  15.294  0.1557 -0.3211 -0.0329
11713W        W26844   5.644   0.919   2.058 -0.0681 -0.1213 -0.0582
11714W        W26845  13.017  10.890  14.715 -0.0246 -0.1951 -0.0307
11715W        W26846   3.960   1.560  11.977 -0.0964  0.1126 -0.0960
11716W        W26847  15.471   0.054   1.173  0.1896  0.0151 -0.1035
11717W        W26848   3.536   4.484   1.076 -0.1682  0.1268  0.1062
11718W        W26849   3.706  18.336  11.377 -0.1700 -0.0430  0.0255
11719W        W26850   9.601   8.028  15.281  0.1609 -0.0590  0.1625
11720W        W26851  11.883   2.781  11.629 -0.3356 -0.1397  0.4646
11721W        W26852   8.909  14.528  14.160  0.0559  0.1034 -0.2024
11722W        W26853   2.517   8.544  11.976 -0.1249  0.3631 -0.2239
11723W        W26854   6.013   8.735   6.248  0.1418 -0.0030  0.0027
11724W        W26855   2.517   5.723  16.005  0.2466  0.2221 -0.0099
11725W        W26856   9.723   3.748  15.907 -0.2990 -0.2773 -0.5755
11726W        W26857   7.374   8.958   0.261  0.2374 -0.0641  0.5161
11727W        W26858   8.584   6.121   1.228  0.1440 -0.0582 -0.1592
11728W        W26859   2.327   2.382  14.091  0.1072 -0.1002 -0.2827
11729W        W26860  10.272   7.592   1.527  0.0228 -0.2003  0.4294
11730W        W26861  15.963  18.095  11.420 -0.0535  0.0321  0.2633
11731W        W26862  16.730  12.352  14.728 -0.0973  0.1868  0.0493
11732W        W26863  13.885   8.599   0.613 -0.1006  0.0640  0.1118
11733W        W26864   2.347  16.376   2.154 -0.4614 -0.2116 -0.1055
11734W        W26865   8.337  13.539   2.330 -0.1930 -0.0910 -0.0401
11735W        W26866   8.926  10.407  12.289  0.0491 -0.0916 -0.0110
11736W        W26867  11.158   0.681  15.940  0.1077  0.0422  0.2591
11737W        W26868   8.564   5.412  14.101  0.0895 -0.3083  0.1569
11738W        W26869   0.163   4.919   3.777 -0.0341 -0.4545  0.0772
11739W        W26870   3.379   9.728  12.159 -0.1329 -0.4536 -0.2157
11740W        W26871  17.076  13.378   4.914  0.3866 -0.1195  0.1428
11741W        W26872  16.739  14.356   2.636 -0.0304 -0.0791  0.0064
11742W        W26873  16.765  10.564  15.554 -0.0620 -0.2716 -0.0086
11743W        W26874  12.220   8.354  14.879  0.0012  0.0494 -0.0924
11744W        W26875   2.532   5.014  11.270  0.1377 -0.2118  0.2071
11745W        W26876  16.871   0.144  15.396  0.2239  0.0214  0.0557
11746W        W26877   5.228  12.278  11.276 -0.0888  0.1257 -0.2687
11747W        W26878   1.314  11.003   0.494  0.1050  0.0517  0.0817
11748W        W26879   5.452  17.873   5.405 -0.1184  0.2199  0.0521
11749W        W26880  17.956  15.754   4.071 -0.1781  0.1925 -0.0972
11750W        W26881  16.232   2.197   5.123  0.2313 -0.0414  0.2138
11751W        W26882  13.325   5.092   5.182  0.2501  0.3154  0.2795
11752W        W26883  10.549   5.769  15.779  0.0300  0.0373  0.0962
11753W        W26884   5.951  11.960   3.868 -0.1500  0.0250 -0.1321
11754W        W26885   1.133   4.238   3.042 -0.1882 -0.3673 -0.1151
11755W        W26886  16.474   1.991   3.204  0.1154  0.0313  0.1449
11756W        W26887  18.130   4.736   1.290 -0.0002  0.2642 -0.0302
11757W        W26888  12.915   1.060  14.983  0.2446  0.2356  0.0705
11758W        W26889   1.972  14.463   2.823  0.0560  0.0865  0.2011
11759W        W26890   8.573   1.092  12.633 -0.2548  0.0263  0.0712
11760W        W26891  15.629  10.177   5.321 -0.0242  0.0979  0.2032
11761W        W26892   3.545  16.108  15.279 -0.2263  0.1708  0.0439
11762W        W26893   2.708   5.117   1.661  0.1716  0.0464 -0.0718
11763W        W26894  11.833   5.731   0.522  0.2476  0.1678  0.0835
11764W        W26895  12.485   1.754   2.424 -0.0262  0.1682  0.2581
11765W        W26896   2.539   6.762   2.325 -0.2914 -0.2924 -0.1912
11766W        W26897   3.745   4.828   4.571 -0.1032  0.1413 -0.0619
11767W        W26898  14.070   4.398  13.336 -0.2647 -0.1174 -0.2814
11768W        W26899  12.812  10.805  12.974 -0.0028 -0.1575  0.0036
11769W        W26900   0.847   5.097  13.054 -0.3310 -0.0548  0.1808
11770W        W26901  15.946   9.946  11.789 -0.0107  0.2277 -0.4154
11771W        W26902  18.458   5.149   1.374  0.1876  0.0402  0.1265
11772W        W26903   2.902   9.983  11.821 -0.2444  0.1708  0.2388
11773W        W26904  18.453   4.117   2.034 -0.1473 -0.1452  0.2374
11774W        W26905  11.157  16.530  12.796  0.3043 -0.2839  0.0492
11775W        W26906   0.947   6.179  12.895  0.1671  0.1529  0.2503
11776W        W26907  18.418  13.392  13.629 -0.0725 -0.1831  0.0537
11777W        W26908   1.562   5.943  15.425 -0.0446  0.0259 -0.0766
11778W        W26909   0.573   7.401  10.705 -0.0916  0.0337  0.1400
11779W        W26910   0.624   9.151   4.157  0.0433  0.1462  0.0350
11780W        W26911   8.345  13.381  15.472 -0.1365  0.4646  0.0789
11781W        W26912  13.710  13.715   2.583  0.3025 -0.0740 -0.2016
11782W        W26913   2.219  15.745   0.308 -0.0940 -0.1803 -0.0956
11783W        W26914  14.756  12.717   1.389 -0.0504 -0.1691 -0.1071
11784W        W26915   3.639   4.935  12.411 -0.2597 -0.0976 -0.3684
11785W        W26916   5.417  10.999  13.865 -0.3810 -0.0191 -0.0266
11786W        W26917  10.554   8.573  16.094 -0.1296 -0.0982  0.0200
11787W        W26918  13.554   0.473  12.251 -0.1744  0.3615 -0.0203
11788W        W26919  11.241  16.801   5.108  0.0058  0.2808  0.2710
11789W        W26920   3.382   5.523   1.576 -0.3119  0.2644 -0.1611
11790W        W26921  11.726  11.380   3.133 -0.2083 -0.0664 -0.1803
11791W        W26922  12.923  15.139   2.436 -0.3132  0.0202  0.1393
11792W        W26923  18.137  12.337   2.674  0.1487  0.1518  0.0362
11793W        W26924   6.405   3.341   1.923  0.1375  0.3158  0.2122
11794W        W26925  11.921  13.917  10.923  0.1845  0.1636 -0.1361
11795W        W26926   3.635  16.528   0.232 -0.1461 -0.2304 -0.0722
11796W        W26927   6.346   7.913   2.546  0.3448 -0.1262 -0.1026
11797W        W26928  15.580   9.450  15.178  0.0278  0.0826  0.2067
11798W        W26929   8.562  10.874   0.822 -0.1457 -0.0900  0.1838
11799W        W26930  13.055   1.700   4.513 -0.0913 -0.0456  0.0208
11800W        W26931   3.384  15.633  14.968 -0.0274 -0.0284  0.1217
11801W        W26932  17.782  14.216   2.371 -0.0443 -0.0485 -0.2459
11802W        W26933  14.391  11.643   4.714  0.0989  0.1611  0.1608
11803W        W26934   9.369   1.110  15.036 -0.0568  0.3153 -0.1375
11804W        W26935   2.840   2.878  13.473  0.3997  0.0170  0.0845
11805W        W26936   0.662   1.627   2.702  0.2296  0.2446 -0.1099
11806W        W26937  11.061   9.785   2.855 -0.1641  0.0778  0.2134
11807W        W26938  15.513  12.691   3.585  0.1298  0.4764  0.0532
11808W        W26939  15.390  16.720   2.551 -0.1971 -0.1224 -0.0062
11809W        W26940  13.496   4.498  13.195 -0.0935  0.1377 -0.0771
11810W        W26941  10.914  18.421  10.334  0.1624  0.1167  0.3260
11811W        W26942  17.484  11.067  16.019  0.4260  0.0010 -0.1045
11812W        W26943  17.531  10.719   4.555  0.0673  0.0504  0.1489
11813W        W26944  17.010   3.390   2.199 -0.4396  0.2154 -0.1331
11814W        W26945   9.845   1.464  11.014 -0.0893 -0.1204 -0.0483
11815W        W26946   4.576   1.076   1.404  0.0736  0.2669 -0.0286
11816W        W26947   8.053   3.799  15.349 -0.1307 -0.1930 -0.0604
11817W        W26948   9.314  11.096  13.628 -0.4818 -0.1563 -0.2858
11818W        W26949  15.217  14.076  10.656 -0.0783 -0.3170  0.0328
11819W        W26950   8.927   0.284  13.405 -0.2598  0.0129 -0.0732
11820W        W26951  17.363  11.852  15.194  0.4704  0.0313 -0.0896
11821W        W26952  16.815  14.584  12.077 -0.2266  0.1996  0.0467
11822W        W26953   4.334  11.493   2.940  0.0882  0.0412  0.0100
11823W        W26954  16.057   4.072   2.401 -0.1146  0.0060 -0.0619
11824W        W26955   2.278  16.172   3.039 -0.3150 -0.0016 -0.2322
11825W        W26956   6.166   0.141   2.141  0.1408 -0.0147 -0.2332
11826W        W26957  16.632  15.071   0.190 -0.0226 -0.1088  0.0901
11827W        W26958  17.497  14.168  11.854 -0.0867  0.0211 -0.0298
11828W        W26959  10.592  12.463   4.618  0.0100 -0.3619 -0.1609
11829W        W26960   0.062   9.175   1.723  0.0590 -0.1282  0.0329
11830W        W26961  13.143   9.513   1.010 -0.2034  0.0413 -0.4262
11831W        W26962   5.731   2.962   5.879  0.2243 -0.0441  0.1592
11832W        W26963   5.636  10.671   3.974 -0.1962  0.0546 -0.0633
11833W        W26964   2.711  17.546   0.043 -0.1329  0.3576  0.0741
11834W        W26965   2.257   9.474   3.730  0.0512 -0.0018 -0.2725
11835W        W26966  10.841   5.644   4.679  0.0655 -0.0011 -0.1565
11836W        W26967  16.788  14.324  12.938 -0.0236  0.1298  0.0151
11837W        W26968  17.484   2.231   3.310  0.1886  0.2761 -0.2585
11838W        W26969   2.466   9.147  12.321 -0.1319  0.0985 -0.3694
11839W        W26970   0.370   3.791  15.784 -0.2230 -0.0413 -0.1569
11840W        W26971   8.385   8.564  15.834 -0.2815 -0.0553  0.0908
11841W        W26972   4.726   3.074  10.038  0.1198  0.2971  0.0632
11842W        W26973   9.787   0.197  15.282 -0.0474 -0.0276  0.0034
11843W        W26974  10.402  11.785  11.593 -0.0143 -0.0436  0.3386
11844W        W26975  18.236   9.880   4.552  0.0273 -0.0581  0.2059
11845W        W26976   8.263   1.666   0.050  0.3690 -0.0695 -0.0098
11846W        W26977  18.038  17.041   4.475  0.1727 -0.0555  0.3051
11847W        W26978   6.093  15.184  15.299  0.2654  0.2268 -0.0395
11848W        W26979   7.891   1.141  13.787  0.0068  0.3845 -0.1378
11849W        W26980   9.628   0.615   0.598  0.2373 -0.0691 -0.1729
11850W        W26981   1.552   1.749  13.704  0.3152  0.1049 -0.1580
11851W        W26982   6.111   1.792  15.406  0.2365  0.1296  0.3476
11852W        W26983   9.004   5.714  12.803 -0.0369  0.3810 -0.2318
11853W        W26984  11.399  14.144   4.781 -0.1441 -0.1646 -0.0169
11854W        W26985  18.430   4.508   1.005 -0.1865  0.1671  0.2077
11855W        W26986   1.841  11.388  11.856  0.0997 -0.1746 -0.2619
11856W        W26987  14.807   5.249  14.650 -0.0903  0.2476 -0.1689
11857W        W26988   8.348  16.925   3.792 -0.2860 -0.0571  0.2939
11858W        W26989   0.946   1.107  15.877  0.3191  0.1291 -0.0586
11859W        W26990  17.113  17.195   3.655 -0.1504 -0.0124 -0.2033
11860W        W26991   7.722  16.889   1.814 -0.1012  0.0010 -0.0370
11861W        W26992  12.055   8.787   3.487  0.0912 -0.3152 -0.1008
11862W        W26993   1.351   0.463   0.972 -0.1609 -0.0339 -0.1785
11863W        W26994  17.957   4.762   2.736  0.1883  0.0139 -0.0093
11864W        W26995  13.591   5.351  11.462  0.2603  0.1045 -0.1146
11865W        W26996   6.448   0.055   4.072 -0.0877 -0.0372  0.1265
11866W        W26997   9.166   8.021   3.479  0.0444 -0.0245 -0.2582
11867W        W26998  15.659  13.637  11.788  0.0135  0.1763 -0.1549
11868W        W26999   2.147   7.607   2.704 -0.2498  0.3068 -0.2840
11869W        W27000   6.504   4.686  11.199  0.0432 -0.3672 -0.0118
11870W        W27001  16.427  16.701   1.180  0.1028 -0.1676  0.1660
11871W        W27002  16.024  16.324   2.115 -0.1672  0.1662 -0.1604
11872W        W27003   3.593  17.259   4.480 -0.1056  0.1449 -0.0933
11873W        W27004  16.702   6.999   2.824  0.3915 -0.1343  0.0851
11874W        W27005  10.077   4.988  14.873  0.0463  0.6471  0.0613
11875W        W27006  17.519  17.794   2.494 -0.0758 -0.1022  0.0402
11876W        W27007  11.774   5.709   4.029 -0.2994 -0.1181  0.0347
11877W        W27008  13.002  11.661   2.516 -0.4732  0.1358 -0.0616
11878W        W27009  16.634   4.556  10.957 -0.3426 -0.0619  0.1603
11879W        W27010  17.530   9.374   4.529  0.1050  0.0412 -0.0031
11880W        W27011   7.264   0.200   1.489 -0.0223 -0.2450 -0.0071
11881W        W27012   9.476   7.424   0.667  0.0554 -0.1483 -0.0417
11882W        W27013   1.148   4.362   0.131 -0.0132  0.0217 -0.1232
11883W        W27014  11.662   1.414  15.596  0.0472 -0.2789 -0.3612
11884W        W27015  14.321   8.539   4.590  0.1632  0.0681 -0.1370
11885W        W27016  12.084   4.978   0.782 -0.0724 -0.3160 -0.0090
11886W        W27017   0.598  17.705   3.854  0.0668  0.2902 -0.3237
11887W        W27018  13.302  10.526  13.713  0.2253  0.2544  0.0067
11888W        W27019  16.189  13.284  14.769 -0.1385  0.0714 -0.2824
11889W        W27020   0.163   1.755  12.344  0.0636 -0.0131 -0.2424
11890W        W27021  10.507  11.402  13.318 -0.1557  0.0693 -0.3429
11891W        W27022  14.925  13.358   0.390 -0.1023 -0.1694  0.1865
11892W        W27023   1.405  13.919  13.947 -0.2015 -0.1408  0.0067
11893W        W27024   9.526   4.291  12.356 -0.0660  0.0627  0.1479
11894W        W27025   6.777   6.830  11.923  0.0010  0.0664  0.2395
11895W        W27026   6.946   5.229   5.489  0.4550 -0.0271  0.1465
11896W        W27027   3.014   5.738   1.129  0.0441 -0.0332 -0.1786
11897W        W27028   0.004   3.750   1.493  0.0901 -0.1623  0.0300
11898W        W27029  10.074   6.190   0.333 -0.0888  0.0997 -0.1975
11899W        W27030  10.966   6.809  11.326  0.2451 -0.5002  0.0356
11900W        W27031  17.334  14.467  12.217 -0.0057  0.0160  0.3808
11901W        W27032  13.749  10.558  13.484  0.0896 -0.1734 -0.1844
11902W        W27033   6.784  11.133  13.574  0.1019 -0.2818 -0.2897
11903W        W27034   5.840  10.440  15.551 -0.2583 -0.0711 -0.0131
11904W        W27035  17.218  14.140  13.758  0.0702 -0.0586 -0.0699
11905W        W27036  12.934  13.092  12.440  0.0581 -0.0901 -0.4586
11906W        W27037  14.842  17.724  15.395 -0.0331  0.0555 -0.0343
11907W        W27038   1.910   1.718  10.575  0.0126 -0.1690  0.4071
11908W        W27039   2.573  15.151  14.754  0.1723  0.4543  0.0263
11909W        W27040   9.182   8.818   0.760  0.2661  0.1155  0.0607
11910W        W27041  10.415  17.390  12.563 -0.2341  0.1088 -0.4206
11911W        W27042   2.112   4.835  10.989 -0.0797  0.0894  0.0312
11912W        W27043   5.572   2.715  11.060 -0.0865 -0.1637  0.0893
11913W        W27044  15.032  16.501  11.527  0.3094  0.1542  0.1334
11914W        W27045   5.153   8.011   1.082 -0.1876 -0.0022 -0.3989
11915W        W27046   1.841   1.400  13.323 -0.1091 -0.0257 -0.2191
11916W        W27047  14.970   1.919   2.586 -0.0238  0.0296 -0.0506
11917W        W27048  11.387  14.104  11.469  0.3200 -0.1820  0.0943
11918W        W27049   4.737   3.900   5.239  0.1974 -0.1782 -0.0505
11919W        W27050  15.834  14.026  15.860  0.2650  0.2179 -0.0388
11920W        W27051   0.695  11.583  13.951 -0.2238  0.0992 -0.0694
11921W        W27052  10.865  14.648  13.464 -0.2372 -0.3748 -0.0805
11922W        W27053  12.027   0.502  12.710  0.0504 -0.2693  0.3209
11923W        W27054   2.763   3.703   5.160  0.0242  0.1964  0.2641
11924W        W27055  18.375  13.698   0.701  0.0618 -0.3716  0.3177
11925W        W27056  13.164  12.567   3.047  0.0473  0.2591 -0.2446
11926W        W27057   8.413  10.570   4.096  0.0851 -0.1197  0.0725
11927W        W27058   6.955  14.239   3.138  0.3729 -0.0976 -0.1366
11928W        W27059  16.353   8.104  11.604 -0.0630 -0.0181  0.0987
11929W        W27060  15.060  15.730  12.430 -0.1473  0.1663  0.0855
11930W        W27061   1.388  17.276  11.997 -0.3660  0.2091  0.0158
11931W        W27062  11.759  14.489   2.380 -0.2298  0.0149  0.0114
11932W        W27063   2.107   2.089  15.166  0.1263 -0.0866 -0.2967
11933W        W27064  18.375   0.302  14.206  0.0636 -0.1450 -0.0656
11934W        W27065   7.809  17.297  13.858 -0.1594  0.0803 -0.1733
11935W        W27066   5.272  14.126   3.343 -0.3929  0.2949 -0.0535
11936W        W27067  11.357  12.396  14.087 -0.0600 -0.0667  0.2509
11937W        W27068  17.394  17.831  13.974 -0.1161  0.0321  0.1697
11938W        W27069  12.843   7.494   4.552 -0.0792 -0.0198  0.0682
11939W        W27070   4.430   0.898   0.139  0.0460  0.4478 -0.0664
11940W        W27071  13.983   4.697  14.194 -0.2777 -0.0223 -0.0367
11941W        W27072  17.540   7.630   4.144 -0.0291 -0.2942 -0.0149
11942W        W27073   5.595   8.786  12.159  0.0364  0.1421 -0.3971
11943W        W27074  12.331  10.983  13.129  0.0067  0.2931 -0.0977
11944W        W27075  14.019   7.521   2.946 -0.0155 -0.0179 -0.2326
11945W        W27076   4.275   9.108  16.087  0.0079 -0.1895  0.3737
11946W        W27077   3.042  10.888  12.798  0.0650 -0.1756 -0.1842
11947W        W27078   2.502  13.829   3.260 -0.0387  0.1085 -0.1507
11948W        W27079   3.392   2.888  13.302  0.0836 -0.3515  0.1330
11949W        W27080   3.409  10.479   2.274  0.1792 -0.0338  0.0150
11950W        W27081  13.317  10.340   4.567  0.0483 -0.1241 -0.1493
11951W        W27082   7.113  12.686  12.865  0.3688  0.0438  0.0120
11952W        W27083   2.933   6.167   0.903 -0.2808  0.3697 -0.1897
11953W        W27084   3.269   9.125  14.994 -0.2239 -0.2738 -0.0856
11954W        W27085   6.413   1.155  13.266 -0.1335  0.0729 -0.2489
11955W        W27086   3.044  17.136  11.142  0.2706  0.1059  0.2229
11956W        W27087  13.623   6.207  12.119  0.0309  0.0132 -0.0434
11957W        W27088   1.967   5.945   3.705 -0.0909 -0.0491  0.1585
11958W        W27089   9.127   6.930  14.845  0.0341  0.3454  0.0397
11959W        W27090   0.491   3.908  10.963 -0.4059  0.0612 -0.1346
11960W        W27091   3.936   1.313   2.675 -0.0929 -0.0348 -0.2430
11961W        W27092  16.223  13.415   4.143  0.5342  0.0950 -0.3288
11962W        W27093   5.145  12.916  13.336 -0.4140  0.0446 -0.0475
11963W        W27094  13.515   9.815   3.350  0.2431 -0.2605  0.0525
11964W        W27095  10.777   6.729  10.843 -0.3634  0.2832  0.0595
11965W        W27096  15.126   0.220  14.658  0.2915 -0.0284 -0.0764
11966W        W27097   5.149   5.657   3.506  0.2217 -0.0226  0.2288
11967W        W27098   0.901  10.929  10.886  0.1863  0.0828 -0.1109
11968W        W27099   9.561  18.027  15.843  0.0262  0.2160 -0.1971
11969W        W27100  13.178  17.643   3.748 -0.2994  0.2666 -0.1884
11970W        W27101  16.953  12.210  15.747 -0.0892 -0.2216 -0.1586
11971W        W27102  14.723  12.860   5.093  0.0537  0.0368 -0.4280
11972W        W27103  13.058  16.613   3.960 -0.0176 -0.0588  0.1441
11973W        W27104   0.026  15.445  15.520  0.1885  0.0987  0.1279
11974W        W27105   5.006   7.994  10.901  0.1275  0.2511 -0.0472
11975W        W27106  15.082   2.848   3.210 -0.0304 -0.2214 -0.1640
11976W        W27107  11.567   0.128  12.692  0.0604  0.1894  0.2402
11977W        W27108   9.243  14.328   2.911  0.0057 -0.1167  0.3035
11978W        W27109   3.681   0.130  15.949  0.1297  0.2311 -0.0027
11979W        W27110   5.801  18.236  14.888  0.1723  0.3569 -0.1264
11980W        W27111   8.441  11.593   2.233  0.1375  0.0110  0.0693
11981W        W27112  10.609   6.447   2.768  0.0718 -0.1262  0.0751
11982W        W27113  17.768   2.475  11.146 -0.1453  0.0376 -0.1914
11983W        W27114  13.733  16.722  14.978  0.0983  0.1390  0.0832
11984W        W27115   5.882   6.560   0.870  0.0730  0.2738  0.0330
11985W        W27116  13.074   8.776   0.126  0.3909  0.2751  0.2118
11986W        W27117  16.118   9.340   5.875 -0.1701 -0.1779 -0.1114
11987W        W27118  15.465  18.263   4.642 -0.0823  0.1931 -0.0339
11988W        W27119  16.604   5.404   0.031 -0.0813  0.0220 -0.0225
11989W        W27120   0.888   2.376   1.337 -0.2054  0.2336  0.2067
11990W        W27121   1.439   1.503  13.022 -0.0333  0.2970  0.0847
11991W        W27122  17.484  13.735  10.724 -0.0682  0.0110  0.1176
11992W        W27123  13.712  14.596   2.147 -0.0526  0.2119 -0.2222
11993W        W27124  13.815   9.622   5.765 -0.2262 -0.2925 -0.4444
11994W        W27125  16.356   3.533  15.277 -0.0166  0.1059 -0.1396
11995W        W27126   9.088   1.315   5.480  0.2281  0.0413  0.1665
11996W        W27127   2.274   9.691  14.797  0.0228  0.0691 -0.1408
11997W        W27128   5.423   4.798  13.737  0.2537 -0.0990  0.3681
11998W        W27129  14.659   0.086  12.586 -0.1851 -0.0022 -0.2902
11999W        W27130   6.557   4.314   1.167  0.1189  0.0593  0.1382
12000W        W27131  16.373   7.233  14.659 -0.1085 -0.4008 -0.1947
12001W        W27132  15.589  10.748   2.075  0.0275 -0.0704 -0.0459
12002W        W27133  13.609   1.761  12.677 -0.0940  0.0199 -0.0567
12003W        W27134   7.943   2.483   4.266  0.0833  0.1049  0.2559
12004W        W27135  18.055   2.019  14.909  0.0301  0.0163  0.1002
12005W        W27136   4.971   7.119  15.827 -0.1653 -0.0319  0.1199
12006W        W27137  14.204  11.287  12.832  0.2670 -0.0187  0.2558
12007W        W27138  15.093  15.086  10.770  0.1510  0.2451 -0.1610
12008W        W27139   9.949  14.864   1.430  0.1032 -0.0598  0.3391
12009W        W27140  11.622   7.733  10.575  0.3067 -0.1604  0.1919
12010W        W27141  17.646   2.442  15.728  0.1216 -0.0490  0.0275
12011W        W27142   1.786  18.367  12.737 -0.0609  0.0789  0.1182
12012W        W27143   9.462   1.763  10.933  0.2751 -0.1941 -0.0313
12013W        W27144  15.021   6.249  16.089 -0.1722  0.1146 -0.4380
12014W        W27145  13.041  11.323  10.536 -0.2628  0.1863 -0.0181
12015W        W27146  15.657  17.768  13.803  0.3732 -0.1781  0.2552
12016W        W27147   1.474   9.868   0.537 -0.1518 -0.0129 -0.2816
12017W        W27148   4.223   5.516  15.688  0.2666 -0.2138  0.0522
12018W        W27149   7.396  17.677   4.055  0.2322 -0.2156  0.4079
12019W        W27150  12.093  17.857  13.587  0.3195 -0.0484  0.1352
12020W        W27151   9.999  13.098   1.793  0.0366 -0.1189  0.0027
12021W        W27152   4.795   8.890  15.351 -0.1080  0.0805 -0.2498
12022W        W27153  14.159  14.736   0.194  0.1436  0.1967 -0.1627
12023W        W27154   6.126   7.604  13.518 -0.1267  0.1467  0.0411
12024W        W27155   8.601  15.296  11.761 -0.0325 -0.0143  0.2462
12025W        W27156  13.592   2.522   0.108 -0.0129  0.0049 -0.2226
12026W        W27157  17.025  14.137  11.984 -0.1568 -0.3384 -0.0520
12027W        W27158   7.217  12.770  10.769  0.0848 -0.2889 -0.4154
12028W        W27159  18.464   3.537   3.188 -0.0409  0.1878  0.3983
12029W        W27160  17.923   1.683  11.514  0.0324 -0.0351 -0.0537
12030W        W27161  13.614   2.546   0.929 -0.5845 -0.4144  0.0308
12031W        W27162  17.091  18.237  15.918  0.0262  0.2970 -0.1697
12032W        W27163   3.606  10.853   4.575 -0.2673  0.0362 -0.1361
12033W        W27164   2.893  12.904   1.453 -0.0712 -0.3283  0.1810
12034W        W27165  10.686  15.714   3.857 -0.0730 -0.0172  0.1213
12035W        W27166   5.884   4.718   4.632  0.1355 -0.1465  0.3504
12036W        W27167   7.966  12.465   0.006  0.1498 -0.1092 -0.0098
12037W        W27168   3.858   9.270   9.940  0.0198 -0.2500 -0.2236
12038W        W27169   3.897  10.726  14.278 -0.1586 -0.0110 -0.1384
12039W        W27170   2.824  14.345  11.015  0.0390  0.6617 -0.1220
12040W        W27171   1.494  15.671   3.464 -0.0694  0.1572 -0.1263
12041W        W27172  12.484   9.306   4.069  0.1984  0.1837 -0.1243
12042W        W27173   6.042   5.672   5.428 -0.0122  0.0651 -0.0169
12043W        W27174  17.676  11.741   3.300  0.2330  0.2666 -0.1303
12044W        W27175   3.828   9.603   2.620  0.0491 -0.2294  0.3122
12045W        W27176   0.309  15.678   5.160  0.0511  0.0627  0.0034
12046W        W27177  11.451   5.909  13.428 -0.1339 -0.0203  0.2230
12047W        W27178   3.249   5.062   2.855 -0.1081  0.4318 -0.0480
12048W        W27179   4.961  15.500   3.750 -0.1398 -0.0673  0.1320
12049W        W27180   1.821   9.855   0.867  0.1959 -0.2530  0.2000
12050W        W27181  16.217   6.765   0.677  0.1155  0.3622  0.0762
12051W        W27182   2.496   6.647   4.151 -0.2445 -0.0882 -0.0053
12052W        W27183   6.092  10.941  14.809  0.2172  0.3090  0.1056
12053W        W27184   0.011   1.327  12.690  0.1683 -0.1135  0.0338
12054W        W27185  10.585  10.044  13.204  0.0056  0.2146 -0.1649
12055W        W27186  11.976  15.867  12.864  0.0038 -0.1378  0.0923
12056W        W27187   1.084   8.408  14.260 -0.1529 -0.0593  0.0509
12057W        W27188  10.642  14.989   2.513 -0.3369  0.2777 -0.1674
12058W        W27189   9.271   5.471   1.638 -0.0972 -0.1250  0.3018
12059W        W27190  14.005   9.933   4.532 -0.0365  0.0147  0.0544
12060W        W27191  13.385  17.668   3.306  0.1894  0.0494 -0.1549
12061W        W27192   5.169  10.293  15.693  0.0797  0.1131  0.0377
12062W        W27193   5.786  14.271  15.474 -0.0737 -0.0140 -0.1930
12063W        W27194  10.817   5.312  12.115 -0.2447 -0.0002 -0.1051
12064W        W27195   8.782   2.185   2.667 -0.0112 -0.1748  0.2288
12065W        W27196   2.894  17.539  10.866 -0.3645 -0.1473  0.3440
12066W        W27197   2.683   5.024   3.356  0.1397  0.0469  0.0987
12067W        W27198  14.184  11.983   5.981 -0.2701 -0.0820 -0.0875
12068W        W27199  10.569   6.421   5.206  0.0258  0.0855  0.3238
12069W        W27200   2.634   6.174   2.357  0.3061 -0.2788 -0.0588
12070W        W27201  16.237   8.512   4.801  0.1569  0.0363 -0.1481
12071W        W27202   2.469   0.245  15.271 -0.2187  0.0979  0.0011
12072W        W27203   7.376  13.437   2.744 -0.0365  0.1620 -0.2527
12073W        W27204   3.656   4.462  12.569 -0.0470  0.0337 -0.2176
12074W        W27205   2.782  18.001  12.982  0.0422  0.1846 -0.0849
12075W        W27206  17.711   1.807  13.280 -0.1217  0.2206  0.1082
12076W        W27207  17.648  14.364  15.832 -0.1370 -0.2214 -0.2809
12077W        W27208   3.145  15.195   3.015 -0.2565  0.3125  0.0491
12078W        W27209  16.400  13.954  15.447 -0.0641  0.0387  0.2728
12079W        W27210   9.554   6.114  14.797 -0.1797  0.1795 -0.0889
12080W        W27211  15.510   8.790  15.732  0.2916 -0.2524  0.3098
12081W        W27212   1.869   7.289   3.746 -0.0126 -0.1220  0.3714
12082W        W27213   6.492  14.738   1.424 -0.1769 -0.2459 -0.0802
12083W        W27214  17.128   8.730   1.591 -0.1503 -0.2166  0.2234
12084W        W27215   2.790   5.286   3.846  0.0975  0.0403  0.1526
12085W        W27216   2.659  12.759   0.642  0.2497 -0.1719  0.0106
12086W        W27217  15.741  14.887   4.488 -0.0821 -0.0084 -0.0376
12087W        W27218   9.730  12.256  12.117  0.2415  0.0241 -0.1279
12088W        W27219   1.479  11.345   4.970 -0.0600  0.2961  0.1296
12089W        W27220   8.755  12.969  14.419 -0.1068 -0.2818  0.1364
12090W        W27221  10.799   8.918  15.776 -0.1981 -0.2785  0.0205
12091W        W27222  10.800  11.564  10.640 -0.3032 -0.1856  0.1361
12092W        W27223  10.096  10.353  15.778  0.3356 -0.2521  0.1656
12093W        W27224  16.217   4.860   2.662  0.0301  0.0651  0.3886
12094W        W27225   3.444  15.149   9.933  0.4745 -0.0361 -0.1205
12095W        W27226   4.650  16.964  14.110  0.1095  0.2303  0.1421
12096W        W27227  10.736  17.625  12.212 -0.3306  0.1013 -0.2733
12097W        W27228   5.303   1.720   1.790  0.3787 -0.2180  0.0109
12098W        W27229   1.289  10.552  10.970 -0.1587 -0.1558 -0.0311
12099W        W27230  14.380   7.092   5.373 -0.2816 -0.1564 -0.2212
12100W        W27231  15.305  14.915   5.382  0.0467 -0.1706 -0.0487
12101W        W27232   7.523   6.834   1.245  0.2111 -0.0179  0.1839
12102W        W27233   6.779  14.921  12.751  0.1561 -0.0853  0.2505
12103W        W27234  18.298  12.821  12.985 -0.6060  0.0937  0.0653
12104W        W27235   1.892  12.935  13.116  0.0202  0.3527 -0.4615
12105W        W27236  11.262  10.605   3.992 -0.0095 -0.5308  0.0764
12106W        W27237   7.401  17.949   0.489  0.0321  0.0719 -0.0457
12107W        W27238  14.553  11.467   1.144 -0.0793 -0.1049  0.0514
12108W        W27239  11.197   8.056  10.461 -0.0044 -0.0433  0.0391
12109W        W27240   4.429  16.282  15.583  0.3946  0.1010 -0.0289
12110W        W27241  10.080  12.399   2.337  0.1794 -0.2452 -0.0286
12111W        W27242   8.474  12.649   5.892  0.1134  0.0915 -0.0595
12112W        W27243  11.026   8.416   5.209 -0.1835  0.1939  0.1601
12113W        W27244   9.047  10.445   3.693 -0.1184  0.5082  0.2343
12114W        W27245   1.386   7.678  12.126 -0.2404  0.0890  0.1615
12115W        W27246   6.756  10.823   2.416  0.1386 -0.1770  0.2994
12116W        W27247   2.576  15.684   0.734  0.1161 -0.0422 -0.1351
12117W        W27248   8.588  16.908  14.749 -0.0218 -0.1233  0.0111
12118W        W27249   1.684  18.093   2.574  0.1860 -0.4086 -0.0490
12119W        W27250  17.723  12.860  15.236 -0.0402  0.1829  0.0734
12120W        W27251   3.154   7.078   4.025  0.2209 -0.0353 -0.2599
12121W        W27252  16.037   0.380   1.169  0.1359  0.0156 -0.1938
12122W        W27253  13.527   8.951  10.617  0.2893 -0.6397 -0.0574
12123W        W27254  16.705   2.401   5.214 -0.2524 -0.0663 -0.1341
12124W        W27255   7.049   6.373   5.781 -0.0227 -0.1278  0.3470
12125W        W27256   0.436  16.233  14.336  0.1397 -0.0216  0.1608
12126W        W27257   6.597  11.400   0.391  0.4258  0.0979  0.0929
12127W        W27258   5.373   3.793  11.606 -0.1200  0.3641 -0.0589
12128W        W27259  10.049   6.481  14.698 -0.3331  0.3230 -0.0883
12129W        W27260  18.149  11.271  11.172  0.1119  0.2624  0.1468
12130W        W27261   6.863  12.976   5.362  0.2961  0.3388 -0.2434
12131W        W27262  11.238   1.412   0.611  0.1375 -0.1893 -0.0879
12132W        W27263   2.251   8.039  12.032 -0.0182  0.4933  0.2784
12133W        W27264  10.601   0.151   4.844  0.1876 -0.1832 -0.1774
12134W        W27265   9.236  11.144   4.255 -0.2906 -0.1771 -0.3634
12135W        W27266   6.276   1.467  12.114  0.1933  0.2121  0.1655
12136W        W27267   0.404   6.454   3.085  0.2593  0.2290  0.3269
12137W        W27268  11.149  18.212   3.609 -0.0988 -0.0146  0.0608
12138W        W27269  10.458   7.055  15.807  0.0973 -0.0129 -0.0558
12139W        W27270   0.176  12.846   0.170 -0.1266 -0.0272 -0.1652
12140W        W27271   6.649   8.718   3.914 -0.1846  0.0746 -0.1858
12141W        W27272  10.587  16.934   0.078 -0.0585  0.0834 -0.2227
12142W        W27273  12.814   1.794   5.539 -0.0433 -0.0401  0.0561
12143W        W27274  18.328   7.295   4.498 -0.0326  0.3805  0.0487
12144W        W27275   3.934   2.160  15.486 -0.0169  0.0860  0.0125
12145W        W27276  17.996  16.847   3.415 -0.1254 -0.0833  0.1490
12146W        W27277   1.220   7.270  14.262  0.1342 -0.5452  0.0052
12147W        W27278   3.166  17.223   2.339 -0.4037  0.2263  0.0593
12148W        W27279   2.645   9.006  15.911  0.0831  0.3991  0.1142
12149W        W27280   8.009   5.561   1.042 -0.0747 -0.2164 -0.0069
12150W        W27281  16.442  12.005   0.326 -0.2049  0.3228 -0.0545
12151W        W27282  17.979  11.943   3.618  0.0290  0.4384 -0.2019
12152W        W27283  14.472   0.189  11.146 -0.1655  0.0967 -0.0325
12153W        W27284  14.193  16.281   1.209  0.3412 -0.0218 -0.1368
12154W        W27285  10.141  10.527  12.081 -0.0696 -0.1237 -0.1636
12155W        W27286   7.120  15.513   2.327  0.0486  0.2192  0.0381
12156W        W27287   8.264  15.937   5.064 -0.0009 -0.3209  0.3396
12157W        W27288  11.555   2.325   2.485 -0.1314 -0.1011  0.1870
12158W        W27289   7.072   0.823   3.388  0.0479  0.0802 -0.1405
12159W        W27290  13.717  18.142  12.380  0.2411 -0.0748  0.0690
12160W        W27291   7.040   6.860  12.836  0.0745 -0.0745  0.1775
12161W        W27292   2.979   5.621  14.572 -0.0980  0.4147 -0.2094
12162W        W27293   9.625  17.865   2.427 -0.1047 -0.1565 -0.0388
12163W        W27294  18.430   4.841  15.268 -0.1571  0.3050  0.1551
12164W        W27295   9.171   8.904   3.769 -0.0997 -0.0641 -0.0475
12165W        W27296   6.289   6.795  15.898  0.3303  0.0031 -0.2222
12166W        W27297   2.224  14.067  15.030  0.0027 -0.2099  0.3146
12167W        W27298  11.999  15.178  11.712 -0.2953 -0.1829  0.1587
12168W        W27299   4.422   8.542  14.384 -0.0408 -0.0396 -0.0985
12169W        W27300  18.406  15.933   5.290  0.3443 -0.3195  0.0602
12170W        W27301   0.882   8.076   4.951 -0.1003  0.0375 -0.2109
12171W        W27302   2.192   0.793  10.796 -0.0998  0.3181 -0.3374
12172W        W27303   8.240   4.071   0.268  0.2074 -0.1098  0.0551
12173W        W27304  11.748   8.557  13.275  0.1972 -0.0090  0.0177
12174W        W27305   2.518  15.453  11.888 -0.0144 -0.0735 -0.2139
12175W        W27306  10.380   1.011   1.103 -0.1278 -0.0523 -0.3114
12176W        W27307   6.023  14.725   1.178 -0.0525  0.0214 -0.0219
12177W        W27308  10.934  15.211   2.115 -0.0461 -0.0144  0.2738
12178W        W27309  11.483   8.447  13.693 -0.1924 -0.0119 -0.1481
12179W        W27310   1.323   4.790  13.923  0.1699  0.0141  0.0699
12180W        W27311  17.836   7.333  13.068  0.1454 -0.1141 -0.0131
12181W        W27312  10.421   4.007  13.717 -0.0116  0.0693  0.2698
12182W        W27313  12.558   5.489   1.019  0.2863 -0.2208 -0.1994
12183W        W27314   7.190   3.632  12.921  0.1865  0.1155  0.0909
12184W        W27315   8.870  14.289   3.945 -0.3513  0.2636 -0.1745
12185W        W27316  17.357   4.193  13.243 -0.0699 -0.0322 -0.1210
12186W        W27317  11.413   5.517   2.773 -0.2882 -0.1462 -0.1058
12187W        W27318  16.269   9.466   2.119  0.2546 -0.2977  0.0997
12188W        W27319   3.395  13.023  14.447 -0.0491  0.0894 -0.1322
12189W        W27320  11.572  18.156  13.875 -0.2113  0.1557 -0.0437
12190W        W27321  18.153  13.784  13.892  0.0430  0.0027 -0.0531
12191W        W27322  17.595  18.170   3.754  0.0221 -0.0556 -0.1952
12192W        W27323   0.082   0.691   0.786 -0.0620  0.1026  0.1990
12193W        W27324  16.734   6.043  12.119 -0.0460  0.2197 -0.0914
12194W        W27325   7.973   3.167  11.170  0.2347 -0.2332 -0.1882
12195W        W27326  10.945   8.551   2.292 -0.1822 -0.1408 -0.0868
12196W        W27327   7.554  18.288  14.237 -0.0039 -0.2703  0.1266
12197W        W27328  10.749  10.689   0.407 -0.1170  0.1135 -0.1374
12198W        W27329   8.656   7.477   1.082  0.0419 -0.0371  0.0656
12199W        W27330   1.707   1.193  11.238 -0.0812 -0.0762 -0.1618
12200W        W27331  16.568   0.745   4.548  0.0254  0.1458 -0.0623
12201W        W27332   1.088  16.342  12.513 -0.0276 -0.0657 -0.0289
12202W        W27333  11.333  11.150  12.777 -0.0774 -0.0655 -0.1698
12203W        W27334  16.637  15.565  12.218  0.1004 -0.2163 -0.0625
12204W        W27335   8.487   1.278   2.984  0.1230  0.0594  0.0630
12205W        W27336  15.120   4.318   1.586  0.2520 -0.1535 -0.2093
12206W        W27337   2.149  11.254   6.333 -0.1885 -0.3854 -0.4532
12207W        W27338   1.987  14.998   2.964 -0.1209  0.1432  0.0650
12208W        W27339  13.274  14.721   2.383  0.1440  0.0920  0.1702
12209W        W27340  11.968   4.489  15.024  0.2255  0.2439 -0.0969
12210W        W27341  12.072   3.327   1.590  0.2386 -0.2065 -0.0415
12211W        W27342   0.391   5.295  14.911  0.0882 -0.1944 -0.1945
12212W        W27343   6.025   9.616   5.522  0.2184  0.0846  0.0507
12213W        W27344  13.891   4.821  15.461 -0.0970 -0.2357  0.0784
12214W        W27345   4.614  10.523   4.558  0.0689  0.0288  0.2268
12215W        W27346  16.597  12.137  11.959 -0.0683 -0.0887  0.0380
12216W        W27347   5.817   4.214   4.724  0.2771  0.3595 -0.0305
12217W        W27348   0.482  11.467   2.635  0.0883 -0.0748 -0.1676
12218W        W27349   6.912   6.992   4.590 -0.2009 -0.0479 -0.2981
12219W        W27350  16.020  14.983  13.204 -0.0968  0.4441  0.0297
12220W        W27351   7.601  15.382   2.417  0.0103  0.1165  0.2244
12221W        W27352   6.600   0.230   5.314  0.0503  0.0809 -0.0149
12222W        W27353  12.212   8.533   0.458 -0.0336  0.0669  0.1840
12223W        W27354   1.864  16.100  10.174  0.1278 -0.1407  0.2307
12224W        W27355  14.203   2.402   4.326  0.2722 -0.1011  0.2953
12225W        W27356  10.300  14.389   1.917  0.2594 -0.1182 -0.0847
12226W        W27357  17.566  13.327  14.662  0.0557 -0.2614  0.2126
12227W        W27358   4.789   0.686  12.591 -0.0573 -0.2003 -0.3330
12228W        W27359   3.844  11.783   2.140  0.0141 -0.0886  0.2516
12229W        W27360   4.166  14.848   1.504  0.0987 -0.1779 -0.1179
12230W        W27361   7.152   1.353   1.710 -0.2054  0.1773  0.2212
12231W        W27362  17.768  11.509   2.522 -0.1932 -0.1290  0.2739
12232W        W27363   0.689  14.267   3.546 -0.0477  0.1452  0.1111
12233W        W27364   4.092   6.162   1.110  0.2231 -0.0027 -0.1849
12234W        W27365  15.797   5.760  15.966  0.2708  0.1072  0.0406
12235W        W27366  17.157   0.291  14.265  0.1632 -0.1449  0.3770
12236W        W27367   8.108  13.872  13.240 -0.2323 -0.0665  0.1675
12237W        W27368  15.204  12.246  14.943  0.1963  0.2556  0.1255
12238W        W27369   5.141   6.848   4.556 -0.2596  0.1817  0.0975
12239W        W27370  12.686  14.785   4.913 -0.4127  0.1189 -0.4646
12240W        W27371   4.882  14.618  11.747  0.0505 -0.0451  0.1966
12241W        W27372  16.581  15.919   0.581  0.3321 -0.0716 -0.0293
12242W        W27373  14.657  17.876   9.652  0.0919 -0.1379  0.0457
12243W        W27374   6.074  15.690   1.461  0.0642 -0.1782 -0.1712
12244W        W27375   1.387   6.450   1.494  0.4972  0.0741  0.2221
12245W        W27376  17.237  11.439   4.026 -0.2523 -0.0619 -0.2472
12246W        W27377   1.167   8.995  15.245  0.1734 -0.3948  0.4346
12247W        W27378   5.659  10.695   6.086  0.2539 -0.1898  0.2310
12248W        W27379   1.223   6.544   3.395 -0.2145 -0.0398 -0.0062
12249W        W27380   8.782   3.880  14.605 -0.1107  0.0361  0.0427
12250W        W27381  15.323  10.217  12.949  0.0128 -0.6555  0.0260
12251W        W27382  16.449   3.758  15.721 -0.1001  0.3774  0.0835
12252W        W27383   8.073   1.611   0.865  0.2566 -0.2388  0.3767
12253W        W27384  17.464  15.681  12.777 -0.0576 -0.1071 -0.0151
12254W        W27385  12.929  10.496  14.402  0.0216 -0.3622 -0.1630
12255W        W27386   7.885  12.814  12.208 -0.0179 -0.0083  0.0825
12256W        W27387   9.066  14.375  15.572 -0.0199 -0.1332 -0.1307
12257W        W27388  14.421   6.581   1.543 -0.2220 -0.0172  0.0987
12258W        W27389   8.537   9.366   5.854 -0.0063 -0.3080  0.3236
12259W        W27390   2.924  14.276  11.902 -0.0705 -0.1602 -0.0699
12260W        W27391   9.516   5.482  13.706 -0.1871 -0.1005 -0.1767
12261W        W27392   3.540   2.488   4.226  0.1914 -0.3750 -0.0601
12262W        W27393   7.052   7.749  10.570 -0.1225  0.2899  0.2080
12263W        W27394   5.326   3.960   1.604 -0.1049 -0.1726 -0.1325
12264W        W27395   7.169   1.876   3.315 -0.0871  0.1736  0.1085
12265W        W27396   8.969  14.715   4.360  0.4135 -0.0179  0.1829
12266W        W27397   9.301   0.555  15.886 -0.2060  0.3426 -0.2677
12267W        W27398  12.460  17.453   1.025 -0.1767 -0.3429  0.2474
12268W        W27399  17.818   9.444   3.801 -0.2419  0.1048 -0.0900
12269W        W27400   0.817  18.169  11.198  0.2612  0.3642  0.4566
12270W        W27401   6.789   7.352   0.684  0.1455 -0.0350  0.2994
12271W        W27402  13.941   1.477  11.549  0.1421  0.1485  0.1922
12272W        W27403   1.883   4.093   0.604  0.0067 -0.0323 -0.0235
12273W        W27404  11.812  16.131  11.337 -0.1529 -0.2275 -0.2128
12274W        W27405   4.384   1.079  14.566 -0.3688  0.1091 -0.2927
12275W        W27406  11.111   4.779  13.682 -0.2367 -0.1304  0.0308
12276W        W27407   0.132   4.461   3.272 -0.2020 -0.0148  0.0849
12277W        W27408  17.432  11.525   4.588  0.2141 -0.1606  0.0401
12278W        W27409  17.917   7.353   5.575  0.0152 -0.1920  0.0115
12279W        W27410   0.084  12.320  12.832 -0.0683  0.1244  0.1592
12280W        W27411   0.864   0.085   2.936 -0.2848  0.1844 -0.1628
12281W        W27412   5.763  12.324  14.321 -0.0934  0.0188 -0.2339
12282W        W27413  14.946  16.767   1.306 -0.1994  0.1227  0.3606
12283W        W27414   3.305  11.193  14.972  0.0010 -0.0007  0.0678
12284W        W27415  14.702   1.578   0.718  0.0366 -0.1037 -0.0455
12285W        W27416  17.193  14.241   4.950  0.0152  0.2400  0.1190
12286W        W27417   7.787  10.420   4.247 -0.0102 -0.0709  0.0771
12287W        W27418  16.123   3.181  11.316 -0.3392  0.1435 -0.1308
12288W        W27419  13.005   1.428  14.620 -0.2852  0.2128 -0.1130
12289W        W27420   8.726   7.238   3.145  0.0619 -0.1321  0.2010
12290W        W27421   7.268   5.457  15.820 -0.2360 -0.0165 -0.0890
12291W        W27422  16.308  18.136  12.298 -0.2545 -0.1699 -0.0785
12292W        W27423   0.415   2.803  13.726  0.1016 -0.0307  0.1438
12293W        W27424  15.968   0.652  15.456  0.1777 -0.1750 -0.3363
12294W        W27425   8.395   5.163  13.670  0.0925 -0.1535 -0.3906
12295W        W27426  17.663   8.571   1.626  0.0505 -0.0296 -0.3656
12296W        W27427   1.756   4.584  14.055 -0.0871  0.0789 -0.0281
12297W        W27428   0.076  17.918   4.114  0.2817  0.2590 -0.0536
12298W        W27429   4.357  13.127   0.852  0.2016  0.1993 -0.0328
12299W        W27430   5.858   9.994  15.111 -0.0484 -0.0584 -0.0493
12300W        W27431  16.128   5.408  14.003 -0.1379  0.1175  0.1120
12301W        W27432   6.258   6.670   6.107 -0.2996  0.0503 -0.2937
12302W        W27433  12.065   9.942  14.437  0.0977 -0.1023 -0.0524
12303W        W27434   3.845   0.341   5.203 -0.3830 -0.1072  0.2182
12304W        W27435  12.446  10.840  15.617 -0.0795 -0.0653 -0.0021
12305W        W27436   5.507  10.956   5.642  0.1978 -0.2208 -0.0187
12306W        W27437  17.444  12.803   4.777  0.2903 -0.0967 -0.1629
12307W        W27438  17.661  12.493  11.390  0.0466  0.0137  0.1343
12308W        W27439   6.028   5.167   5.345 -0.2294  0.3207  0.1628
12309W        W27440  17.266  16.114  11.091  0.1192  0.1387  0.0579
12310W        W27441  10.315  14.684   2.312  0.0731 -0.1078 -0.2294
12311W        W27442   7.299  12.399   1.374 -0.0138 -0.0948  0.1434
12312W        W27443  14.936   2.728   4.072 -0.0281 -0.1686  0.0588
12313W        W27444   5.050   4.171   1.238  0.1019 -0.1177 -0.2854
12314W        W27445   8.987   7.435   5.192  0.1475 -0.3699 -0.0721
12315W        W27446  15.191  12.008  13.437 -0.0452 -0.1392 -0.0949
12316W        W27447  13.957   3.322   1.930  0.0396  0.1128  0.1094
12317W        W27448  10.917  15.358   3.519  0.0760 -0.0410  0.1349
12318W        W27449   7.484  11.524   0.006 -0.0545  0.3221 -0.1487
12319W        W27450  14.770  13.122  10.887 -0.2868 -0.1276 -0.0320
12320W        W27451   0.879   4.812   1.391 -0.0193  0.1035  0.0875
12321W        W27452  14.581   5.120   0.000  0.1546  0.0324 -0.1216
12322W        W27453  18.453   5.739   1.982 -0.0815  0.3381  0.0824
12323W        W27454  17.214  12.498   2.195  0.1564 -0.1883  0.0864
12324W        W27455   4.339   4.005  13.645 -0.0618 -0.4344  0.1781
12325W        W27456  13.952   4.851  13.151  0.2111 -0.0401  0.1884
12326W        W27457  12.305   2.066   2.022  0.0672 -0.2696  0.2084
12327W        W27458  12.386  11.250   3.058 -0.0340  0.0628 -0.0522
12328W        W27459  10.253  11.072   4.627  0.1715  0.1835 -0.0910
12329W        W27460   1.940   6.635  12.948 -0.0034  0.0654  0.2053
12330W        W27461  14.285  17.490  14.761 -0.3251  0.1348 -0.0526
12331W        W27462  10.800   6.183  14.028 -0.0354 -0.4320 -0.1384
12332W        W27463  15.397   1.957   2.849  0.1120 -0.0622 -0.1229
12333W        W27464   8.029   0.178   4.115 -0.2242  0.2066 -0.3893
12334W        W27465   9.306  12.107   4.406 -0.1234  0.0664  0.1017
12335W        W27466   5.313  10.864   0.552  0.0497 -0.1246 -0.1513
12336W        W27467  13.727   4.203  15.869 -0.2121  0.0218 -0.0621
12337W        W27468   5.743  11.873   2.872  0.0359  0.1282  0.0944
12338W        W27469   5.901   6.009  15.831 -0.1608  0.0817  0.1130
12339W        W27470   6.200  17.729   1.849  0.1326 -0.0706  0.1142
12340W        W27471   6.128   9.935  12.733  0.0793 -0.3562  0.0103
12341W        W27472   5.900   0.698  12.990  0.0161  0.0676  0.1998
12342W        W27473   3.586   4.141  14.509  0.0970 -0.0100  0.2709
12343W        W27474   4.167   4.568   3.369  0.1741 -0.3150 -0.3834
12344W        W27475  11.506  17.067   3.021 -0.2022  0.1235  0.0386
12345W        W27476  17.751   4.605   1.788 -0.1746  0.0769  0.4380
12346W        W27477  14.336   1.106   4.237 -0.4150 -0.3764 -0.1507
12347W        W27478   0.465   3.290  13.833  0.0754 -0.3382  0.1427
12348W        W27479  18.225  16.385   1.060 -0.1951  0.1698  0.1252
12349W        W27480  17.378   6.351   5.228 -0.2820  0.0269 -0.0856
12350W        W27481   3.465   7.600  13.144  0.1178  0.0144 -0.1000
12351W        W27482   9.777  13.636  12.639  0.1747 -0.0788  0.0800
12352W        W27483  13.865   8.747  12.262  0.0218 -0.1817 -0.1728
12353W        W27484   8.627  15.913   1.974  0.1652  0.1399  0.1081
12354W        W27485  17.612  11.021   2.327 -0.0566 -0.0241 -0.1525
12355W        W27486   5.343  14.203  15.701 -0.1151  0.1302  0.0520
12356W        W27487  12.384  13.280   2.850  0.1267 -0.1545  0.1128
12357W        W27488  12.974   3.499  13.736 -0.2568  0.0091 -0.2297
12358W        W27489   6.967  12.607   3.042  0.1608  0.1594  0.3013
12359W        W27490  11.983  10.200  10.194 -0.0924 -0.0355  0.1433
12360W        W27491  11.337  14.959  14.839  0.2465  0.3032 -0.3016
12361W        W27492   8.936   2.438   1.090  0.2127  0.1605  0.4371
12362W        W27493   4.330  15.087  13.086 -0.5620  0.0974 -0.1351
12363W        W27494   2.246   1.053   5.021  0.0357 -0.0204 -0.3247
12364W        W27495  13.551  13.438   3.617  0.3037 -0.1499  0.1486
12365W        W27496  12.225   1.415   0.916 -0.0869 -0.2932  0.0562
12366W        W27497   9.888  12.824  14.922  0.1156  0.2720 -0.0699
12367W        W27498  17.141   9.694   2.571 -0.0450 -0.2062  0.3169
12368W        W27499  15.207   7.934  13.858 -0.1184 -0.1585  0.3027
12369W        W27500   5.781   4.195  15.164  0.0450  0.1010  0.1617
12370W        W27501   2.673  14.983   3.640 -0.0949  0.0796 -0.1530
12371W        W27502  11.252   2.222  16.050 -0.1350  0.2991 -0.0632
12372W        W27503   1.140   6.947   4.281 -0.0359 -0.0595  0.0846
12373W        W27504  10.449   8.093  15.251  0.2266  0.0160  0.3752
12374W        W27505   6.741  12.482  10.640  0.2329 -0.1388 -0.3555
12375W        W27506   2.759   2.082   0.090 -0.1029 -0.1220  0.0686
12376W        W27507   7.000  13.879  15.507  0.0261  0.0157 -0.1562
12377W        W27508  10.988   2.765  11.448  0.3532 -0.0340 -0.3898
12378W        W27509   4.544  11.123   4.547 -0.0827  0.0504 -0.1610
12379W        W27510   7.011   0.895   1.939 -0.0842 -0.1776 -0.0823
12380W        W27511   9.250  18.369   1.607  0.1931  0.1832 -0.4741
12381W        W27512  11.770  12.023  14.203 -0.1503  0.2192  0.0953
12382W        W27513   3.868  13.290   5.446  0.1002 -0.2889  0.2114
12383W        W27514   9.092   8.245   2.998 -0.1304 -0.2481 -0.0579
12384W        W27515  15.472   3.485   3.720  0.1035  0.0189 -0.1185
12385W        W27516   3.946   4.984  10.943 -0.1085 -0.0378 -0.2668
12386W        W27517  15.283  16.280   3.099 -0.1796 -0.0902 -0.0157
12387W        W27518   6.199   8.511   1.348 -0.1017 -0.2787 -0.0138
12388W        W27519  13.678   5.504  14.726 -0.2191  0.1458  0.3302
12389W        W27520  11.982  18.022  15.775  0.0562  0.1807 -0.2904
12390W        W27521  17.229  10.500  13.982 -0.0182 -0.3313  0.1684
12391W        W27522   6.892   8.265  15.171  0.2443  0.1770 -0.4180
12392W        W27523   3.231  15.170  10.508 -0.0160 -0.0116  0.0388
12393W        W27524  16.923   6.944  12.931 -0.2125  0.0850  0.0369
12394W        W27525  13.460   9.441  14.287 -0.0250  0.0546  0.0143
12395W        W27526   1.867  10.592  15.878  0.0229 -0.0737 -0.0523
12396W        W27527   2.527   8.987   1.572  0.0108 -0.0230 -0.2583
12397W        W27528  14.237  10.652   3.095  0.0290  0.0460 -0.1442
12398W        W27529  14.525   3.461  15.534  0.0454 -0.3156 -0.1220
12399W        W27530   9.401  14.452   0.968 -0.0141  0.0211 -0.0343
12400W        W27531  13.168  14.022  15.730 -0.0403 -0.1646  0.1095
12401W        W27532   8.221  10.548   0.798 -0.3021  0.0068  0.1168
12402W        W27533   4.595   0.560  15.797  0.0835  0.2209 -0.3525
12403W        W27534   7.733   2.495   5.105  0.0590 -0.0307 -0.0337
12404W        W27535  15.460   0.600   5.296  0.1437 -0.2454  0.2254
12405W        W27536   5.022  13.857  15.632  0.1488  0.1251  0.1516
12406W        W27537   3.318   2.546   2.550  0.2150  0.1875 -0.2559
12407W        W27538   4.866   8.548   1.580  0.1174 -0.2070  0.0441
12408W        W27539   3.268   5.235   3.428  0.0573  0.1725  0.0985
12409W        W27540   5.774   1.115  15.124  0.0864  0.1692  0.2609
12410W        W27541   1.243  12.659   4.756 -0.0216 -0.0027  0.0927
12411W        W27542   0.128  11.958   4.998 -0.6306 -0.2777  0.3730
12412W        W27543   1.400  18.323  14.520  0.1070  0.1780  0.0299
12413W        W27544   5.764   2.808  13.479 -0.0484 -0.1463  0.0858
12414W        W27545   4.970  12.733   4.104  0.1154 -0.3747  0.1052
12415W        W27546   9.304   1.117  13.075 -0.0339  0.0493  0.3292
12416W        W27547  16.817   3.536   1.224 -0.0895 -0.3350  0.0840
12417W        W27548  17.637  13.548   5.235 -0.2634 -0.2470  0.2193
12418W        W27549   0.887  12.831   0.555  0.1994 -0.4353  0.2402
12419W        W27550  12.359   7.296   4.515 -0.1264 -0.0558 -0.1182
12420W        W27551  17.324  13.935   4.199 -0.4861 -0.2174  0.3675
12421W        W27552  11.351   3.072  13.554 -0.2961  0.0441 -0.1695
12422W        W27553   2.847  10.469   2.174 -0.0556 -0.0369 -0.0440
12423W        W27554   9.249   1.409  14.639 -0.2502  0.2276  0.0068
12424W        W27555  15.507  15.019   4.044 -0.0329  0.0541  0.2428
12425W        W27556  11.828  16.693   2.446  0.1849  0.1433 -0.2318
12426W        W27557  15.870   1.722  11.743  0.1188  0.2674 -0.0702
12427W        W27558   1.251  11.016  13.901 -0.1057 -0.2593  0.2647
12428W        W27559  18.456   7.012  15.234  0.0043  0.0748 -0.1136
12429W        W27560   9.845   7.762   6.291  0.0040 -0.0151 -0.2607
12430W        W27561  14.972  15.463   1.098 -0.0256 -0.1942  0.1535
12431W        W27562  14.799  15.278  14.892 -0.0749 -0.2783 -0.1192
12432W        W27563   3.486  13.355   4.000  0.0582  0.1240  0.2023
12433W        W27564  10.553  16.186  12.209 -0.0872 -0.2277  0.0126
12434W        W27565  10.348   7.798   2.509  0.1174 -0.1320 -0.4392
12435W        W27566   3.018   0.595   3.417  0.0041  0.0759  0.0389
12436W        W27567  17.617  10.866   1.013  0.2651 -0.0674  0.2445
12437W        W27568   4.603  14.517  14.218 -0.1133  0.1339  0.0386
12438W        W27569   8.763   5.998  13.102  0.1619  0.4428  0.0292
12439W        W27570   6.893  17.977   2.488 -0.0680  0.2705 -0.2235
12440W        W27571   7.671   8.398   1.897 -0.1917 -0.0403 -0.1474
12441W        W27572   1.580   8.939   0.967  0.1661  0.4748  0.1459
12442W        W27573   5.062   7.922  10.359  0.1841  0.4082 -0.0875
12443W        W27574   0.560   6.475  15.825 -0.0033 -0.0093 -0.0819
12444W        W27575  16.873  10.150   4.930 -0.0631 -0.1263  0.0630
12445W        W27576   6.485  16.713   3.440 -0.1292  0.0639  0.1188
12446W        W27577   4.487  13.581  13.338 -0.1427 -0.0080  0.1927
12447W        W27578  13.720  16.821   5.133 -0.2140  0.0036  0.0403
12448W        W27579  14.180   4.099  11.241 -0.0553 -0.0096  0.0855
12449W        W27580   4.237  15.470  11.843  0.0740 -0.0668 -0.1060
12450W        W27581   9.647   5.370  10.507 -0.1324  0.1398 -0.0853
12451W        W27582  10.493   5.959  14.463  0.0251 -0.0887  0.2027
12452W        W27583  12.528   6.118   0.029  0.2419 -0.0449 -0.1304
12453W        W27584   9.532  16.762  11.870  0.4449  0.2951  0.0400
12454W        W27585   5.130  12.054  12.885  0.1373  0.0321  0.2243
12455W        W27586  16.845  16.077  12.204 -0.0773 -0.0499  0.1741
12456W        W27587   6.330  16.587   1.485  0.1702 -0.0520 -0.1541
12457W        W27588   8.808  17.853   2.042  0.1105  0.0525  0.0659
12458W        W27589  16.997   1.426   4.915 -0.2428 -0.1230 -0.0629
12459W        W27590  12.618   1.143   5.068  0.3011 -0.0241  0.1607
12460W        W27591  17.159  16.573  10.981 -0.1426 -0.0858  0.0843
12461W        W27592   4.216  15.017  11.646 -0.2193  0.0064  0.2424
12462W        W27593  13.279  17.959   2.340 -0.1401  0.1307  0.0935
12463W        W27594  10.842  11.854  14.606 -0.0190  0.0395 -0.0791
12464W        W27595   3.481   3.352  13.428 -0.0941 -0.1118  0.0174
12465W        W27596   1.318  10.571  14.148  0.2972 -0.0845 -0.0698
12466W        W27597   3.437  16.045  13.875  0.1030 -0.2045 -0.0906
12467W        W27598   6.335   5.671   3.446 -0.3707  0.0007 -0.1118
12468W        W27599   0.498  14.340  15.184 -0.0329 -0.0014  0.2977
12469W        W27600   5.921   5.681   3.195  0.1453  0.3233 -0.4493
12470W        W27601   5.180  12.802  11.251 -0.0743  0.3854  0.2303
12471W        W27602  16.907  16.138   1.826 -0.1559  0.1936 -0.0504
12472W        W27603   7.583  13.445  11.023 -0.0020 -0.1702  0.0179
12473W        W27604  17.908   5.039   4.270  0.2773  0.0657  0.0662
12474W        W27605   0.023   3.677   4.410  0.3205  0.0001  0.1202
12475W        W27606  17.847  18.220  11.138  0.1894 -0.1139 -0.1055
12476W        W27607  11.067   2.400  12.233  0.0091 -0.0894 -0.0218
12477W        W27608   3.192   5.517  13.269 -0.1840  0.3427  0.0322
12478W        W27609   8.665  16.727   1.336  0.0483 -0.1447  0.3069
12479W        W27610   6.382  13.432   2.560 -0.0492  0.2743 -0.2134
12480W        W27611  12.892   0.258   5.398 -0.1896 -0.3393  0.2645
12481W        W27612  15.193   6.940  14.062  0.0747  0.2056 -0.1353
12482W        W27613   9.502  11.409  11.462  0.1059 -0.1440  0.2219
12483W        W27614  13.390  13.044   3.267 -0.4464  0.1914  0.1783
12484W        W27615   1.151   4.986  12.617 -0.0762  0.1737 -0.1129
12485W        W27616   6.185   3.287   0.592 -0.0944 -0.2278  0.2364
12486W        W27617   7.360  10.135   0.323  0.1185  0.2051 -0.0146
12487W        W27618  15.863   2.790  15.611 -0.0956  0.2350  0.2912
12488W        W27619   7.685  13.153   0.450  0.1429 -0.3058 -0.3875
12489W        W27620  16.883   9.711   5.468  0.3963  0.0309 -0.0773
12490W        W27621  11.779   5.311   3.621 -0.1128 -0.1693  0.1758
12491W        W27622   5.746  11.820   0.668 -0.2146 -0.4405 -0.2175
12492W        W27623  14.063  12.355  12.799  0.1228  0.2089  0.2684
12493W        W27624   8.144  13.368   0.120  0.1650  0.1589  0.1691
12494W        W27625   4.341   3.287  13.700  0.1367 -0.2764  0.0643
12495W        W27626   0.447   6.063   5.172 -0.2221  0.1496  0.0534
12496W        W27627   8.862   5.440   2.721  0.1095 -0.0302  0.0316
12497W        W27628   5.289   0.676   0.563  0.4715 -0.1536  0.0064
12498W        W27629   9.568  17.973   1.025  0.0978  0.0105  0.0236
12499W        W27630  14.582  17.671   4.645 -0.1236 -0.2407  0.0088
12500W        W27631  13.914   6.577   1.712  0.4180 -0.3085  0.0060
12501W        W27632   7.577   1.285   3.522 -0.2164 -0.2332 -0.0455
12502W        W27633   4.516   2.104  12.496 -0.0840 -0.0573 -0.1132
12503W        W27634  12.843  13.778  12.539  0.2484  0.2411  0.2904
12504W        W27635   7.775   4.176   0.459  0.3155 -0.1172  0.1476
12505W        W27636  16.922   9.729   3.559  0.0097  0.1617  0.3582
12506W        W27637   0.726   6.176  12.417  0.4345 -0.1836 -0.1024
12507W        W27638   8.443   1.713   2.832 -0.3856  0.0480 -0.0085
12508W        W27639   5.644   3.243  15.290  0.0004  0.0385 -0.0874
12509W        W27640   2.498  12.303   2.198  0.1047 -0.2593 -0.0904
12510W        W27641   9.996  14.478  16.061 -0.0931  0.1109 -0.2970
12511W        W27642   3.004   5.642  15.168 -0.1135 -0.1438  0.7088
12512W        W27643  13.850  11.237   1.904  0.2718 -0.4149 -0.3018
12513W        W27644  18.159  17.011  11.668  0.1889  0.2876  0.0909
12514W        W27645  16.021   2.135   3.952 -0.3137 -0.1800 -0.0724
12515W        W27646  12.505  12.011   0.354  0.1065  0.1581 -0.0165
12516W        W27647  15.354   3.054  11.888 -0.1314 -0.0658 -0.2284
12517W        W27648  13.430  14.416   0.387 -0.0841  0.1773  0.2159
12518W        W27649   8.139  12.194  11.434 -0.0008 -0.0104 -0.0440
12519W        W27650  14.514   3.165  15.059  0.1277  0.1920  0.0680
12520W        W27651  15.707  14.687   1.320 -0.1130 -0.1686  0.0565
12521W        W27652  11.646   5.332   4.405  0.2811  0.0280  0.4528
12522W        W27653  14.513  15.681   2.707  0.2313 -0.0323  0.3509
12523W        W27654  18.066   1.090  14.525  0.1050 -0.0088  0.0964
12524W        W27655   9.449   7.224   4.650 -0.2754 -0.4369 -0.0133
12525W        W27656   5.820  12.602   0.222  0.1096  0.2361 -0.1750
12526W        W27657  10.134   9.542   2.908 -0.0289 -0.1130  0.1747
12527W        W27658   6.256  10.818  15.465  0.1773  0.1356 -0.3309
12528W        W27659  15.105   5.966  14.174  0.1628  0.1076 -0.0578
12529W        W27660   2.166   7.317  12.204  0.1062 -0.2214 -0.0963
12530W        W27661  11.123  15.624   4.106 -0.1580  0.0342 -0.2169
12531W        W27662  12.546   6.315   4.822 -0.0920 -0.0396 -0.2278
12532W        W27663   0.099  14.233   1.422 -0.1596  0.1098  0.2788
12533W        W27664   4.628   9.182   4.924 -0.0004 -0.1297 -0.0323
12534W        W27665  17.183   4.627   4.760 -0.1069  0.1672 -0.3782
12535W        W27666  13.112   7.957  14.709 -0.1171 -0.1222  0.0447
12536W        W27667  18.452   3.991  13.419  0.3138 -0.1927 -0.1581
12537W        W27668   0.684  13.256   0.158  0.0926 -0.2905 -0.1991
12538W        W27669   9.080  17.398  14.210  0.0085 -0.1484  0.0224
12539W        W27670  16.269  17.955   0.368 -0.0430  0.0309 -0.2782
12540W        W27671  12.861  14.602   0.295 -0.0775 -0.1423 -0.0340
12541W        W27672   5.675  14.058  11.182  0.0982 -0.1553 -0.0746
12542W        W27673   4.513  12.260   4.988  0.3262 -0.3214 -0.1346
12543W        W27674   5.449  12.061   1.633  0.0863 -0.0615  0.2908
12544W        W27675   2.361  14.804   3.929 -0.1477  0.0554 -0.3380
12545W        W27676  16.413  15.752   4.007 -0.1633  0.2253 -0.0414
12546W        W27677  13.566   9.522  12.294  0.0983  0.0652 -0.0163
12547W        W27678  15.163  11.257   4.461  0.2072 -0.2373  0.0305
12548W        W27679  11.139   3.565  13.612  0.2187  0.0992 -0.0344
12549W        W27680  11.257  11.449  14.656  0.1932 -0.3309  0.0881
12550W        W27681  11.531  13.701   0.718  0.2922 -0.1944  0.2746
12551W        W27682  10.800  18.067  12.685  0.2709  0.2921  0.1026
12552W        W27683   2.619   8.199  12.754 -0.2454  0.2472  0.2880
12553W        W27684   0.153  15.833  15.073  0.1548 -0.3220 -0.0033
12554W        W27685   7.731  12.156  12.067 -0.0174 -0.0403 -0.3549
12555W        W27686   1.548   6.273   3.963  0.3683 -0.1926  0.2117
12556W        W27687   1.342   0.984   2.017  0.2386  0.2472  0.1205
12557W        W27688  17.266   9.763   4.432 -0.1436 -0.0342 -0.1619
12558W        W27689   5.764   2.910   4.532 -0.3590 -0.0879 -0.0362
12559W        W27690  15.298  11.430   5.700  0.0893  0.0347  0.0273
12560W        W27691  18.417   6.547  15.462  0.1011 -0.3668  0.0688
12561W        W27692  18.484  10.556   0.752 -0.0244 -0.0721  0.1701
12562W        W27693   8.635   0.313   0.298  0.0954 -0.1485  0.1461
12563W        W27694   7.148   3.508   2.491  0.2276 -0.3067 -0.0617
12564W        W27695  17.370   4.218   1.764  0.0163 -0.2700  0.0418
12565W        W27696  17.019   5.668   2.085  0.2822  0.2510  0.2323
12566W        W27697  11.146   7.049   2.584 -0.1925 -0.1132 -0.1289
12567W        W27698   9.105   0.599   3.563  0.1528  0.1193  0.0625
12568W        W27699   2.725  14.230   1.182 -0.0382  0.0824 -0.2174
12569W        W27700   8.619   6.533   5.463  0.1964  0.2340 -0.0061
12570W        W27701  18.170   0.942   1.161 -0.0890  0.0417  0.1265
12571W        W27702  13.552   2.634   1.859  0.1418  0.1997  0.0102
12572W        W27703   1.434   2.831   1.778 -0.2524  0.1454 -0.2560
12573W        W27704  12.149  14.742  11.131 -0.3331 -0.2901 -0.0806
12574W        W27705  10.021   7.378   3.202  0.0583  0.0663  0.0187
12575W        W27706  17.546   0.598   4.478 -0.4670  0.0218 -0.1497
12576W        W27707   6.136   4.274   4.384  0.0664 -0.1579 -0.3875
12577W        W27708  15.171  16.129   2.476  0.1082  0.1674  0.2789
12578W        W27709  15.134  13.308   3.911  0.1048 -0.0158 -0.1656
12579W        W27710   1.746  13.591  10.995 -0.0787 -0.0156 -0.1498
12580W        W27711   8.753   9.936   0.779 -0.0003 -0.1827  0.0526
12581W        W27712   5.795   9.640   6.010 -0.3249  0.2183 -0.0147
12582W        W27713   9.249  11.675  11.879 -0.0670  0.0242 -0.3007
12583W        W27714   6.705   9.869   0.901  0.0769 -0.3755  0.0564
12584W        W27715  16.819  10.801  12.455  0.0394  0.0044  0.3179
12585W        W27716  12.924  11.606   5.425  0.1682  0.2327 -0.3324
12586W        W27717  17.062  10.960   3.171 -0.3732 -0.0582  0.0189
12587W        W27718   8.765   0.647  15.912  0.1792  0.4185 -0.0513
12588W        W27719   3.273  12.429   3.727 -0.2808  0.0362  0.3938
12589W        W27720  12.046  10.505   2.012 -0.0824  0.0247  0.0784
12590W        W27721   3.482   5.066   5.755 -0.1701 -0.2424 -0.0766
12591W        W27722   3.488  13.085  11.508  0.0821  0.1647  0.1063
12592W        W27723  15.343  16.094  14.205 -0.2281 -0.3957  0.1270
12593W        W27724   0.028  13.026  15.064  0.0519  0.0950 -0.0277
12594W        W27725   1.851  18.267   4.862  0.0207  0.1460  0.1700
12595W        W27726   0.955   9.238   0.200  0.3822 -0.0536 -0.0181
12596W        W27727   5.687  17.649  10.645  0.2850  0.0852  0.1612
12597W        W27728  17.621   7.459   3.271  0.0542 -0.2561  0.0314
12598W        W27729   2.379  16.669   0.600  0.3985  0.1100  0.1944
12599W        W27730  13.162  11.593  11.142 -0.0722  0.2109  0.0201
12600W        W27731   5.089   2.263   5.235 -0.1153  0.0262 -0.2589
12601W        W27732   1.862   6.478   2.959  0.1329 -0.0088  0.2620
12602W        W27733   4.030   2.426   5.188 -0.1027 -0.0652 -0.2118
12603W        W27734   6.927   8.970  13.760  0.1259  0.3296  0.2557
12604W        W27735   6.213  18.227   1.832 -0.1614 -0.1180 -0.0158
12605W        W27736  11.213  14.681   1.807 -0.0091 -0.2954  0.2506
12606W        W27737  16.255   1.744  14.132  0.0338  0.1373 -0.0710
12607W        W27738   9.900   4.001  11.389 -0.3079  0.0274  0.3743
12608W        W27739   3.002  14.335  15.972  0.1153 -0.2562  0.1040
12609W        W27740  12.690   4.806  11.924 -0.1075 -0.2714 -0.1172
12610W        W27741   5.158  13.988   0.026  0.0564  0.1624 -0.3289
12611W        W27742   2.068   1.564  13.797 -0.2246  0.5141 -0.3473
12612W        W27743   0.251   2.984   0.968  0.0838 -0.0797  0.0835
12613W        W27744   1.263   9.487   3.678 -0.0733  0.2506  0.0070
12614W        W27745   6.866   6.942  16.014 -0.2345  0.0379  0.2617
12615W        W27746   9.145   9.716  11.666 -0.1260 -0.1884  0.2231
12616W        W27747   0.607   7.472  11.880 -0.2899 -0.1425 -0.3981
12617W        W27748  15.095  12.690  10.991  0.0361 -0.0425  0.0907
12618W        W27749   8.463   6.133   3.787  0.0594 -0.2755  0.0300
12619W        W27750   6.366   7.058   2.178 -0.2360 -0.2886 -0.0595
12620W        W27751  15.275  16.118  12.196 -0.3265  0.2550 -0.1265
12621W        W27752   5.105  16.411  12.454  0.0778 -0.1099  0.1297
12622W        W27753   7.096   9.208  15.989  0.0998 -0.0579 -0.1919
12623W        W27754  12.250   0.327  13.178  0.0097  0.1976 -0.0987
12624W        W27755   9.512  12.167   5.657  0.2142 -0.0262  0.4384
12625W        W27756   4.351   1.574  10.216 -0.2565  0.1062  0.0013
12626W        W27757   5.486  17.988  15.847 -0.3863  0.1326 -0.0003
12627W        W27758  13.606   1.882   3.065  0.4660  0.1128  0.2616
12628W        W27759   7.284  10.040   5.866 -0.0786  0.0425 -0.0173
12629W        W27760   8.880   8.117  12.591  0.0403 -0.0181  0.3566
12630W        W27761  12.391  11.785   6.144  0.1067  0.0996 -0.0434
12631W        W27762  17.329  15.584  13.758 -0.4108 -0.2694 -0.0468
12632W        W27763   3.329   0.118  14.319 -0.2794  0.0137 -0.1785
12633W        W27764   6.069  10.051  11.829  0.2413  0.1612 -0.0918
12634W        W27765  16.422  12.109   2.914 -0.3305  0.1453 -0.1174
12635W        W27766  16.345  16.112  15.728  0.0260  0.1671 -0.1322
12636W        W27767  13.692  11.817  15.755 -0.0364 -0.3746 -0.3468
12637W        W27768   0.294   2.666  14.855  0.3280 -0.2634  0.2592
12638W        W27769   5.412  13.684   4.928  0.1808 -0.1314 -0.1380
12639W        W27770   3.745  17.579   9.273  0.0560  0.0483  0.2848
12640W        W27771  18.164   7.826   1.458 -0.0720  0.0828  0.3058
12641W        W27772   0.934   1.908   1.743 -0.0075 -0.1625  0.1782
12642W        W27773   8.518   8.201   1.641  0.4377  0.0797  0.3510
12643W        W27774  15.667   3.712   1.155 -0.1416  0.1850  0.1441
12644W        W27775  12.439  14.108   4.394  0.2062  0.3663  0.2701
12645W        W27776   2.231   5.450  10.359 -0.1808  0.2323  0.0302
12646W        W27777  11.881  13.146   5.776  0.0122  0.2450  0.0273
12647W        W27778  13.700   1.263   0.670  0.1487 -0.1845  0.1997
12648W        W27779   7.580   3.587   2.078  0.0079  0.3559 -0.3641
12649W        W27780   4.902   9.389  11.741 -0.0942 -0.4851 -0.3064
12650W        W27781   3.447  17.212  12.003  0.0493  0.0041  0.1517
12651W        W27782   8.629  15.685  12.232 -0.2720 -0.0714 -0.0824
12652W        W27783   0.014   6.332   4.199 -0.1083 -0.1750  0.0752
12653W        W27784  10.429   6.491  15.233  0.2852 -0.3749 -0.4305
12654W        W27785   3.513   5.620  14.128  0.2424 -0.3650  0.0384
12655W        W27786  14.584  10.872   1.911 -0.1625  0.0722  0.0274
12656W        W27787  13.078  15.005  14.380  0.0597  0.0094 -0.1674
12657W        W27788  13.153   1.074   2.408 -0.0337  0.2214  0.2153
12658W        W27789  18.392   9.221  12.121  0.2797  0.0568 -0.4987
12659W        W27790   4.062   3.994   2.463  0.0834 -0.1817 -0.1797
12660W        W27791   8.556  11.499  15.282 -0.1788 -0.0307 -0.2052
12661W        W27792   0.096   7.794  15.850 -0.1619 -0.0332 -0.2084
12662W        W27793  18.219  12.882  16.039 -0.0191  0.1691 -0.0158
12663W        W27794   6.837   0.006  14.099 -0.2055 -0.0438 -0.1304
12664W        W27795   4.823  11.772   3.577  0.0812 -0.1007 -0.0394
12665W        W27796  15.743  10.061   1.629  0.1806 -0.0076 -0.1066
12666W        W27797   8.574   8.348   3.831  0.1801  0.0853 -0.1127
12667W        W27798   4.254  11.488   5.552  0.2497 -0.2973  0.0912
12668W        W27799   2.998   8.791   1.685 -0.0618 -0.2390 -0.1748
12669W        W27800  15.693  13.612  12.561  0.2596  0.0822 -0.2411
12670W        W27801   8.720   8.529   6.515  0.0613  0.0911 -0.0296
12671W        W27802  12.441   2.754  13.400 -0.1010  0.0805  0.1220
12672W        W27803  14.014  17.891   0.460  0.1696 -0.2392  0.1082
12673W        W27804   3.409  15.994   1.942  0.0413 -0.0202 -0.1269
12674W        W27805  17.529   9.295  14.744 -0.1383 -0.0971 -0.0454
12675W        W27806   1.454  17.146   4.499  0.3170  0.2408 -0.1409
12676W        W27807  17.638   0.751  15.963 -0.1789 -0.6050 -0.2206
12677W        W27808  15.098  13.026  16.099  0.1451  0.2730  0.3411
12678W        W27809  11.101  14.316  13.734  0.1607  0.0904  0.1013
12679W        W27810   4.137   7.065  16.089 -0.0657  0.1683 -0.0627
12680W        W27811   7.455   6.251   2.155 -0.2485 -0.0660 -0.2822
12681W        W27812   4.587  14.617  13.181 -0.3267 -0.1385 -0.0640
12682W        W27813  15.722   1.316   1.663  0.1916 -0.1263  0.0956
12683W        W27814  11.060   4.577   5.092  0.2108 -0.0499 -0.0824
12684W        W27815  14.032  10.319   1.720  0.1184  0.0056  0.0407
12685W        W27816  18.231   1.986   2.996  0.5243 -0.2022 -0.1461
12686W        W27817  10.060   0.457  13.603 -0.0144 -0.1127  0.0274
12687W        W27818  12.718  17.995   2.321 -0.1612  0.1628  0.0895
12688W        W27819  11.152   9.715  10.363 -0.1951  0.1079  0.0845
12689W        W27820  13.237  12.947  11.713  0.3801 -0.0659 -0.0160
12690W        W27821  14.608  11.603   0.119 -0.1615 -0.0165  0.1506
12691W        W27822  15.196  12.649  14.409 -0.0484  0.2841 -0.1418
12692W        W27823   2.794   8.185  12.249  0.2870  0.5435  0.1231
12693W        W27824   7.321   4.591  13.078  0.1130  0.0660 -0.0126
12694W        W27825   3.286   5.442  15.952  0.1220  0.1491  0.1767
12695W        W27826  15.970  12.432   6.350 -0.2121 -0.0965  0.2489
12696W        W27827  12.533  12.631   4.095 -0.0513 -0.0553  0.0317
12697W        W27828   3.662  15.058   1.377  0.0680  0.1146  0.0207
12698W        W27829   4.462   9.899   5.577 -0.1055 -0.2165  0.0272
12699W        W27830   1.279  16.726  12.760 -0.1726  0.0412 -0.0781
12700W        W27831  14.429  15.199   3.564  0.3429  0.1246 -0.0865
12701W        W27832   2.108  17.431  10.328  0.1702  0.0557  0.0810
12702W        W27833  15.701  15.410  13.363  0.1735 -0.1969 -0.0451
12703W        W27834   7.871  10.351   1.147 -0.3432  0.0774  0.2344
12704W        W27835  18.200  17.004   3.968  0.0494  0.0198 -0.0544
12705W        W27836  11.694  14.758  15.189  0.0505 -0.0846 -0.1700
12706W        W27837  13.302   0.505  14.396 -0.4911 -0.1300  0.1733
12707W        W27838  17.001  14.938   3.417  0.0392 -0.0552  0.3808
12708W        W27839   2.363   8.222   0.957  0.0398 -0.3877  0.3857
12709W        W27840   6.207  11.080   4.075  0.3824 -0.6870  0.0343
12710W        W27841  16.928  15.999  15.333 -0.2397 -0.0096  0.0578
12711W        W27842   9.667   8.671   0.624 -0.1010  0.3412 -0.0706
12712W        W27843  10.169  10.073  11.871  0.1036 -0.3741  0.4731
12713W        W27844  12.142  14.702   0.859 -0.1374  0.1140 -0.2173
12714W        W27845  12.008   0.090  15.418  0.2047  0.2050 -0.0461
12715W        W27846  17.184   1.299   1.267  0.0120 -0.3036 -0.2038
12716W        W27847  10.320   4.891  12.579  0.0090 -0.0265  0.2630
12717W        W27848   6.139  17.080  12.351  0.1806  0.3371 -0.1114
12718W        W27849   0.590  17.565   0.165 -0.2258 -0.2526 -0.2644
12719W        W27850  11.173  12.371   2.338 -0.1286 -0.2359  0.0479
12720W        W27851   6.284   6.736   1.213 -0.2656  0.1344  0.0916
12721W        W27852   0.216  16.526   2.046 -0.1490 -0.1509  0.1598
12722W        W27853  17.886   1.531   2.810  0.0936  0.0942 -0.3074
12723W        W27854  11.015   2.858   2.541 -0.1374 -0.2440 -0.3244
12724W        W27855   2.023   7.271  12.818  0.1699  0.1462  0.0900
12725W        W27856   2.550  15.482   4.276 -0.2537  0.2550 -0.0997
12726W        W27857  10.051  16.677   3.987  0.1933 -0.1282  0.1037
12727W        W27858  16.492  12.920   0.656 -0.1420  0.3296  0.1834
12728W        W27859  10.811   4.281  11.287 -0.0828  0.2173  0.0639
12729W        W27860  17.061   8.733   3.487  0.0772  0.3089 -0.2419
12730W        W27861   1.327  12.429  12.730 -0.0815 -0.0687  0.2992
12731W        W27862   8.041   5.964  11.268  0.0580 -0.0936  0.0713
12732W        W27863  15.818   0.191   5.587 -0.0849  0.0140  0.1669
12733W        W27864   8.591   6.137  14.647 -0.1519 -0.4955 -0.0476
12734W        W27865  12.610  12.969  15.228  0.2280  0.0133 -0.1980
12735W        W27866  16.655   3.676   0.167  0.1478  0.1662 -0.2226
12736W        W27867   8.109  12.083  10.784  0.0233  0.1147 -0.1127
12737W        W27868  15.695  14.153   1.642  0.3195 -0.1202 -0.1457
12738W        W27869   9.056  17.413   5.035 -0.1332  0.2238  0.0019
12739W        W27870   5.570  10.054   2.677 -0.1336 -0.5296 -0.0589
12740W        W27871  15.323   4.866   0.548 -0.0091 -0.1140 -0.3379
12741W        W27872   6.566   3.279   0.898 -0.1019 -0.4358 -0.1830
12742W        W27873   5.450  10.869   2.093  0.6449 -0.1109 -0.3295
12743W        W27874   6.712  14.834   3.669  0.3878 -0.1971 -0.0670
12744W        W27875   9.359  12.037   0.126 -0.2524 -0.1286  0.1433
12745W        W27876   8.955   7.062   2.188 -0.3012 -0.2150  0.0176
12746W        W27877  16.148  11.138   2.879  0.0177  0.0263  0.1334
12747W        W27878   1.297   5.900   2.372 -0.0592  0.0929 -0.3073
12748W        W27879   8.203   6.127   2.302 -0.0532  0.2107  0.0459
12749W        W27880   1.310  10.893   3.103  0.1191 -0.1370  0.1359
12750W        W27881   6.078   7.183   4.206  0.1286 -0.1424  0.2043
12751W        W27882  12.667   3.990  15.600  0.2865  0.3165 -0.1535
12752W        W27883   3.635  10.069   3.835  0.2666  0.0940 -0.2029
12753W        W27884  13.194   7.405   4.885  0.1351  0.1100  0.2276
12754W        W27885  17.584   0.155  13.438  0.0281 -0.1368 -0.1315
12755W        W27886   5.966  14.847   0.696 -0.1689  0.0152 -0.2274
12756W        W27887   6.670   4.797  16.002 -0.1910  0.1204 -0.1934
12757W        W27888  17.868  16.173   3.810 -0.3148 -0.2125  0.0468
12758W        W27889  12.907   9.757  14.374  0.0511  0.1163  0.1902
12759W        W27890  18.125   5.387  11.321 -0.4658 -0.1255  0.2323
12760W        W27891   7.049  12.599   0.373 -0.0638 -0.0495 -0.0860
12761W        W27892  12.813  17.364   3.158 -0.3007  0.0424  0.2001
12762W        W27893  17.865  10.280   1.536  0.1899  0.1886  0.0707
12763W        W27894  14.672  13.217  16.060  0.4544  0.1855  0.1825
12764W        W27895  14.244  18.237  15.499 -0.0839  0.2060 -0.4418
12765W        W27896   5.480   4.130  12.995  0.3475 -0.2683 -0.3008
12766W        W27897   6.820  17.844   1.133  0.2454 -0.0570  0.2926
12767W        W27898   2.018   9.727  12.723 -0.0078 -0.0281  0.0097
12768W        W27899   3.746   5.040  11.392 -0.1267 -0.1744  0.1416
12769W        W27900   3.472  11.900  13.362  0.1440 -0.2898  0.2288
12770W        W27901   6.505   8.254   3.574  0.2541 -0.2432 -0.4780
12771W        W27902   3.949   3.752   5.087 -0.0545 -0.0171 -0.1195
12772W        W27903  15.019   4.846  14.463  0.1499 -0.0575  0.0192
12773W        W27904   2.366   9.829  10.118 -0.2228  0.1787 -0.2278
12774W        W27905  12.279   4.426   0.255 -0.1263 -0.0860 -0.3956
12775W        W27906  17.909  16.997   2.185  0.1165 -0.3019 -0.1796
12776W        W27907   4.496   3.650  10.822  0.2362 -0.2124  0.0936
12777W        W27908   7.867   6.794  14.359  0.3765  0.2304 -0.1502
12778W        W27909  11.353  15.318  10.793 -0.2587  0.2746  0.3875
12779W        W27910   6.314   7.553   3.000 -0.1534  0.0023  0.1379
12780W        W27911   4.274  16.651  12.451  0.2301 -0.0081 -0.5224
12781W        W27912   3.592  13.216  14.889 -0.1426  0.0861 -0.1061
12782W        W27913   4.276  13.083  16.087  0.1587 -0.1886  0.1145
12783W        W27914   1.948   9.548   5.037  0.0672 -0.1708 -0.1603
12784W        W27915  12.474   1.311  14.904 -0.7209 -0.0786  0.2700
12785W        W27916   6.668   3.659  11.670  0.2519 -0.0672 -0.0629
12786W        W27917   5.655  10.370  10.516 -0.1216  0.0722 -0.2783
12787W        W27918  15.006   3.371   4.798 -0.2675  0.0640 -0.1987
12788W        W27919   2.360   0.333  14.773  0.0904 -0.0262  0.2429
12789W        W27920   2.629  18.102   9.236  0.3036  0.0880  0.1669
12790W        W27921  15.632   7.031   4.225  0.1304 -0.0916  0.2250
12791W        W27922   4.777   0.001  13.782  0.0188 -0.0981  0.1954
12792W        W27923   0.703   7.884  12.949  0.1443  0.2926 -0.0749
12793W        W27924  13.241   5.685   5.394  0.0129  0.3595 -0.0787
12794W        W27925   5.932   4.196   2.725 -0.0097 -0.0737  0.0394
12795W        W27926   6.141   2.101   1.702  0.0609 -0.1235  0.0787
12796W        W27927   9.206  12.222  15.199  0.0362 -0.3891 -0.1506
12797W        W27928  12.725  15.156   0.101  0.0500  0.0241 -0.1421
12798W        W27929   5.007  13.659  12.865 -0.1570 -0.0053  0.0578
12799W        W27930  16.445   3.247  10.494  0.0545 -0.1009  0.0282
12800W        W27931   2.548  12.854   4.345 -0.3120  0.2225  0.1769
12801W        W27932  11.930   1.593   3.690 -0.0322  0.1187  0.4725
12802W        W27933   8.094   3.531  14.831 -0.0820 -0.3571  0.3049
12803W        W27934  16.692   9.223  11.630 -0.0568 -0.0564 -0.0279
12804W        W27935   9.118   7.110   6.089  0.2757 -0.1355 -0.0070
12805W        W27936   0.479  10.111  13.841  0.1715  0.0817  0.0516
12806W        W27937   8.305  10.653   4.618 -0.0614  0.0589  0.3049
12807W        W27938  17.525   2.311  12.037  0.3575  0.4844 -0.0933
12808W        W27939  12.616   8.785   4.328  0.2286  0.1476  0.0577
12809W        W27940   4.261  15.982  12.681 -0.0288  0.4392 -0.0770
12810W        W27941   5.276   8.803  15.112 -0.1989  0.2429 -0.5663
12811W        W27942  15.127   2.203  11.722  0.0449  0.3872 -0.1443
12812W        W27943   7.531   5.805   3.587  0.0188 -0.0375 -0.3677
12813W        W27944   2.010   6.811  14.667 -0.1585  0.1988  0.0720
12814W        W27945  15.513   4.505  13.205  0.0286 -0.1353 -0.1271
12815W        W27946  15.929   1.176  10.763  0.4138 -0.2449  0.0828
12816W        W27947  17.922   8.683  14.901  0.0034 -0.0092  0.0940
12817W        W27948  15.829   7.848   4.252 -0.5911  0.1078  0.1763
12818W        W27949  14.232  16.622   5.362  0.0895  0.1318  0.0134
12819W        W27950  13.920  15.066   4.706 -0.0030  0.1985  0.1566
12820W        W27951   4.432  17.495  12.277 -0.0157  0.1920 -0.3079
12821W        W27952  17.735  17.001   2.983  0.0428 -0.2068  0.4600
12822W        W27953  17.636  13.924  13.049  0.2250  0.1649  0.2409
12823W        W27954   9.052   2.459   5.209  0.0830  0.0517 -0.3207
12824W        W27955  17.238   2.144   2.804 -0.1573 -0.0999  0.2787
12825W        W27956   6.094  10.425  11.231  0.2007  0.3009  0.2096
12826W        W27957   9.354   3.693   4.814  0.3508  0.3570  0.3441
12827W        W27958  17.602   4.389   4.600 -0.1393 -0.0821 -0.2120
12828W        W27959   5.276   5.227  11.301 -0.0363 -0.2106  0.0099
12829W        W27960   7.876  14.717   3.143  0.0153 -0.3738  0.0536
12830W        W27961  15.519   8.034   5.328  0.0697 -0.3461 -0.0949
12831W        W27962  18.352  16.548  12.457  0.0222  0.3049 -0.2605
12832W        W27963   7.176  16.003   1.727 -0.1845 -0.5723 -0.0747
12833W        W27964   3.703  14.819  13.717 -0.0837 -0.0263 -0.1247
12834W        W27965  18.245  12.755   2.079  0.2242 -0.1608  0.2572
12835W        W27966  15.988   7.404   2.445 -0.0840  0.2897  0.0304
12836W        W27967   7.059  15.100   3.421 -0.0149 -0.0993  0.0884
12837W        W27968   2.494   8.170  15.323  0.0459  0.0540 -0.2287
12838W        W27969  15.648   2.391   5.823  0.2881 -0.2356 -0.0548
12839W        W27970   2.120  16.078   9.752 -0.1372 -0.0089  0.4042
12840W        W27971   6.590   4.977   0.712 -0.0466 -0.0588 -0.1845
12841W        W27972   1.825   3.862  13.420  0.1992 -0.1650  0.1210
12842W        W27973   4.692  11.485   1.795  0.0600 -0.2448 -0.2210
12843W        W27974  17.809  16.225  15.519  0.2865  0.4064  0.0321
12844W        W27975  18.179   3.136   2.237 -0.1960  0.1140 -0.2642
12845W        W27976  17.476   2.353   4.747 -0.3266  0.0749 -0.1179
12846W        W27977  17.522   1.856  12.279 -0.1307 -0.0240  0.3976
12847W        W27978   4.917  12.629   0.179  0.2920  0.1636  0.5025
12848W        W27979   8.626  17.293  14.336  0.1235 -0.1493  0.3862
12849W        W27980  12.461  12.485  14.985 -0.0213  0.0564  0.0152
12850W        W27981   6.167  11.513   2.062  0.0795 -0.0582 -0.2213
12851W        W27982  17.691  14.257  10.342  0.3091  0.0831 -0.1125
12852W        W27983  16.929  11.684  12.399 -0.0144  0.1641 -0.3194
12853W        W27984   4.337   7.303   2.152 -0.4242 -0.3836 -0.2061
12854W        W27985  14.386   1.712   2.569  0.0262 -0.1244  0.1345
12855W        W27986   3.888   4.026   4.315  0.4102  0.2824  0.0807
12856W        W27987   4.715  12.432  13.309  0.0955  0.5764 -0.3470
12857W        W27988   4.544   3.002  12.957 -0.1043  0.0023  0.2463
12858W        W27989  14.933   1.592   0.272  0.2765 -0.3877  0.1646
12859W        W27990   4.535  13.150   3.414 -0.0046 -0.1899 -0.2380
12860W        W27991   3.267  14.412   4.704 -0.0721  0.3256 -0.2505
12861W        W27992  11.555   8.991  11.524 -0.1596 -0.3949 -0.0671
12862W        W27993   7.730   8.315  11.601  0.0057  0.2130  0.1322
12863W        W27994   6.752   4.303   5.658  0.2400  0.3043 -0.0419
12864W        W27995  12.654  17.076  11.251  0.1090  0.2629  0.3037
12865W        W27996   9.977   5.391  15.105 -0.0888 -0.0741  0.1921
12866W        W27997   1.568  17.445  13.901  0.0957  0.1298  0.3103
12867W        W27998   7.463  12.453  13.236  0.3160 -0.2921 -0.2667
12868W        W27999  15.670   9.987   0.688  0.2416 -0.0476  0.1194
12869W        W28000   0.861   8.471   2.731  0.1092 -0.0818  0.2027
12870W        W28001   8.135  10.407  12.201 -0.1084  0.1700  0.1761
12871W        W28002   6.703   7.363   5.495  0.0395  0.1480  0.2001
12872W        W28003   6.553   7.317  13.680 -0.0512 -0.1380  0.2503
12873W        W28004  10.799  10.761  15.369 -0.3384 -0.1607 -0.1051
12874W        W28005  10.926   6.053   6.501 -0.3796 -0.3024 -0.0944
12875W        W28006  14.633   2.929  14.132  0.1855  0.3592 -0.1115
12876W        W28007  10.330   8.946   5.163 -0.0559  0.0530 -0.0416
12877W        W28008   8.210   2.144  12.032 -0.0913  0.3082  0.2803
12878W        W28009   1.666   7.853   3.085  0.4985  0.5530 -0.1298
12879W        W28010  16.354   2.324  11.528  0.4685 -0.1907 -0.0508
12880W        W28011  13.728  12.758  11.480  0.0114  0.1932  0.3421
12881W        W28012   5.994  12.931   1.295 -0.0237  0.2942  0.1371
12882W        W28013  11.413  18.232  14.386  0.2186  0.0404  0.2050
12883W        W28014   8.506  12.234   4.442  0.0036 -0.0038 -0.2584
12884W        W28015  12.760  17.938   5.093  0.0833 -0.3352  0.1725
12885W        W28016   8.977  11.654  12.943 -0.1048 -0.1319 -0.0477
12886W        W28017   6.023   3.896  13.900 -0.0923 -0.0217  0.3526
12887W        W28018   6.789  18.053  13.316  0.1592 -0.0496 -0.0545
12888W        W28019   5.345  11.320  12.020  0.0066 -0.2478  0.2971
12889W        W28020  16.450  13.045   3.375  0.2231 -0.1223  0.3927
12890W        W28021  10.154   8.675  14.707  0.1393 -0.3469  0.1506
12891W        W28022   4.820  17.911   3.275 -0.1061  0.1602 -0.3484
12892W        W28023   7.814   7.976   0.929  0.2885  0.0974  0.2015
12893W        W28024  16.197   1.335  11.690 -0.0541  0.4762  0.2039
12894W        W28025   3.304   8.276  12.318  0.1124  0.1628 -0.1031
12895W        W28026   2.508  14.785  10.936 -0.0379 -0.2177 -0.2509
12896W        W28027  13.826  10.997   2.367 -0.1993  0.2655  0.3962
12897W        W28028  11.550   5.974   2.676 -0.1871  0.0320 -0.4392
12898W        W28029   1.309  16.542   4.599  0.1899  0.2983 -0.2291
12899W        W28030   3.207   7.575   2.387 -0.0256 -0.0133  0.0444
12900W        W28031   3.904  10.695  10.663  0.1369  0.1655  0.4010
12901W        W28032   7.759   9.927  13.629 -0.3475 -0.0352  0.1339
12902W        W28033  13.826   4.404   4.245  0.0880  0.1228  0.2413
12903W        W28034   8.434   4.416  14.516 -0.2976 -0.0211 -0.0184
12904W        W28035   6.702  14.378   2.717  0.1252  0.0943  0.1056
12905W        W28036  18.202   9.228   2.233  0.2006 -0.0249  0.4240
12906W        W28037  14.631  10.035   3.983 -0.2596 -0.0571 -0.0552
12907W        W28038   9.417  15.298  11.593  0.0019 -0.0900 -0.1573
12908W        W28039   6.676   8.106   1.817 -0.4257  0.0432  0.1527
12909W        W28040  11.275  11.016   4.269  0.1091  0.2397  0.0277
12910W        W28041  12.909  12.152  12.090  0.0105 -0.0336 -0.4296
12911W        W28042   0.796  10.847   1.394  0.2266 -0.1884  0.1038
12912W        W28043   0.773   9.147  14.203 -0.0676  0.0908 -0.0519
12913W        W28044   5.453   5.540   0.065 -0.0826  0.1069 -0.2463
12914W        W28045   7.434  17.822  12.197  0.3150 -0.0443  0.0780
12915W        W28046  16.793   5.248   3.643 -0.4237 -0.1825  0.1282
12916W        W28047  14.332   5.215   3.353  0.0234  0.1261  0.1475
12917W        W28048   5.206   4.671  14.419 -0.0783 -0.0364  0.1969
12918W        W28049   3.378  17.982   1.016  0.0935 -0.3732  0.0012
12919W        W28050   3.329   4.207  10.771 -0.1913  0.0286 -0.0431
12920W        W28051  12.382  18.112  15.483 -0.1052 -0.0443  0.1679
12921W        W28052  18.097   4.897  14.801  0.0781  0.0804  0.0416
12922W        W28053   7.363   9.272   2.959  0.1387  0.1879 -0.2996
12923W        W28054   1.475   8.724  13.480 -0.1764 -0.3315  0.0161
12924W        W28055  10.888  15.588  13.852 -0.0641  0.1188  0.0581
12925W        W28056  15.257  15.604   0.724 -0.1442 -0.2101 -0.3242
12926W        W28057  15.758   9.132   0.971 -0.2396  0.0673  0.0638
12927W        W28058  10.257   0.396  11.680 -0.1388  0.0121  0.0569
12928W        W28059  14.157   8.601  14.605  0.1262 -0.0686 -0.1423
12929W        W28060  16.111   8.772   0.819  0.0236 -0.1137  0.2083
12930W        W28061   6.298  11.079  11.650 -0.0556  0.0052  0.0844
12931W        W28062  18.356  12.923   5.099  0.1120 -0.1831 -0.2071
12932W        W28063  18.112   7.929   0.970  0.0775 -0.0093  0.0450
12933W        W28064   1.156   2.908  13.099 -0.0229  0.1683 -0.1078
12934W        W28065   7.264  12.983   2.819 -0.2002 -0.0594 -0.1743
12935W        W28066  15.800  13.702   6.012 -0.0662  0.1101 -0.1455
12936W        W28067  17.840  17.946  15.920  0.1096  0.1062 -0.1642
12937W        W28068  15.413   1.202  10.616  0.0359  0.1370  0.2959
12938W        W28069   0.393   6.804   3.466 -0.1300 -0.1116  0.1611
12939W        W28070   4.606   2.886  15.478 -0.0246  0.0316 -0.1260
12940W        W28071  16.924  12.777   3.551 -0.1709 -0.0459  0.3094
12941W        W28072   3.974   4.035  13.186  0.1317 -0.1282 -0.1003
12942W        W28073  14.616   8.548  11.958 -0.2548 -0.0090  0.3351
12943W        W28074   0.831  18.319  14.123 -0.0760 -0.1279 -0.1399
12944W        W28075  18.139  11.859   0.147  0.0403 -0.0539 -0.2773
12945W        W28076  17.387   3.634  14.026  0.0592 -0.0498 -0.1205
12946W        W28077   3.699   2.316   1.604  0.1806 -0.1193 -0.1558
12947W        W28078  17.990  18.255  13.245 -0.2833 -0.0542 -0.1482
12948W        W28079   7.671   7.181  15.320 -0.3073  0.2370  0.2235
12949W        W28080  13.209   9.886   2.399 -0.1214  0.0360  0.0915
12950W        W28081   4.455  16.405   3.730  0.1468 -0.0954  0.1075
12951W        W28082   1.061   2.346   0.882 -0.2450  0.0325  0.0866
12952W        W28083  16.735   5.850   3.600 -0.2354 -0.0443 -0.1620
12953W        W28084   6.368  11.098   6.040 -0.0613  0.0720  0.0835
12954W        W28085  16.038   2.477   2.439  0.1092  0.5792 -0.0685
12955W        W28086  11.012   4.034  10.900  0.2230  0.2606 -0.1282
12956W        W28087  10.452   2.351  15.668  0.2415 -0.0208 -0.3001
12957W        W28088  11.517   0.087   0.937  0.2460  0.1701 -0.2087
12958W        W28089  13.536   3.132   1.700  0.3253  0.0075 -0.0233
12959W        W28090  12.389   1.752   2.898 -0.0625  0.0261  0.0481
12960W        W28091  15.220  10.924   5.511 -0.3744  0.1978  0.3026
12961W        W28092   6.971  12.613   3.879  0.2285  0.0511  0.1055
12962W        W28093  17.142   0.405   2.664 -0.1038  0.2037  0.1620
12963W        W28094  10.164   6.558  10.950 -0.0817  0.0601  0.3054
12964W        W28095   8.289   7.566  14.071 -0.0536  0.0690 -0.0633
12965W        W28096   2.722   4.384  12.489 -0.2480  0.1901 -0.3041
12966W        W28097  10.878  14.944  13.038  0.0001 -0.1598  0.0822
12967W        W28098  17.468  10.982   4.964  0.2321  0.0360 -0.1726
12968W        W28099   2.827  16.650  15.535 -0.1768  0.0449  0.0133
12969W        W28100  12.814   8.872   6.150  0.2112 -0.2113  0.2714
12970W        W28101   2.062   2.677  14.578 -0.0127  0.0374  0.1820
12971W        W28102  12.060  10.151   3.796 -0.1781  0.0590 -0.0408
12972W        W28103  18.082  16.311   5.008 -0.1037  0.0947  0.1599
12973W        W28104   8.351   1.799   1.268 -0.3840  0.0123 -0.0415
12974W        W28105  11.499  16.051   2.455  0.1158  0.2234 -0.5012
12975W        W28106  11.870   7.659   2.871 -0.0221  0.2149 -0.0695
12976W        W28107   7.921  14.487   5.558 -0.2680  0.2181 -0.2365
12977W        W28108   1.563   6.780   0.437  0.2153  0.1591  0.1368
12978W        W28109   1.232   3.310   2.203 -0.1016 -0.3001 -0.3099
12979W        W28110  14.531  10.698   4.130  0.2302  0.0103  0.0717
12980W        W28111  18.345   3.990   2.924  0.0297  0.0571 -0.1239
12981W        W28112  10.732   9.249   6.417  0.2115 -0.0022  0.0944
12982W        W28113  11.309  17.763   0.598  0.0384  0.0663  0.0776
12983W        W28114   7.999  14.251  13.652  0.0272  0.0483  0.1834
12984W        W28115  12.239   2.566   1.922  0.2757  0.1557 -0.1643
12985W        W28116  14.499   1.787   5.781 -0.0236  0.0165  0.1346
12986W        W28117  10.831   7.852  14.925 -0.3459  0.3471 -0.1148
12987W        W28118   1.748   0.260  11.588 -0.1580 -0.2160 -0.2705
12988W        W28119  15.721  17.965  14.418 -0.2337  0.1329  0.2566
12989W        W28120   8.545  16.681  14.286 -0.1880 -0.0735  0.1233
12990W        W28121  12.968  10.787  15.239  0.1860  0.4064  0.5249
12991W        W28122   2.328  15.389   1.136  0.1383 -0.2169  0.4050
12992W        W28123   7.888  11.357  11.913  0.2195 -0.2546 -0.1716
12993W        W28124  15.376   0.939   1.429  0.0778  0.3417 -0.2745
12994W        W28125  18.115  11.555   5.787 -0.0138 -0.0262  0.1145
12995W        W28126   5.640  13.963   3.631  0.0478  0.1034 -0.1754
12996W        W28127   2.873  17.268  14.396 -0.3705  0.0989  0.4314
12997W        W28128   2.562  10.862   3.678 -0.2825  0.0968 -0.3515
12998W        W28129   9.443   2.263   4.813  0.1110  0.4861 -0.2517
12999W        W28130  10.093   2.672   0.505  0.0056 -0.2594 -0.1633
13000W        W28131  15.338   7.636   0.175  0.2672  0.1516 -0.1546
13001W        W28132   4.265   0.744  12.077  0.2376 -0.1629 -0.1959
13002W        W28133  17.165   3.883   0.963 -0.0048 -0.2360  0.0809
13003W        W28134  16.630   6.293   0.141  0.0893  0.1545 -0.2667
13004W        W28135   2.600   8.618   3.446 -0.1591 -0.0116  0.0566
13005W        W28136  11.322   4.480  15.815 -0.5097  0.0092  0.0518
13006W        W28137  16.595  17.000   0.283 -0.1845 -0.2252  0.1306
13007W        W28138   7.385   9.287  14.674 -0.0228 -0.2290  0.1049
13008W        W28139  14.952   2.998  15.485 -0.0464 -0.1719 -0.0956
13009W        W28140   0.510  13.234  15.148 -0.0731 -0.3355  0.0078
13010W        W28141   7.058  10.916  11.525  0.0137  0.0926 -0.1368
13011W        W28142  17.290   3.053   1.577  0.1125 -0.0212  0.0672
13012W        W28143   1.822   3.792   3.619  0.1008  0.1131  0.0207
13013W        W28144   6.166   2.041   0.671 -0.1309  0.1017 -0.0693
13014W        W28145   8.616   2.604   1.493  0.2198  0.2860  0.0834
13015W        W28146   7.851  17.515  14.286 -0.1146 -0.1883 -0.1209
13016W        W28147   8.682  18.221  11.822 -0.0760  0.0594 -0.1787
13017W        W28148   8.999   9.801   4.207 -0.1770 -0.1120  0.0433
13018W        W28149   0.241   0.637  15.817 -0.0127 -0.3602  0.0202
13019W        W28150  12.112   8.508   2.048  0.0809 -0.1761 -0.5586
13020W        W28151   0.541   2.523   0.374 -0.0259  0.1740 -0.2767
13021W        W28152   4.843   3.946   4.275 -0.2979 -0.5240 -0.0818
13022W        W28153   8.007   2.207   0.763  0.0456 -0.1716 -0.0406
13023W        W28154   2.239  13.232   2.744 -0.1765 -0.0621  0.2641
13024W        W28155   5.445  12.367  15.436 -0.0051  0.4860  0.0490
13025W        W28156   0.074   9.947  15.309 -0.0798  0.2688  0.0499
13026W        W28157   7.664  13.846  14.323  0.0429  0.1500 -0.0493
13027W        W28158   4.263   5.083  14.133  0.0160  0.0271  0.2230
13028W        W28159  16.395   1.353   0.142  0.1020  0.1104  0.0609
13029W        W28160  14.756   9.359   4.776  0.1784 -0.0529 -0.0557
13030W        W28161   8.207   9.504   6.456 -0.1062 -0.0246 -0.0524
13031W        W28162  10.589   1.260  11.402 -0.0004  0.0932 -0.0351
13032W        W28163   1.792   9.995  11.296  0.0127 -0.3665  0.0529
13033W        W28164   0.516  16.878  12.081  0.3033  0.5050  0.0714
13034W        W28165   3.441  10.986  14.139  0.4277 -0.0016  0.0466
13035W        W28166  14.210  12.743  10.609 -0.2218 -0.1013 -0.0565
13036W        W28167  17.753  18.434  12.128  0.2349  0.3222  0.1155
13037W        W28168   9.301   0.765   3.951  0.1590  0.1535 -0.4691
13038W        W28169  17.401   6.057  11.616 -0.0151  0.0691 -0.0209
13039W        W28170  14.500  15.119   0.200 -0.1245  0.0294  0.1440
13040W        W28171   6.821  12.410  14.171  0.1929 -0.1212  0.3083
13041W        W28172   0.035   4.095   4.733  0.1335  0.4392 -0.1719
13042W        W28173  17.234  13.992   0.807 -0.1450 -0.0787 -0.2262
13043W        W28174  12.188  15.162   1.037  0.3145 -0.2745 -0.0281
13044W        W28175  16.003  15.541   9.575  0.1398  0.1005  0.0885
13045W        W28176  16.858   9.087   4.156 -0.0989 -0.4599 -0.0694
13046W        W28177   7.447  16.173  11.583 -0.3953  0.1785 -0.1696
13047W        W28178  18.189  18.202   1.833  0.2463 -0.4065  0.2334
13048W        W28179   3.665   6.387   0.525 -0.1833 -0.2957  0.0674
13049W        W28180   7.236   9.086   6.424  0.1709  0.5032  0.1227
13050W        W28181   8.921  14.863   5.927  0.1055  0.0720 -0.2342
13051W        W28182  18.273   5.019  14.016 -0.1128  0.2191 -0.1129
13052W        W28183   6.452  16.786  15.780 -0.1721 -0.1002  0.0016
13053W        W28184  13.668   5.317   2.361 -0.1759 -0.0343  0.0480
13054W        W28185   3.230  14.465  13.679  0.2598  0.1960  0.4648
13055W        W28186  18.342   6.921  14.756  0.3149 -0.0765 -0.0664
13056W        W28187  16.119  14.454   1.655  0.1293  0.1771  0.0654
13057W        W28188   7.624   2.857   4.132  0.0194 -0.0570 -0.2277
13058W        W28189   6.192  15.754  15.557 -0.1052  0.0170 -0.2885
13059W        W28190  16.264  16.729   3.944 -0.0998  0.1751  0.0413
13060W        W28191  16.520   2.671  12.638 -0.1651  0.3482 -0.0845
13061W        W28192   7.929  18.456   0.140  0.0374  0.2280 -0.0500
13062W        W28193  18.067   8.571  12.063 -0.4192  0.1526 -0.3177
13063W        W28194  15.779   9.862   4.217 -0.1861  0.0744 -0.1067
13064W        W28195   6.392   1.562  12.930 -0.2975 -0.1832  0.0438
13065W        W28196  15.638  10.088  15.769 -0.4930 -0.4511  0.1703
13066W        W28197   3.752   0.158   1.586  0.0042 -0.1473  0.5493
13067W        W28198   8.087   4.628   1.113  0.6356  0.0862 -0.3413
13068W        W28199   9.936  18.328   2.334  0.0218  0.1480 -0.1252
13069W        W28200  10.769   1.722  10.630 -0.5746  0.1324  0.0724
13070W        W28201   6.526  14.054  11.448 -0.0103 -0.4182  0.1341
13071W        W28202   1.582  13.340   5.786  0.1859  0.1359 -0.0368
13072W        W28203   9.579  16.621   5.548 -0.0531 -0.0343  0.2310
13073W        W28204  13.571   5.694   2.095 -0.1899 -0.1766  0.0753
13074W        W28205   9.252   8.985  15.577  0.0824 -0.1938  0.3411
13075W        W28206  10.112   1.823  12.221  0.3075  0.5531  0.1275
13076W        W28207   1.439   2.795  13.885  0.1119 -0.1275 -0.1242
13077W        W28208   3.759  14.468   2.895  0.0318 -0.1509  0.1463
13078W        W28209  15.608  15.957   5.755  0.2807  0.0912  0.2187
13079W        W28210   3.353  15.067  13.952 -0.0379 -0.0734  0.1344
13080W        W28211  16.222   3.083  13.002  0.3430 -0.2907 -0.0068
13081W        W28212   9.435  10.704  13.844  0.0916  0.1850 -0.2845
13082W        W28213   9.416   4.662   0.922  0.1540 -0.0569  0.2225
13083W        W28214   5.056   7.191  14.785 -0.1440 -0.1392  0.0941
13084W        W28215  11.849   9.435   4.686  0.1772 -0.1212 -0.0057
13085W        W28216  12.066   8.185   3.490  0.1530 -0.0249 -0.3420
13086W        W28217   5.082   0.174  15.580  0.3149 -0.2758 -0.1616
13087W        W28218  10.060  12.057  10.452 -0.1665 -0.0793 -0.2081
13088W        W28219   4.820  11.553  10.716  0.0063  0.0502  0.2216
13089W        W28220   1.982  13.402  15.710 -0.1848  0.0315  0.0695
13090W        W28221   3.913   0.025  10.968  0.0209  0.0287 -0.2007
13091W        W28222  15.068   5.297  15.436  0.3260 -0.0425  0.1045
13092W        W28223  17.531  15.935  15.957  0.1731  0.1822  0.0850
13093W        W28224  14.750  13.641  12.162  0.0316  0.2045 -0.2306
13094W        W28225  18.274  14.732  13.240  0.0593 -0.3352  0.0631
13095W        W28226  11.479  14.112  10.902 -0.0408 -0.2466  0.2019
13096W        W28227   6.761   9.717   1.898 -0.5042 -0.0512 -0.1713
13097W        W28228   4.118  17.966   2.548  0.0499  0.2930  0.0434
13098W        W28229   2.961   6.669   1.771  0.0411  0.1245 -0.2261
13099W        W28230  10.232   3.713  14.450 -0.2259  0.0281 -0.5179
13100W        W28231  12.178   9.307  12.203 -0.1160  0.1168  0.2735
13101W        W28232   9.972  11.924  13.834  0.1804 -0.3594  0.4049
13102W        W28233  15.482  15.797   2.933  0.1199 -0.3010  0.2063
13103W        W28234   8.022  10.149  11.369 -0.1240 -0.1080  0.0239
13104W        W28235  11.322  16.712  14.550 -0.2069  0.1238 -0.1787
13105W        W28236   4.347  17.708  14.405 -0.0084  0.2615 -0.1282
13106W        W28237   6.619   0.056  15.015 -0.0196 -0.3947  0.1301
13107W        W28238   2.508  17.177  11.055 -0.0203 -0.1533 -0.1770
13108W        W28239  11.828   3.920   3.024  0.0822  0.0912  0.5035
13109W        W28240   3.132   9.192  10.928 -0.0506 -0.1641  0.0255
13110W        W28241   4.293  10.617  11.133 -0.2453  0.0748  0.4217
13111W        W28242  12.151   4.804   1.620 -0.0797  0.3964  0.1902
13112W        W28243   4.648   0.450  13.467 -0.3030  0.1797  0.2063
13113W        W28244  17.479   3.328   2.448  0.1262 -0.1811  0.1737
13114W        W28245   0.460   8.142   2.867 -0.1677  0.0353 -0.0632
13115W        W28246   8.367   1.324   2.489 -0.2277  0.1723 -0.3154
13116W        W28247  12.831  17.505   4.804  0.0359  0.2258 -0.0665
13117W        W28248  17.804   6.448   1.068  0.0427 -0.3224 -0.3223
13118W        W28249   9.618  13.579   3.986  0.1171  0.2667  0.2883
13119W        W28250   7.708   7.315   0.298  0.0018  0.2185 -0.1724
13120W        W28251   5.462  13.583  12.522 -0.3031 -0.1008  0.1913
13121W        W28252   1.709  12.394   5.536 -0.0936  0.1054 -0.2205
13122W        W28253   0.287   3.610  12.141 -0.2881  0.2509 -0.2848
13123W        W28254   7.483  15.438   5.269  0.1541 -0.2408 -0.2066
13124W        W28255  12.479   1.031   3.068  0.1768  0.3685  0.2405
13125W        W28256  17.072  17.055  13.966 -0.0180 -0.0950 -0.1363
13126W        W28257   1.378   9.742   5.554  0.3562  0.1599  0.0255
13127W        W28258  15.799  13.854   4.118  0.1689  0.0872  0.0014
13128W        W28259  16.145   3.535  11.705  0.1236  0.2453 -0.0055
13129W        W28260  17.193  17.634   0.293  0.0786 -0.1458  0.0962
13130W        W28261  10.709  16.302  15.531  0.1024  0.4167 -0.2848
13131W        W28262  15.177   6.815   4.658  0.1988 -0.0383  0.0105
13132W        W28263  13.673   7.028   5.887  0.0709 -0.0079  0.3151
13133W        W28264  12.770  12.350   1.409 -0.2522 -0.1060  0.1719
13134W        W28265  12.435  16.476  13.258 -0.2162 -0.0635 -0.1618
13135W        W28266  15.225   5.786  16.059 -0.0552  0.1578 -0.1894
13136W        W28267  16.430   8.639  12.230 -0.1582  0.2575  0.2307
13137W        W28268  11.666  14.979   4.337 -0.0119 -0.2333 -0.0415
13138W        W28269   2.583  11.109   2.070  0.2060 -0.1430 -0.0902
13139W        W28270   7.013  17.528   1.864  0.0440 -0.0130 -0.0311
13140W        W28271   1.063   9.612  11.059  0.0107 -0.1530 -0.0183
13141W        W28272   2.903  14.082   5.490  0.2630  0.2378  0.0211
13142W        W28273   8.829   6.761   5.852  0.0724  0.0920 -0.1555
13143W        W28274  11.303  12.089  13.708  0.2036  0.1827  0.0408
13144W        W28275   3.712  18.464  14.622 -0.0679 -0.1757 -0.0876
13145W        W28276   0.064  17.394  10.764 -0.1739  0.2438 -0.0092
13146W        W28277  10.322   6.132  11.752 -0.3059  0.1077 -0.1119
13147W        W28278  11.055   0.589  12.743 -0.2626 -0.0080  0.1369
13148W        W28279  11.035   9.195  13.694 -0.2694 -0.2479 -0.1557
13149W        W28280   4.499  13.320   2.931  0.0082 -0.0248  0.0131
13150W        W28281   1.961   4.889   4.870 -0.1033  0.0145 -0.3365
13151W        W28282   1.874  13.973  14.206 -0.0818 -0.0655 -0.4094
13152W        W28283  14.169   6.164  13.761  0.2873  0.0163 -0.0648
13153W        W28284   2.405   2.694   4.263 -0.0901 -0.2577 -0.3694
13154W        W28285  16.631  13.381   5.224 -0.2418 -0.2699  0.2038
13155W        W28286   5.217   9.244   1.796 -0.0108 -0.1687 -0.0251
13156W        W28287   0.840  10.581  15.672 -0.2370  0.2442 -0.0974
13157W        W28288  14.372  10.408   2.060 -0.3245  0.1753  0.0684
13158W        W28289  11.390  11.674  15.934  0.1021 -0.3058  0.4351
13159W        W28290   3.297   0.090   1.750 -0.0507 -0.0180 -0.0452
13160W        W28291   7.143  12.950   4.918  0.0237 -0.0004 -0.0502
13161W        W28292   4.408   6.817   2.119  0.1540 -0.0643 -0.0043
13162W        W28293   1.876  18.207   4.369 -0.1060 -0.1546 -0.0203
13163W        W28294  11.434   7.101   3.572 -0.1151 -0.0958  0.4112
13164W        W28295   8.951   7.772   3.096 -0.2013 -0.1814  0.0410
13165W        W28296   2.472   1.720  15.191  0.0639  0.3813  0.0896
13166W        W28297  18.154   7.517  14.638  0.3233 -0.0178 -0.0606
13167W        W28298  14.633   7.962  12.082 -0.1290  0.1798  0.0935
13168W        W28299   4.905   1.002   5.262  0.1459  0.0100  0.0700
13169W        W28300  17.358  13.672  12.048 -0.0004 -0.2920  0.2835
13170W        W28301  10.466  18.188   2.184  0.3559  0.1153 -0.0463
13171W        W28302   5.162  17.509  13.385  0.0599  0.0281  0.1782
13172W        W28303  17.921  15.847   1.370 -0.0812  0.0808  0.0063
13173W        W28304   0.803   3.972  16.008  0.1682 -0.1640 -0.0053
13174W        W28305  10.054   3.668   4.787 -0.0099 -0.2038 -0.1598
13175W        W28306   2.186  16.855   1.851  0.1097 -0.3458 -0.1933
13176W        W28307  15.106   7.917   5.061 -0.1698  0.3250 -0.2865
13177W        W28308  12.120   9.049  12.944 -0.1234 -0.1927 -0.0219
13178W        W28309   7.310  14.373  13.020  0.0365  0.0384 -0.2627
13179W        W28310   7.856   3.905   1.753  0.1469  0.0494 -0.3264
13180W        W28311   7.296  12.483   4.851 -0.0172 -0.0760  0.2390
13181W        W28312  14.701   2.139   0.118  0.1967  0.1119 -0.3633
13182W        W28313   2.076  17.592  14.270 -0.2662  0.1413  0.3716
13183W        W28314   4.197   7.760  12.552 -0.2372 -0.0410  0.2671
13184W        W28315   0.569  12.947  12.377 -0.0494 -0.0588 -0.0928
13185W        W28316  13.636  14.307  13.346  0.1530 -0.3007 -0.0836
13186W        W28317   6.646  15.835   5.315 -0.2844  0.1700  0.0729
13187W        W28318  12.648  10.029  11.913 -0.1222  0.1636  0.1616
13188W        W28319  16.506  15.890   3.505  0.2069 -0.2198  0.2199
13189W        W28320   7.364   4.895   0.799  0.1875  0.1971 -0.3720
13190W        W28321  10.195  14.455   1.447 -0.0042  0.0696  0.0548
13191W        W28322   0.244   2.465   3.815 -0.0871  0.1178  0.2772
13192W        W28323  18.187   0.671  15.757  0.1442 -0.2632  0.0498
13193W        W28324   6.578  13.619  15.532 -0.1931  0.0401 -0.1960
13194W        W28325   1.727  11.302   0.549 -0.1201 -0.0777  0.3907
13195W        W28326   7.584   2.470  16.020  0.2557 -0.2964 -0.2313
13196W        W28327  13.885   0.918   6.125  0.1448 -0.0784 -0.3746
13197W        W28328  15.695  14.625   5.042 -0.0230  0.0161 -0.0848
13198W        W28329  15.969   1.970   2.913 -0.2917 -0.2628  0.1711
13199W        W28330  12.523  16.895  15.109 -0.1067  0.1761  0.2770
13200W        W28331   9.712   0.744   2.953  0.1886 -0.1098  0.4957
13201W        W28332   1.383   3.754  12.211  0.1653 -0.2497 -0.0486
13202W        W28333  17.491   6.571   2.093  0.3794 -0.4229 -0.1287
13203W        W28334   8.724  15.564  11.329  0.1832  0.1416 -0.0381
13204W        W28335  17.358  14.988   1.163 -0.0395  0.1841 -0.1857
13205W        W28336  12.035   6.013  13.660 -0.1688 -0.1146  0.0556
13206W        W28337   3.606  15.681  13.487 -0.1733  0.0482  0.3681
13207W        W28338  15.194   8.761  12.081 -0.0023  0.2523 -0.2788
13208W        W28339   0.103   5.234  11.002 -0.1787  0.0001 -0.0897
13209W        W28340  14.159   5.296  15.368  0.3579  0.2127  0.0505
13210W        W28341  12.893  15.796  14.519 -0.1623 -0.1577  0.1497
13211W        W28342  10.963   9.222   2.751 -0.0889  0.1369 -0.2734
13212W        W28343   7.018  15.419  14.975 -0.0433 -0.1789  0.5071
13213W        W28344  12.993   3.226   1.019  0.4842  0.0043 -0.0785
13214W        W28345  17.583   0.480   2.944 -0.5845 -0.0510 -0.0728
13215W        W28346  10.348   1.852  10.426  0.0187  0.0058 -0.2944
13216W        W28347   8.275   0.095   4.565  0.1435  0.0382  0.0703
13217W        W28348   7.481   9.369  11.802  0.1370 -0.0453  0.0704
13218W        W28349   9.630  12.261  11.281  0.1224 -0.0201 -0.0108
13219W        W28350   5.822   1.636   2.480  0.0654  0.1010  0.0174
13220W        W28351  12.461   4.643  14.340 -0.2234  0.0333  0.2249
13221W        W28352  17.289  14.607  11.208  0.0182 -0.0997 -0.1507
13222W        W28353  17.589   3.216  14.100  0.1660  0.3039 -0.0779
13223W        W28354  15.766   6.328   2.387 -0.1544 -0.2554 -0.0614
13224W        W28355   8.924  11.437   1.060 -0.2300  0.0459 -0.1211
13225W        W28356  10.977  15.357  15.053 -0.3933 -0.3687  0.1121
13226W        W28357   8.991  14.163   1.073 -0.1397  0.2572 -0.0071
13227W        W28358  11.194  15.822   4.601  0.0300  0.1183 -0.0673
13228W        W28359   5.646  10.959  15.758 -0.2232 -0.0684 -0.1008
13229W        W28360  16.177  15.443  13.139 -0.1809 -0.1347  0.0117
13230W        W28361  11.334   8.795  15.016 -0.2462  0.2542 -0.2211
13231W        W28362  10.657   7.480  12.351 -0.0942 -0.2256 -0.1138
13232W        W28363  12.741  17.916   0.365 -0.3130  0.3047  0.0118
13233W        W28364   4.062  11.890   2.720  0.0116 -0.0992  0.1174
13234W        W28365   8.008   1.349   2.828 -0.0172  0.3398 -0.2708
13235W        W28366   8.485  11.887  11.730  0.0432 -0.4569 -0.2324
13236W        W28367   2.325  15.574   1.585 -0.1699 -0.3530  0.1434
13237W        W28368  16.894   7.920   1.603 -0.0635 -0.1124 -0.0522
13238W        W28369  14.515   2.517  13.647 -0.2923 -0.1550 -0.1773
13239W        W28370   4.646  16.792   1.362 -0.0271  0.4026 -0.4000
13240W        W28371   3.399   6.673   3.914  0.1442  0.3935 -0.3016
13241W        W28372  18.191   3.447   3.564 -0.0329  0.0590 -0.0453
13242W        W28373   2.717  10.118  13.311 -0.0041  0.0213  0.0267
13243W        W28374   7.153   9.513  15.071 -0.2452 -0.0062 -0.1259
13244W        W28375   6.833   5.111  14.435  0.2288 -0.2296  0.1547
13245W        W28376   3.851  10.392   3.408 -0.0036 -0.1037 -0.1495
13246W        W28377   8.228   6.553   5.225 -0.0351  0.1879  0.0421
13247W        W28378   9.194  15.852   2.053 -0.0318 -0.1014 -0.3836
13248W        W28379   2.667   4.516   1.594  0.2752 -0.1630 -0.1075
13249W        W28380  17.831  11.882   1.204  0.0990  0.4175  0.1178
13250W        W28381  10.606   7.489   5.738 -0.0015  0.1069  0.2769
13251W        W28382   8.400   2.697  12.161  0.1292  0.0780  0.1275
13252W        W28383  13.897   9.478  15.327  0.2083  0.0877  0.1281
13253W        W28384  16.040  10.132  14.981  0.0838 -0.0851 -0.1583
13254W        W28385   2.174   7.933  14.092 -0.0779 -0.3170 -0.3844
13255W        W28386  11.819   7.658   0.440 -0.0848  0.2055  0.0004
13256W        W28387   8.259   9.377   5.149 -0.1838 -0.0140 -0.0777
13257W        W28388  10.735   7.842   3.980 -0.1279  0.0685  0.2687
13258W        W28389  17.045  11.684  10.903  0.0109  0.1523 -0.1282
13259W        W28390   5.922   6.318   2.479  0.1830  0.0744  0.1379
13260W        W28391   8.411   7.363   1.855 -0.1400 -0.0932  0.3614
13261W        W28392   2.527   8.634  15.612 -0.4577 -0.0256 -0.2322
13262W        W28393   7.338   9.296  12.972  0.1556 -0.1869 -0.2745
13263W        W28394   0.903   6.301  13.781 -0.6732 -0.0538 -0.1294
13264W        W28395   2.656   7.932  13.873  0.1102 -0.0693  0.4222
13265W        W28396  10.794  12.128  11.501  0.0310  0.0691 -0.0336
13266W        W28397   3.697  15.258   5.664 -0.2015  0.0007  0.3604
13267W        W28398   6.903  17.312  12.684 -0.2535 -0.0428 -0.0456
13268W        W28399  12.417   7.778  13.984  0.0242 -0.0510 -0.0429
13269W        W28400  17.282  17.131  11.825 -0.3506 -0.2267 -0.4872
13270W        W28401   7.763  17.927  14.587  0.0922 -0.0534 -0.0707
13271W        W28402  13.433   3.784   0.004 -0.0912 -0.0058 -0.2537
13272W        W28403   6.716  14.351  12.720  0.0087 -0.3157 -0.1519
13273W        W28404  11.763  16.113  14.701  0.0623  0.1861 -0.0411
13274W        W28405   1.574   6.384   2.532  0.1124 -0.0980  0.0524
13275W        W28406  14.235   0.569   2.541 -0.0540 -0.1438  0.1542
13276W        W28407  17.997  14.028   2.815  0.2168  0.3213 -0.2859
13277W        W28408   0.447   9.859   3.457  0.1457  0.0738 -0.1905
13278W        W28409  18.178  16.848   4.950  0.2804 -0.2252 -0.3579
13279W        W28410  14.932   8.324   4.791  0.1220 -0.0389 -0.0239
13280W        W28411  17.100   9.559   0.111 -0.2034  0.0369  0.3635
13281W        W28412   2.983  15.584   1.792 -0.0021 -0.0042  0.0103
13282W        W28413   2.752  17.427  11.751  0.1336  0.1440  0.0537
13283W        W28414   8.306  11.756  14.802  0.1012 -0.3582  0.1378
13284W        W28415   4.707   4.588   1.385  0.2134  0.2913  0.1095
13285W        W28416   5.250   3.288  16.082 -0.0657 -0.1266  0.0635
13286W        W28417   3.613   1.527   3.669 -0.3751  0.3714  0.2157
13287W        W28418  12.419  11.482  13.302  0.3541  0.1047 -0.0160
13288W        W28419   2.706  10.818   1.023 -0.0007 -0.1078 -0.2747
13289W        W28420  13.987   4.131  11.917  0.1147 -0.3290  0.1609
13290W        W28421  18.460   3.028  14.629  0.2322  0.3055  0.0217
13291W        W28422  14.820   7.067   3.489  0.0306 -0.0841  0.1356
13292W        W28423  15.911  13.825  15.278 -0.0398 -0.0828  0.1026
13293W        W28424  16.904  11.328   3.451 -0.3139  0.0475 -0.0663
13294W        W28425   4.773  12.432   4.517 -0.1763  0.1621 -0.0073
13295W        W28426  13.488  15.289   4.058 -0.0596 -0.2578  0.1598
13296W        W28427   2.797  13.211  10.671  0.2331 -0.0889 -0.0055
13297W        W28428  11.799  14.759  13.453 -0.1066  0.0508 -0.2189
13298W        W28429   1.849  17.549   9.220 -0.0854  0.3458 -0.1363
13299W        W28430   5.506   1.404   1.489 -0.1197  0.0619  0.0870
13300W        W28431   1.938  17.111   2.661 -0.0078  0.1821  0.0510
13301W        W28432  10.833  17.848   3.414 -0.1633 -0.1836 -0.2253
13302W        W28433  10.665   3.865  15.480  0.4079 -0.1990 -0.0157
13303W        W28434   0.670  10.854  11.731  0.0995 -0.0021  0.1284
13304W        W28435  10.847   0.450   4.162 -0.1316 -0.0698 -0.1037
13305W        W28436   4.506  18.066   1.767 -0.2248  0.0349 -0.0365
13306W        W28437   4.033   2.104   1.941 -0.3378 -0.0012 -0.0092
13307W        W28438  15.943  12.468  15.168  0.1154  0.1130  0.3154
13308W        W28439   2.098   7.557  13.246 -0.4045 -0.0179  0.1603
13309W        W28440  17.254   2.653  11.615 -0.1818  0.0424  0.0135
13310W        W28441  11.467  10.679   0.065 -0.2699  0.1914  0.0825
13311W        W28442   9.817  14.374   4.789  0.2692  0.1884  0.0426
13312W        W28443  12.919   6.155   5.593  0.0629 -0.3631  0.0886
13313W        W28444   6.014  12.586  15.084 -0.2490  0.4908 -0.3207
13314W        W28445   8.599   8.122  13.625  0.2158 -0.0827 -0.0381
13315W        W28446   5.374   1.878  10.996  0.1182  0.0831  0.4704
13316W        W28447   9.205   5.273  14.382  0.0432 -0.1363 -0.3335
13317W        W28448   5.558   5.202  15.148  0.0983 -0.1069  0.0406
13318W        W28449  13.950  16.590  11.560  0.2686  0.0035 -0.5657
13319W        W28450   4.884  10.710   1.309  0.1930  0.1875  0.1349
13320W        W28451   5.754  15.582  15.469 -0.3416 -0.0204  0.2867
13321W        W28452  14.000  13.867  15.909 -0.1559  0.2151  0.0980
13322W        W28453  11.448   1.741   4.456 -0.0874  0.2862 -0.0006
13323W        W28454   9.322  17.073  11.432 -0.1077 -0.0798 -0.0119
13324W        W28455   1.199   8.063  14.854  0.1345  0.2784 -0.0090
13325W        W28456   7.816  10.308   0.065  0.2388 -0.2175 -0.1405
13326W        W28457  14.931  10.652  14.200  0.1609  0.0503 -0.0156
13327W        W28458   9.650   1.824  16.105 -0.1099  0.3101 -0.1750
13328W        W28459  16.255   7.191   2.825  0.0898  0.3360 -0.2362
13329W        W28460   4.446  12.064   1.072 -0.2207  0.0606 -0.1372
13330W        W28461   4.565   5.740   2.885 -0.0547 -0.0762  0.0204
13331W        W28462   9.283   4.193   2.121 -0.0267 -0.3672  0.0607
13332W        W28463  18.262   9.158   5.206 -0.1618  0.0758  0.0677
13333W        W28464   8.117  11.314  10.254 -0.0951 -0.2000 -0.1654
13334W        W28465   7.714   9.571  12.297  0.0341 -0.1040 -0.1257
13335W        W28466  10.422  11.825   1.011 -0.0333 -0.0114  0.1670
13336W        W28467   4.167  13.135  14.984  0.0994  0.0054  0.1581
13337W        W28468  15.925  13.378  13.958 -0.0575 -0.3210  0.1780
13338W        W28469   3.376  10.134   2.608  0.0478 -0.1537  0.0499
13339W        W28470   5.827   9.263   1.161  0.0928 -0.1249 -0.2367
13340W        W28471  15.511  11.735   1.537 -0.0112  0.1913 -0.1296
13341W        W28472   5.262  17.619   1.177  0.1673  0.0723  0.1252
13342W        W28473   6.299  11.532  11.804 -0.1995 -0.2245  0.0181
13343W        W28474   2.871   1.270   0.026 -0.4070 -0.1704 -0.2580
13344W        W28475   6.868   5.413  13.103 -0.1473  0.0438  0.0062
13345W        W28476  15.064   6.875   5.172  0.2477  0.0666 -0.2414
13346W        W28477   4.950  10.261  11.627 -0.0889  0.0138 -0.3633
13347W        W28478  17.551  11.226   3.045  0.1049 -0.0004  0.0555
13348W        W28479   5.730  12.738   0.899  0.2387 -0.2049  0.2793
13349W        W28480  10.319   7.221   0.310 -0.0620 -0.0361  0.0507
13350W        W28481   0.859   5.451  11.180  0.0345 -0.4819 -0.0236
13351W        W28482  10.330   5.247  13.376  0.0293  0.2083 -0.0398
13352W        W28483   1.087   1.829  10.963  0.0649  0.4126  0.2671
13353W        W28484  10.935   3.955  10.413 -0.0504  0.0663 -0.0365
13354W        W28485  17.078   3.509   2.778  0.1159  0.2092 -0.3883
13355W        W28486  13.039  16.463   5.652 -0.2231  0.2918  0.1152
13356W        W28487  12.052   9.082   2.197 -0.0568 -0.0698  0.0082
13357W        W28488  18.020  10.076   2.463 -0.0804 -0.3197  0.0900
13358W        W28489  16.312   1.797  11.552 -0.0007 -0.4821 -0.3951
13359W        W28490  14.835  14.132   4.183  0.1125 -0.0416 -0.0995
13360W        W28491   8.309  12.550  15.733  0.1252  0.0050 -0.0194
13361W        W28492  16.413  17.485  13.530 -0.0406  0.2269 -0.1975
13362W        W28493   0.507  10.869   0.909 -0.0062 -0.0686  0.1693
13363W        W28494   7.200   4.697  14.457  0.0324  0.2582  0.2297
13364W        W28495   7.810   6.630   3.271  0.2138 -0.1325  0.1586
13365W        W28496   9.282   8.579  14.281  0.3483 -0.2487 -0.4841
13366W        W28497   1.937   2.229   1.089  0.0220  0.1009 -0.1854
13367W        W28498   5.646  12.412   1.303 -0.1530  0.1325 -0.1007
13368W        W28499  12.967   0.821   4.365  0.1655  0.0480 -0.0804
13369W        W28500   5.683   4.940  11.556  0.1330  0.2691 -0.1385
13370W        W28501   5.585   7.428  11.498 -0.2317  0.1399 -0.1266
13371W        W28502   9.448   0.389   3.250  0.2378 -0.1159  0.1418
13372W        W28503  15.233  16.660   4.525  0.2270  0.1448 -0.0242
13373W        W28504  14.267   6.085   2.790 -0.5089  0.2972 -0.1669
13374W        W28505   0.686   1.845  12.386  0.1302 -0.1034 -0.2688
13375W        W28506   5.325   0.808   3.416 -0.0693 -0.1718  0.1198
13376W        W28507   6.224   1.429  14.074  0.2316  0.0146  0.0323
13377W        W28508   9.030  13.233  14.063  0.3051  0.2192  0.1126
13378W        W28509   1.034   4.712   2.862  0.0321  0.2036 -0.0294
13379W        W28510   2.904  13.336  14.143 -0.0645  0.3278 -0.1768
13380W        W28511   1.462  12.699   2.736 -0.1744 -0.2431  0.3250
13381W        W28512  14.997  16.285   3.986  0.0522 -0.2841 -0.3583
13382W        W28513   1.773  16.430  13.952 -0.1636 -0.0830  0.0141
13383W        W28514  10.648  17.200   4.399 -0.0549 -0.0553 -0.1657
13384W        W28515  18.260  11.361   2.497  0.1949  0.4185  0.1475
13385W        W28516  13.085   0.391  13.014 -0.1323  0.2435 -0.1942
13386W        W28517   0.001  18.244   0.938 -0.0524  0.0316  0.0633
13387W        W28518  10.295   2.957   3.288 -0.0344  0.0707 -0.0927
13388W        W28519   6.117  13.260   0.977  0.1477  0.0159 -0.1041
13389W        W28520   6.974   2.510   0.757  0.1319 -0.4456 -0.3352
13390W        W28521  14.381   5.892   0.635  0.2317 -0.3226 -0.0365
13391W        W28522  11.274  12.400  12.213  0.0530 -0.3251  0.3272
13392W        W28523  10.405   3.802   2.876 -0.0522 -0.1543  0.2443
13393W        W28524  10.020   4.130   3.545 -0.0388  0.1919 -0.1103
13394W        W28525  17.099  11.103   4.423  0.2000  0.0725  0.4043
13395W        W28526   9.177   0.894   2.376  0.0319  0.0663  0.3453
13396W        W28527   3.868   3.683   2.804 -0.1615  0.3176 -0.0226
13397W        W28528   1.505  14.175   3.296  0.0827 -0.1026  0.2516
13398W        W28529   6.412   3.380   2.943 -0.0004 -0.0026  0.0195
13399W        W28530  15.035   1.264  14.105  0.4353 -0.0173 -0.1518
13400W        W28531   0.847  12.704  10.097 -0.1330 -0.0078  0.3054
13401W        W28532   8.546   3.442  14.298  0.1714  0.0212 -0.1258
13402W        W28533  12.985  12.586  13.335  0.0238  0.0580 -0.0448
13403W        W28534   0.193  14.513  12.989  0.2418  0.1773  0.1591
13404W        W28535  12.550  13.627   2.470  0.1400 -0.0393 -0.1338
13405W        W28536   3.169  12.307   2.568  0.0444 -0.0752 -0.4364
13406W        W28537   1.924  18.367  10.754 -0.0286  0.4288 -0.2802
13407W        W28538   2.196   5.756   1.143  0.2744  0.0117  0.0253
13408W        W28539  16.116   9.491   1.194  0.0795  0.1681  0.0851
13409W        W28540   6.401  11.926  15.450  0.1763  0.4052 -0.0658
13410W        W28541  15.680  10.637   0.078  0.4655  0.0977  0.0252
13411W        W28542  17.109  16.843   0.452 -0.3331 -0.1170 -0.2565
13412W        W28543   7.375  13.371   2.234  0.2225 -0.1012 -0.0800
13413W        W28544  17.036  12.701   0.025 -0.0815 -0.1611  0.1767
13414W        W28545   4.300  17.867  15.445 -0.1894  0.0603 -0.2284
13415W        W28546   8.816   3.187  15.564  0.0862  0.0871 -0.3399
13416W        W28547   6.697   5.480   0.636  0.2346 -0.1338  0.2765
13417W        W28548   6.591  18.068   4.169  0.2769 -0.3076 -0.0647
13418W        W28549   8.149   2.400  12.474 -0.0969  0.0731 -0.1319
13419W        W28550   2.324   7.423   6.178 -0.0286  0.1370 -0.0475
13420W        W28551  13.254   7.516  12.447 -0.1130  0.3160 -0.0756
13421W        W28552  14.903   9.114  15.934  0.0601  0.0573  0.0086
13422W        W28553  10.575   0.406  13.554  0.1058 -0.0470 -0.0849
13423W        W28554   0.719  15.195  13.308  0.1445 -0.0662 -0.2259
13424W        W28555  15.866   3.959  10.918 -0.0008  0.0652  0.0200
13425W        W28556   8.734   9.125   5.313 -0.1783 -0.0046 -0.2062
13426W        W28557  14.399  15.722   3.264 -0.0670  0.2361 -0.2737
13427W        W28558   6.432  13.828   1.545  0.3191  0.3207  0.1767
13428W        W28559   0.957  16.384   0.610 -0.1995  0.0558  0.1078
13429W        W28560   7.775   4.658   0.657 -0.1971 -0.0130 -0.2488
13430W        W28561  18.292  16.343  15.498 -0.4102 -0.3320 -0.1695
13431W        W28562   2.307   7.375  13.646 -0.0394 -0.0169  0.0420
13432W        W28563   4.891   8.336  15.815 -0.4261 -0.1088 -0.3006
13433W        W28564   8.035  14.111  12.791  0.0031 -0.1274 -0.0667
13434W        W28565   8.217  17.108   5.186  0.0104  0.0397 -0.0448
13435W        W28566   7.469  12.331   6.035 -0.0384 -0.1635  0.2791
13436W        W28567  12.178  16.687   1.085 -0.2665 -0.0807  0.1485
13437W        W28568  18.150   2.596   4.642  0.0166 -0.3747 -0.1686
13438W        W28569   1.413  17.951   0.648 -0.0351 -0.1107  0.0920
13439W        W28570   7.411  13.286  15.560 -0.0127 -0.2556 -0.2480
13440W        W28571  10.863  13.467   0.888  0.0183 -0.0635 -0.0039
13441W        W28572   9.049  14.233   3.445  0.1071 -0.3750  0.1142
13442W        W28573   3.524  11.202  11.938 -0.0560  0.2836 -0.1433
13443W        W28574   9.244  16.265  11.021 -0.0536  0.0617  0.2324
13444W        W28575   2.581  11.178  10.958 -0.1386 -0.1333  0.1682
13445W        W28576  10.321  11.112   2.207 -0.0349  0.2309  0.1828
13446W        W28577   2.926   9.780  15.476  0.1420  0.4805  0.1555
13447W        W28578   2.328  13.131  12.819  0.0060  0.1103  0.1572
13448W        W28579   9.133   9.805  13.849 -0.0202 -0.2097 -0.1202
13449W        W28580   8.692   6.341  14.206  0.0424  0.1662 -0.0944
13450W        W28581   9.755  12.650   1.041 -0.1258  0.0928  0.2257
13451W        W28582  15.537   0.606  14.650 -0.2700  0.2182 -0.0624
13452W        W28583   8.578   6.436   4.125 -0.2812 -0.0873 -0.0027
13453W        W28584  14.902   6.373   6.539 -0.3189 -0.2196 -0.0027
13454W        W28585  11.202  17.255  14.441  0.0891  0.0099  0.1386
13455W        W28586  14.707   6.809  12.191  0.2736  0.2567 -0.2535
13456W        W28587  15.814   4.228  14.170  0.0924 -0.2114 -0.1422
13457W        W28588   0.804   9.863  11.383 -0.0416  0.1590  0.1422
13458W        W28589   9.333  10.611  13.351  0.2509  0.0885 -0.1040
13459W        W28590   8.322  16.367  11.454  0.0671  0.0484 -0.1962
13460W        W28591   7.507   1.486   4.334 -0.2874  0.1844 -0.1550
13461W        W28592   1.524  15.827   1.901  0.1588  0.2325 -0.1355
13462W        W28593  15.766  10.475  13.986 -0.0510 -0.1840  0.2158
13463W        W28594  16.592  11.723   3.173 -0.0519 -0.0348 -0.2131
13464W        W28595  10.024   8.130  12.806  0.2673  0.0776 -0.0848
13465W        W28596  16.273  13.679  10.994 -0.1915 -0.1053  0.0842
13466W        W28597   6.061   7.013   2.904 -0.0462 -0.0966  0.2223
13467W        W28598  17.574  17.546   1.642  0.0916  0.0502 -0.2900
13468W        W28599   6.545  16.915  12.572  0.1942 -0.1426 -0.1747
13469W        W28600  11.223   1.400  15.397 -0.0604  0.1291 -0.0639
13470W        W28601  12.884   0.870  14.413 -0.0448  0.0389  0.2924
13471W        W28602   4.912  13.798   0.630  0.0130  0.2089  0.0315
13472W        W28603  14.874  16.189  11.961 -0.1124 -0.2657  0.3102
13473W        W28604   1.141   1.303   4.144  0.0084 -0.2538 -0.0156
13474W        W28605  13.614   1.567   3.673 -0.1861 -0.1621  0.0891
13475W        W28606  15.932   3.911   2.880  0.2777 -0.0293 -0.0093
13476W        W28607  13.390   5.822   3.175 -0.2297  0.0181  0.1291
13477W        W28608   4.278  13.829  10.910  0.1503 -0.1113 -0.0538
13478W        W28609   7.560   9.856   2.051  0.0124  0.3849 -0.3160
13479W        W28610   8.255  14.653  11.197 -0.3901 -0.1895  0.0655
13480W        W28611  15.357   3.549   6.583 -0.1245  0.2465 -0.0220
13481W        W28612  14.281  15.931   1.516 -0.0982 -0.0334  0.4484
13482W        W28613   0.263   7.200   4.113 -0.0974 -0.2896  0.2447
13483W        W28614  12.995   4.140   4.219 -0.1123  0.2541  0.0779
13484W        W28615   0.790  11.935  15.334 -0.0551  0.0399  0.1377
13485W        W28616   0.283   2.401  15.871  0.2586  0.0324 -0.0554
13486W        W28617   7.701  14.341   2.516  0.2836  0.0232  0.0959
13487W        W28618  15.791  10.741   3.803 -0.1352 -0.1735  0.0539
13488W        W28619  18.119   5.665   3.642  0.2180  0.0703 -0.0298
13489W        W28620  10.232  17.118   3.711  0.2991  0.0104 -0.1160
13490W        W28621   4.306  13.210   5.682 -0.2224 -0.2348 -0.0701
13491W        W28622   7.869  12.803  13.353 -0.1277 -0.1375  0.0147
13492W        W28623  16.330   6.998   5.065 -0.3749  0.0226 -0.0493
13493W        W28624   2.313  17.913   3.022 -0.0720 -0.0944 -0.1555
13494W        W28625   6.238  14.266   4.500 -0.2662 -0.1229 -0.5184
13495W        W28626   5.429   8.738  11.345  0.0434  0.1040 -0.0581
13496W        W28627   5.854  16.551  14.197  0.1784 -0.2106  0.1279
13497W        W28628  12.621  15.125   3.393 -0.0150 -0.0396  0.2542
13498W        W28629  12.309  11.929   3.900 -0.3134  0.2843  0.2057
13499W        W28630   0.709   1.400  15.549  0.1157 -0.0615  0.1750
13500W        W28631  16.135  14.980   1.008 -0.2448  0.3626 -0.2952
13501W        W28632  16.872   0.786   4.058 -0.0607  0.3444  0.0387
13502W        W28633   1.409  11.926  10.681  0.1626 -0.4529  0.0240
13503W        W28634  12.311   0.358  11.280  0.1793  0.0292 -0.4688
13504W        W28635  13.565  11.787  14.771 -0.2513 -0.2567 -0.0390
13505W        W28636  12.923  13.868   5.013 -0.0373 -0.1939 -0.0717
13506W        W28637   7.714  11.074  11.356 -0.0090 -0.4679 -0.1672
13507W        W28638  15.738   6.988  15.351  0.0830 -0.0137 -0.1307
13508W        W28639   1.533  17.210   2.248 -0.1030  0.1357  0.0517
13509W        W28640   7.533   7.147   1.682  0.0444  0.0720 -0.0590
13510W        W28641   3.361   5.813   4.238  0.3627  0.4828  0.1259
13511W        W28642  17.342  11.756   1.058 -0.0654  0.2384 -0.0072
13512W        W28643  13.311   0.199  13.439  0.4176 -0.0095  0.1395
13513W        W28644  10.742  15.495  14.576  0.1769  0.1678  0.0839
13514W        W28645   0.717  10.096   0.335 -0.0051 -0.1137 -0.0621
13515W        W28646  10.445   4.047  11.586  0.0530  0.0751 -0.1710
13516W        W28647   2.981  11.188   1.364  0.5113 -0.0499 -0.0108
13517W        W28648   4.601   2.650   4.301  0.1411 -0.2732  0.0743
13518W        W28649  17.748   7.862  12.384 -0.2704 -0.0552 -0.0276
13519W        W28650   2.858   4.870  10.455  0.0307 -0.0505  0.0265
13520W        W28651  12.450  14.760  16.078 -0.2124  0.0248  0.0291
13521W        W28652   8.836   1.608  13.891 -0.1637 -0.1296 -0.3241
13522W        W28653  15.432   5.461   1.910 -0.1058  0.0856  0.2499
13523W        W28654   0.889   2.856   2.697 -0.1125  0.0818  0.3313
13524W        W28655  10.162  17.652   3.671 -0.0835  0.2556 -0.1840
13525W        W28656  12.808   5.796  12.026  0.2067  0.2198  0.2282
13526W        W28657   5.532   5.324   3.295 -0.1501 -0.2958 -0.1035
13527W        W28658  13.654   0.257   3.891 -0.0297 -0.0623 -0.3685
13528W        W28659  16.865   4.199   3.883 -0.1551 -0.0824  0.1519
13529W        W28660   1.120  16.648  10.188  0.1142  0.1064 -0.1218
13530W        W28661   2.815  11.262  11.423  0.3482  0.2122  0.2436
13531W        W28662  12.260  15.617   1.562  0.1230 -0.0836 -0.0597
13532W        W28663  17.472  17.604   4.455  0.1882 -0.5532  0.0809
13533W        W28664   0.501   5.148  14.468  0.0318  0.3194  0.0230
13534W        W28665   5.657   2.245  11.270 -0.1110 -0.3263  0.2374
13535W        W28666   3.890  12.106  14.284  0.1277  0.2758  0.2006
13536W        W28667  11.240  14.223   3.185  0.1077 -0.1623  0.3239
13537W        W28668  11.744  13.199   0.744 -0.0510 -0.4085 -0.0526
13538W        W28669   7.299   5.716   4.583  0.2084 -0.0469 -0.2796
13539W        W28670   6.191  13.550  10.256  0.1339 -0.1800  0.2716
13540W        W28671   7.375  16.506   1.844  0.0145  0.4574  0.1559
13541W        W28672  12.667  13.992   1.509 -0.0016 -0.0825 -0.1621
13542W        W28673   9.085   8.878  13.820 -0.0627  0.3262 -0.0038
13543W        W28674   7.551   2.480  11.616 -0.0909 -0.0653  0.0603
13544W        W28675   3.925  16.972   2.438 -0.0831  0.0087  0.1183
13545W        W28676   9.981  17.604   2.860 -0.2018 -0.2709  0.0689
13546W        W28677   7.596  15.291  10.142 -0.3647 -0.1320 -0.2309
13547W        W28678  18.222  13.301   1.449 -0.4380  0.0581 -0.3221
13548W        W28679  10.940  13.975   2.360  0.0158 -0.1126 -0.2600
13549W        W28680   0.578   4.724  13.326 -0.1563  0.2191 -0.0981
13550W        W28681   4.378   0.405   2.918 -0.1171  0.0795 -0.1169
13551W        W28682   0.863  17.108   8.967  0.0382 -0.2214 -0.0466
13552W        W28683   2.084   6.111  12.736 -0.2078 -0.1178  0.0900
13553W        W28684  10.312  15.644   2.880 -0.0052 -0.3546 -0.1094
13554W        W28685   5.225  11.502  14.541  0.0956  0.1496 -0.1713
13555W        W28686   5.026   9.728  15.537 -0.2342  0.3429  0.2523
13556W        W28687  15.756   7.771   1.924 -0.0786  0.1368  0.3113
13557W        W28688   2.762   4.837   4.241  0.1902 -0.2383 -0.4463
13558W        W28689  10.550   6.624   1.148 -0.0851  0.2749  0.0630
13559W        W28690   3.019  14.045  13.319 -0.0044  0.0418 -0.0756
13560W        W28691  16.886  13.498  11.975 -0.2555 -0.2429  0.1119
13561W        W28692   3.628  17.736   0.293  0.1686  0.1362 -0.1186
13562W        W28693  14.844   4.782   0.314 -0.0805 -0.1145 -0.3121
13563W        W28694   8.941  15.261   2.599 -0.1661 -0.1824  0.0399
13564W        W28695  11.643  14.860  10.811  0.0871 -0.0527  0.3162
13565W        W28696  15.981   0.256  14.651  0.1348  0.0334 -0.1883
13566W        W28697  14.159   0.835  16.105  0.1142  0.0243  0.0979
13567W        W28698   2.135  16.521  10.060 -0.2521 -0.2501  0.1395
13568W        W28699  11.246   8.481  14.638 -0.0275  0.0062 -0.0196
13569W        W28700  16.991   5.358   4.445  0.2272  0.0267 -0.2572
13570W        W28701  11.356  15.008  13.179 -0.1521 -0.2434  0.1553
13571W        W28702   5.677  11.864   5.237 -0.1430 -0.0863 -0.3035
13572W        W28703   8.170  17.924   4.828 -0.1460 -0.2285 -0.2747
13573W        W28704   4.172   3.429   1.370 -0.1292 -0.0766  0.3095
13574W        W28705   8.793  11.769   0.711  0.3098 -0.0205  0.1746
13575W        W28706   1.312  10.883   5.136 -0.1705 -0.2246  0.0329
13576W        W28707  18.437   4.167  15.800  0.3264 -0.1935 -0.4827
13577W        W28708  13.139   7.160   3.193 -0.2049  0.2137 -0.0071
13578W        W28709  18.103  15.343  13.132 -0.3063  0.2013  0.0621
13579W        W28710  13.306   3.824   0.900  0.1350 -0.0201 -0.1207
13580W        W28711   9.079  12.231  12.166 -0.2883 -0.4079 -0.0183
13581W        W28712  16.290   3.713  14.542 -0.2379 -0.0950  0.0479
13582W        W28713   4.714   1.719  12.210 -0.3092  0.2057 -0.2211
13583W        W28714  13.177  15.619  14.905  0.0365 -0.1490  0.1022
13584W        W28715  14.657   5.106  10.436  0.1141 -0.1361  0.0622
13585W        W28716   7.340  16.617  11.941  0.0692  0.2620 -0.3714
13586W        W28717   9.456  13.793  13.555 -0.0735  0.0523 -0.0285
13587W        W28718   3.594   2.072   0.357 -0.1773 -0.2093 -0.1907
13588W        W28719  11.682  14.453  12.445 -0.2418  0.2921  0.0156
13589W        W28720   3.072   0.013   4.609  0.1577  0.2215  0.0642
13590W        W28721  12.198  10.573   2.885 -0.2126 -0.1704  0.0596
13591W        W28722  17.821  13.776   1.553  0.0161  0.1242  0.1470
13592W        W28723  12.539   2.129  14.902 -0.3197 -0.0194  0.1340
13593W        W28724   4.809  10.775   2.687  0.1702 -0.1182  0.0966
13594W        W28725   3.320   1.665   1.186 -0.4405  0.2350  0.0786
13595W        W28726   2.800  11.074  14.964 -0.1764  0.0848  0.2287
13596W        W28727  13.806   4.815   5.776 -0.3169 -0.0310  0.1501
13597W        W28728   6.603   1.363  15.443  0.1932  0.1725 -0.0616
13598W        W28729  10.062  12.050   1.951 -0.0244 -0.1336  0.0432
13599W        W28730  10.804  17.333  13.955  0.2872  0.0555 -0.1504
13600W        W28731  17.848  14.671   4.460  0.2651  0.0274  0.1208
13601W        W28732   1.178  17.713  12.394  0.3471  0.1483 -0.0451
13602W        W28733   8.775  18.208   1.632  0.0889 -0.4290 -0.2711
13603W        W28734  10.383   7.227   4.722  0.2517 -0.1657  0.1659
13604W        W28735   9.857   1.404   2.142 -0.1583 -0.1600  0.3469
13605W        W28736  13.758  15.036   0.405 -0.1819  0.0207 -0.0537
13606W        W28737   0.031   3.349  10.672 -0.0624 -0.0261  0.0787
13607W        W28738  12.711   2.453  11.241  0.0083 -0.1252  0.1462
13608W        W28739  11.058  10.405  12.216 -0.3026  0.2272 -0.1150
13609W        W28740   8.015   3.059  10.349  0.0496 -0.0678  0.2707
13610W        W28741  15.088  15.700  14.072  0.1086 -0.2160  0.4212
13611W        W28742   7.769   8.740  13.899 -0.1138  0.2125  0.1651
13612W        W28743   0.594  15.709  13.361 -0.0974  0.1235 -0.1275
13613W        W28744   3.903   4.631  15.029  0.3989  0.0881 -0.0077
13614W        W28745   0.698   9.752  15.663 -0.4082 -0.1645  0.0309
13615W        W28746   8.307  10.362  15.799 -0.4603  0.1858  0.0002
13616W        W28747   6.322   5.896  14.353 -0.0229 -0.1568 -0.2261
13617W        W28748  13.386  17.727  12.359  0.0973  0.3428  0.1193
13618W        W28749   3.149  14.430   1.050  0.2077 -0.0440 -0.0801
13619W        W28750   3.069   0.497   1.954 -0.1068 -0.0704  0.1168
13620W        W28751   1.245   8.221   1.880  0.0798  0.0197  0.0393
13621W        W28752   0.967   0.763   3.931  0.0034  0.0775 -0.0848
13622W        W28753  16.369  14.664  12.150 -0.4510  0.3329  0.0983
13623W        W28754   8.423  16.387   3.889 -0.1776 -0.1953  0.1536
13624W        W28755  12.184  14.522  14.654  0.0173 -0.1621  0.1728
13625W        W28756   0.380   0.224  12.072  0.0963 -0.0837  0.2517
13626W        W28757  18.186  17.832  14.491 -0.1970  0.0190 -0.0969
13627W        W28758   8.912  17.370   1.974  0.1707  0.1354 -0.0814
13628W        W28759   6.843   3.699   1.104  0.2598 -0.0713  0.0633
13629W        W28760  16.053   7.193  13.097 -0.0865 -0.2014  0.1691
13630W        W28761   3.091   6.539  14.516  0.2906  0.1296 -0.2623
13631W        W28762  14.454   5.106  11.486 -0.0895  0.0158  0.0081
13632W        W28763   9.101   8.416   1.553  0.0352  0.0569  0.1266
13633W        W28764  10.426   5.901   2.551 -0.1243 -0.3510 -0.0470
13634W        W28765  11.821   3.611   1.223 -0.1214 -0.0621  0.4256
13635W        W28766   7.421   7.469   3.739 -0.3834 -0.0721 -0.0314
13636W        W28767   2.062   9.646  11.575  0.3406 -0.3567  0.3509
13637W        W28768   8.810  13.797   0.516 -0.3498  0.1011 -0.1466
13638W        W28769   5.858  11.045  15.249 -0.1051 -0.0401 -0.0260
13639W        W28770   5.297   2.898  14.185  0.2469  0.2462  0.1513
13640W        W28771  12.385   4.937   0.367  0.4849  0.0418  0.3206
13641W        W28772   4.494   5.496  11.834  0.2864  0.0121 -0.0666
13642W        W28773  17.057  14.850   2.353 -0.3134 -0.0838 -0.0602
13643W        W28774  15.526   2.020  11.975 -0.2348 -0.1700 -0.0297
13644W        W28775  16.756   1.593   5.727 -0.1402 -0.0314 -0.1383
13645W        W28776  17.870  11.368  15.086  0.3040 -0.0541  0.0590
13646W        W28777  12.121  10.175   5.693  0.1579 -0.0882 -0.4507
13647W        W28778   5.254   0.665   1.885  0.2746 -0.3137  0.1782
13648W        W28779  17.850  11.338   1.121 -0.2130 -0.1738 -0.0469
13649W        W28780   1.119  17.754   1.533 -0.0181 -0.1908  0.0662
13650W        W28781  15.019   4.498   3.675  0.2568 -0.1662 -0.3762
13651W        W28782   9.880  13.300  11.403 -0.0130  0.5137  0.2449
13652W        W28783  11.147   3.495  13.085  0.0349  0.0022 -0.1608
13653W        W28784   2.456   3.970  10.526  0.1378  0.0363 -0.5107
13654W        W28785  12.682  14.325   1.901 -0.0339 -0.0200  0.0900
13655W        W28786  13.203   5.808   5.851  0.2083  0.1800 -0.1003
13656W        W28787  12.917  14.222  14.695  0.1612 -0.1266  0.1032
13657W        W28788   2.080   1.815   4.263 -0.0080  0.3807 -0.2233
13658W        W28789   7.412  15.321   5.803 -0.1621  0.1365  0.1936
13659W        W28790   3.364   7.668  11.570 -0.1572  0.1020  0.2563
13660W        W28791   9.714  15.613  12.264  0.1905  0.0303  0.0136
13661W        W28792  11.209  14.508  12.335  0.2780  0.0061  0.1417
13662W        W28793   7.166   9.858   1.107 -0.1552  0.0174  0.0338
13663W        W28794  14.797   8.842   3.112  0.2939 -0.1545  0.1038
13664W        W28795  14.322   8.707   0.915 -0.3520 -0.0690  0.2197
13665W        W28796   3.951   0.951  14.771 -0.1035 -0.3783  0.2323
13666W        W28797   6.062  18.101  10.533  0.1992 -0.2074  0.2506
13667W        W28798   3.868  11.727  14.588 -0.4617  0.0166  0.0037
13668W        W28799  13.536  15.160  14.331 -0.0023  0.0414 -0.2701
13669W        W28800   6.624  15.035   4.180  0.0448 -0.0335 -0.1644
13670W        W28801  10.919  12.400   3.768 -0.2100 -0.1929  0.1275
13671W        W28802   8.066   8.333   1.485 -0.2491  0.0476  0.1172
13672W        W28803  18.299  10.824   2.138 -0.2419  0.0384 -0.1441
13673W        W28804   8.963   7.055   3.625 -0.0044  0.3410  0.1155
13674W        W28805  10.383  18.168   1.401  0.3432 -0.0641 -0.0502
13675W        W28806   4.195  14.132  15.050  0.3818 -0.1283 -0.0177
13676W        W28807  12.829   0.577   5.817 -0.1980 -0.0934 -0.1476
13677W        W28808  15.822   8.479  15.426  0.0898  0.3022  0.1879
13678W        W28809   2.529  11.721  12.908  0.0540 -0.1021 -0.0890
13679W        W28810   6.786  15.915   0.675  0.0804 -0.1463  0.3729
13680W        W28811   0.408  12.760  14.983 -0.3034 -0.0625 -0.0026
13681W        W28812   9.455   2.563   1.297 -0.0015  0.1541  0.1677
13682W        W28813  14.205  17.366  10.886 -0.3718 -0.1826 -0.1374
13683W        W28814   1.117   0.996  12.840  0.0865  0.3566  0.1042
13684W        W28815  17.852  16.628  12.274  0.0316  0.2575 -0.0345
13685W        W28816  15.772   9.561  13.483  0.2810  0.2346 -0.1145
13686W        W28817   1.067   2.273   3.412 -0.0933  0.0562 -0.1720
13687W        W28818  11.678   4.915  15.906 -0.0829 -0.0429 -0.0815
13688W        W28819   4.277  14.411   2.710  0.0779  0.0459  0.4676
13689W        W28820   8.983  16.481  13.688  0.2909  0.1264  0.0626
13690W        W28821  14.174  17.889   3.583  0.2194  0.2645  0.3014
13691W        W28822  18.172  15.991  10.644 -0.3085 -0.0912  0.0559
13692W        W28823  17.145   2.029  15.082  0.3402  0.0697  0.3665
13693W        W28824   6.291  17.234  14.739  0.4411  0.3794 -0.2478
13694W        W28825  17.633   7.397  12.558  0.0404 -0.2030  0.1722
13695W        W28826  13.853  14.553  15.394 -0.1104  0.0118  0.1421
13696W        W28827   1.068   9.341   4.240 -0.1512 -0.4146  0.4446
13697W        W28828   3.408   9.996  13.185  0.1540 -0.0947 -0.0491
13698W        W28829   2.044   4.480   3.059 -0.2392  0.1500 -0.0991
13699W        W28830   6.580  14.488  14.356 -0.1445 -0.0062  0.1406
13700W        W28831   9.857   3.239   0.955 -0.0204  0.2647 -0.0973
13701W        W28832   2.985   3.627  15.877  0.2417 -0.0225 -0.1732
13702W        W28833  16.801  17.579   0.582  0.3273 -0.1755 -0.0053
13703W        W28834   1.855   3.760   4.272  0.1354  0.0959  0.1477
13704W        W28835   1.074   9.958   3.543  0.2385  0.2480 -0.0884
13705W        W28836  12.105   2.175  15.143  0.0504  0.0143 -0.0340
13706W        W28837   3.925  10.706   5.056  0.1836  0.4068  0.1491
13707W        W28838   0.365  13.632   0.351 -0.1154 -0.0951  0.0908
13708W        W28839  17.545  16.499  12.643 -0.1336 -0.0585 -0.2160
13709W        W28840  17.838   8.506  11.663 -0.2832 -0.0724  0.0349
13710W        W28841  13.137  17.103   3.924  0.4312  0.0797 -0.2433
13711W        W28842  13.452  10.232   3.068 -0.3618  0.0030  0.0552
13712W        W28843  18.168   9.675  11.370 -0.0465  0.0968  0.3321
13713W        W28844  16.754  11.437   4.296  0.0872 -0.2705  0.0058
13714W        W28845   3.597   9.859   5.602  0.1416  0.0463 -0.2861
13715W        W28846  16.128  10.333   5.410 -0.2350  0.0826 -0.1492
13716W        W28847   9.531  15.362   2.165  0.1296  0.0891  0.1203
13717W        W28848  12.337   4.962  11.003  0.3255  0.1891 -0.4090
13718W        W28849   9.340   0.196  12.024 -0.0787  0.0278  0.1743
13719W        W28850   1.298  13.203   4.753  0.0283 -0.1542 -0.0978
13720W        W28851   5.162  17.963   4.154  0.0468  0.2499 -0.0791
13721W        W28852   2.349   1.799  12.794 -0.1142  0.1746 -0.1658
13722W        W28853  17.901   6.475   5.051 -0.1034  0.2348 -0.6600
13723W        W28854   3.235   7.047  14.379 -0.0852  0.5872 -0.0408
13724W        W28855   9.233   0.119  13.056 -0.1897 -0.0503  0.2646
13725W        W28856   2.194  10.996  11.811 -0.2922  0.1057 -0.1012
13726W        W28857  10.881   3.675   4.710  0.0476  0.3538  0.3982
13727W        W28858   6.822  13.997   0.071 -0.2512  0.6164 -0.0959
13728W        W28859   0.642  17.159   4.601 -0.0943  0.1611 -0.0350
13729W        W28860   0.115  15.404   1.749  0.2380 -0.1827 -0.1986
13730W        W28861  10.810   0.262   1.407 -0.1771  0.2015 -0.0175
13731W        W28862   0.247  15.405  13.156  0.0587  0.0543 -0.1135
13732W        W28863  17.661   7.743   0.245  0.2318  0.1484  0.1337
13733W        W28864  14.972   4.788   2.741  0.1871  0.2012 -0.0756
13734W        W28865  11.474  16.333  12.370  0.2851  0.1770 -0.1865
13735W        W28866  17.942   2.687   3.857  0.2651  0.0679  0.2798
13736W        W28867  13.802   5.769   5.740  0.4019  0.0590 -0.0026
13737W        W28868  12.275   9.770   2.898 -0.2677 -0.2879 -0.3079
13738W        W28869  16.600   4.216   5.613  0.2646  0.1180 -0.1461
13739W        W28870  14.917  16.977  12.753  0.0600  0.0295 -0.1050
13740W        W28871   2.427  11.759  15.612  0.2455 -0.1129  0.0936
13741W        W28872  11.177  11.971  11.911  0.1457 -0.0236  0.1350
13742W        W28873   3.748   7.113  13.889  0.1687 -0.2063  0.0348
13743W        W28874  14.182   4.469   3.707  0.1765  0.2909 -0.0775
13744W        W28875  14.410  11.196   0.318 -0.1004  0.0885  0.0048
13745W        W28876   5.392   4.591  12.189  0.1137 -0.2016  0.0013
13746W        W28877  18.046   8.205   3.008  0.0684 -0.0626  0.0604
13747W        W28878   7.842  13.042  14.354  0.2841  0.1172  0.2108
13748W        W28879   0.821   3.895  15.041 -0.1064 -0.5512 -0.1360
13749W        W28880   3.421  13.280   0.700  0.2808  0.0339 -0.0707
13750W        W28881   1.644  14.636  12.167 -0.0911 -0.4578  0.0463
13751W        W28882   5.298   5.850   0.551 -0.1017  0.2003  0.0569
13752W        W28883   3.442   7.064   2.966  0.0074  0.1687 -0.2587
13753W        W28884  15.894   3.699   1.621 -0.3282  0.2765  0.0116
13754W        W28885   7.937   1.544   3.745 -0.1573 -0.1055  0.2392
13755W        W28886   3.476   3.426   0.175 -0.0100  0.3359 -0.1860
13756W        W28887   4.365   4.227  10.863  0.1262  0.0982  0.0714
13757W        W28888  17.627  13.832   5.694 -0.2095  0.0578 -0.0458
13758W        W28889  15.473  18.097  13.460  0.0654 -0.1462  0.0677
13759W        W28890  17.398   9.566   1.414  0.3287  0.0218 -0.1407
13760W        W28891   2.685   2.983  12.129 -0.2899 -0.1640 -0.0708
13761W        W28892   4.020  15.970  15.706  0.2140 -0.2199 -0.2692
13762W        W28893   5.608   7.403   1.576 -0.2604  0.2214  0.4030
13763W        W28894  14.947   7.221   4.438  0.1091  0.0146 -0.0001
13764W        W28895   8.175  12.336   1.651  0.0364 -0.2261 -0.0425
13765W        W28896   7.286  14.747   2.571 -0.1686  0.1147 -0.2390
13766W        W28897  15.161   7.955  15.091 -0.1425 -0.1108 -0.1894
13767W        W28898   3.110   2.028   1.538 -0.0093 -0.0220  0.1929
13768W        W28899  15.419   4.552  14.297 -0.0527 -0.1125 -0.0212
13769W        W28900  10.828   5.716   3.304 -0.1207 -0.1149 -0.1320
13770W        W28901   3.783  10.876  11.125 -0.0010 -0.2448  0.0697
13771W        W28902  16.320  17.910   5.132 -0.0153  0.1441  0.1091
13772W        W28903   1.158   4.137  10.385  0.2447 -0.1890 -0.2858
13773W        W28904  16.996   6.299   1.308 -0.0993  0.1190  0.0299
13774W        W28905  14.617   5.311   5.637  0.0076  0.5830  0.3959
13775W        W28906  18.249   3.235  13.236  0.0406  0.0304 -0.1307
13776W        W28907  14.552  11.134   4.897 -0.2208  0.1258  0.2124
13777W        W28908   9.632  13.024   0.097  0.2169  0.0407 -0.0654
13778W        W28909  11.928   4.345   4.539 -0.1975  0.2585  0.3437
13779W        W28910  12.169   2.157   4.263 -0.0282  0.0049 -0.2422
13780W        W28911   5.439   3.076  13.745  0.1577 -0.2384 -0.2712
13781W        W28912   1.394  15.392  14.785 -0.0318  0.0919 -0.2220
13782W        W28913   1.628   0.963  12.090 -0.0856 -0.1328 -0.0764
13783W        W28914  12.256   1.928   5.526 -0.2099 -0.1268 -0.0452
13784W        W28915   0.228   3.340  15.516 -0.2539  0.2567  0.1962
13785W        W28916  14.617  18.212   1.106  0.2001  0.0809  0.2263
13786W        W28917  17.132   5.142   3.248 -0.2329 -0.2125 -0.0106
13787W        W28918   8.037  14.134   0.395 -0.0451 -0.4519 -0.1409
13788W        W28919   1.701  10.737  12.527  0.0249 -0.0641 -0.1480
13789W        W28920  17.936  16.643  15.218  0.0324 -0.0562 -0.0658
13790W        W28921  17.695  17.205  11.519  0.2639  0.1051 -0.1915
13791W        W28922   4.792   1.578  12.678  0.1577  0.1358 -0.0866
13792W        W28923   8.209   0.912   4.436 -0.0117  0.0180  0.1916
13793W        W28924   7.843  15.063   2.686  0.0697 -0.2292 -0.0902
13794W        W28925   9.708   9.317  11.650 -0.0878  0.3434 -0.1324
13795W        W28926  15.366   9.736  11.791 -0.1456  0.3258 -0.1632
13796W        W28927   1.827   6.124   2.170 -0.0143 -0.3110 -0.3186
13797W        W28928  10.750  12.626  12.436  0.2229 -0.1218  0.0642
13798W        W28929  17.783  16.056  12.602 -0.1098 -0.0737 -0.1685
13799W        W28930  11.977  16.608   0.583 -0.3626 -0.1520  0.3860
13800W        W28931   4.397  11.915  11.349  0.1484 -0.0468  0.2814
13801W        W28932   6.112   8.892  12.930  0.4727  0.2228 -0.1086
13802W        W28933   1.927  16.507  11.462  0.0735 -0.0247 -0.2150
13803W        W28934   9.672  11.531  13.797  0.1887  0.0661  0.1181
13804W        W28935  13.950  17.067  13.615 -0.0962 -0.0987 -0.1413
13805W        W28936  12.733  12.779   3.266  0.0852 -0.0404  0.1333
13806W        W28937  17.064  10.857   0.721 -0.4444  0.0323 -0.0472
13807W        W28938   7.209  16.322   1.394  0.1384 -0.1591 -0.0682
13808W        W28939  15.847  10.720  15.700  0.0953  0.3351 -0.0231
13809W        W28940  11.189   2.656  14.816 -0.1748 -0.2502 -0.0476
13810W        W28941   8.291   3.584   5.724 -0.2371  0.0268  0.2179
13811W        W28942   0.741  16.006   2.186 -0.5195 -0.4312 -0.0499
13812W        W28943  13.994   5.175  10.273 -0.1002 -0.0477 -0.1076
13813W        W28944  12.742  16.003   4.529 -0.0822 -0.0767  0.1009
13814W        W28945   4.244   2.724  12.604  0.0716  0.2788  0.0425
13815W        W28946   0.381   2.286  11.572 -0.2674 -0.1353 -0.4152
13816W        W28947   2.244   4.931   1.672 -0.1205  0.0196 -0.3840
13817W        W28948  16.751  12.277   2.031 -0.3057  0.2189  0.2864
13818W        W28949   1.740   3.838   1.065  0.0142  0.3418 -0.3090
13819W        W28950   4.658   0.554  14.511  0.1366  0.3113  0.1645
13820W        W28951  16.830  17.304  15.363 -0.3894  0.2580  0.0353
13821W        W28952   6.385  18.291  14.313  0.1249  0.0682 -0.1970
13822W        W28953  13.651  16.168  11.549  0.1754 -0.1309  0.2664
13823W        W28954  12.731  10.150  13.068  0.3085  0.0500 -0.2359
13824W        W28955   0.758  16.914  13.908 -0.2106 -0.0348  0.1254
13825W        W28956   4.707  14.535   1.289  0.1480 -0.4209 -0.0641
13826W        W28957   8.197  14.888   5.506 -0.1279 -0.2892 -0.0685
13827W        W28958  12.579   8.730   6.589  0.2392  0.0828  0.2901
13828W        W28959   2.305  10.018   0.787  0.0280  0.0357  0.0195
13829W        W28960  15.901  11.236   3.719  0.1939 -0.1979 -0.1354
13830W        W28961  16.918   2.086  11.135  0.2880  0.3328 -0.4056
13831W        W28962  14.921  11.616   4.801  0.3102 -0.3899 -0.3484
13832W        W28963  11.949  16.973   3.885 -0.2652 -0.0855  0.1365
13833W        W28964   9.989  16.063   1.982 -0.0956 -0.1350  0.3439
13834W        W28965   5.655   7.196  15.648  0.0258  0.1671  0.2777
13835W        W28966  10.827   6.878   0.812 -0.1771  0.0980  0.2514
13836W        W28967  13.515  12.565   4.140 -0.2370  0.3771 -0.0823
13837W        W28968   6.294  12.399   1.715 -0.1668  0.1055 -0.4032
13838W        W28969  15.885  11.732   4.108 -0.0470 -0.0912 -0.0302
13839W        W28970   8.585  15.560   3.435  0.0553  0.3410  0.0831
13840W        W28971   2.363  10.832   4.692 -0.3384  0.2860 -0.2450
13841W        W28972   1.630  14.360   0.622  0.0882 -0.0980  0.3232
13842W        W28973   3.098   3.221   9.464  0.5072  0.2300  0.0123
13843W        W28974  17.072  13.649  13.863 -0.2172 -0.0967 -0.2293
13844W        W28975  15.854  14.233   3.658  0.2253  0.2114 -0.0658
13845W        W28976   0.474  11.349  11.720  0.0728  0.0033 -0.0575
13846W        W28977   2.992  14.051  11.425  0.0487  0.1964 -0.2124
13847W        W28978   6.519   9.828   0.419 -0.4159  0.2843 -0.2870
13848W        W28979   7.732   7.129  14.029 -0.0519 -0.3163 -0.1500
13849W        W28980  14.700  13.060   4.046 -0.1400  0.1019  0.1415
13850W        W28981  11.841  14.438   5.465 -0.0116  0.0193  0.4512
13851W        W28982   9.254   6.358  15.961 -0.3562 -0.0202 -0.0146
13852W        W28983   9.194  16.494  14.124  0.1098 -0.2792  0.3255
13853W        W28984   9.624   4.777  11.446 -0.2486 -0.1194 -0.3204
13854W        W28985   8.216   8.782   4.970  0.1204 -0.0888 -0.2652
13855W        W28986   5.188  13.346   0.796 -0.1221 -0.1477 -0.1682
13856W        W28987   1.520   3.775   2.751  0.2143 -0.0210 -0.1987
13857W        W28988   1.094  15.699  13.462  0.0519  0.1638  0.1300
13858W        W28989  14.277  16.893   3.822 -0.1602 -0.2906 -0.2211
13859W        W28990  14.452   3.441   1.657  0.1578  0.2479  0.2463
13860W        W28991   0.632   9.433   4.626  0.0120  0.1551 -0.0554
13861W        W28992  16.340  18.109   1.452  0.1728  0.1908  0.2808
13862W        W28993  12.446  15.963   4.086 -0.1540  0.1082 -0.0572
13863W        W28994   0.143  11.201  13.650  0.3208 -0.1529 -0.0103
13864W        W28995   5.621   1.393  11.131 -0.0589 -0.0563 -0.1054
13865W        W28996  11.800   9.781  12.105 -0.0974 -0.1329  0.2274
13866W        W28997  11.682  15.261   3.470  0.2320  0.1000 -0.0044
13867W        W28998   0.418  16.362  11.278 -0.0776 -0.1099  0.0953
13868W        W28999   9.890   7.509  11.664 -0.0524 -0.0363 -0.0919
13869W        W29000   2.654   7.718   0.117 -0.0699  0.1579  0.0128
13870W        W29001   0.092   9.756  10.911  0.1759  0.1663 -0.3839
13871W        W29002  15.559  17.439   4.367 -0.2008 -0.2561 -0.4050
13872W        W29003  14.807  11.263   5.681  0.0223 -0.0049  0.0277
13873W        W29004  16.250  15.778   0.957 -0.3537  0.0554 -0.1002
13874W        W29005  15.651  10.814  13.659  0.0749  0.3059  0.0395
13875W        W29006   4.602   0.842   0.669 -0.0564 -0.0097 -0.2983
13876W        W29007   9.487   2.618   4.424 -0.0837  0.1523  0.0335
13877W        W29008  15.619   4.358   0.742  0.0284  0.1117  0.0634
13878W        W29009   0.545  14.296   9.467 -0.0025 -0.0209  0.0295
13879W        W29010  15.604   3.246   4.177  0.2710  0.0673 -0.1201
13880W        W29011  10.481   6.770   0.188  0.1488  0.2846  0.3391
13881W        W29012  14.328  13.052  10.925  0.0928 -0.0789 -0.2858
13882W        W29013   5.570   1.864  11.547  0.1094 -0.0674 -0.0418
13883W        W29014  11.447  17.204  12.687 -0.1339 -0.0337 -0.1614
13884W        W29015   6.775  17.756  10.803  0.1803  0.0628  0.0037
13885W        W29016  18.268   0.418  15.093 -0.1900 -0.0681  0.1892
13886W        W29017   1.354   1.364   3.288 -0.0155  0.0811  0.0884
13887W        W29018   4.515   4.646  12.231  0.4338 -0.1065 -0.0145
13888W        W29019   2.244   8.121  13.653 -0.2432 -0.1331  0.0022
13889W        W29020  11.785  17.268  11.312 -0.0050  0.1768  0.3078
13890W        W29021   6.520  17.230  12.955 -0.0925 -0.0917  0.0545
13891W        W29022   5.333  15.715  10.726  0.0753 -0.2444 -0.2292
13892W        W29023   4.245   6.236   1.620  0.0953  0.0811 -0.3711
13893W        W29024  12.146   3.828   1.795  0.0061 -0.3590 -0.0435
13894W        W29025   1.245  13.463  14.707 -0.2284 -0.0405  0.2833
13895W        W29026   1.134   5.917  15.137  0.2872  0.3104  0.2485
13896W        W29027   5.921   0.917  14.583 -0.2247 -0.2679 -0.2037
13897W        W29028  12.372  12.188   4.379  0.0333 -0.0353  0.0003
13898W        W29029   4.391   2.794   1.671  0.2405  0.2787 -0.1279
13899W        W29030   0.848   2.324  12.317  0.3716  0.1031 -0.1524
13900W        W29031  17.663   1.622   1.315 -0.2380  0.1975 -0.0682
13901W        W29032  10.552   2.916  11.569 -0.1481 -0.2402 -0.0137
13902W        W29033   9.418   3.150  14.400  0.1504 -0.0489  0.2899
13903W        W29034   6.442   0.683   1.636  0.1648 -0.2542  0.2123
13904W        W29035   5.343   5.885   2.423  0.1752  0.1045  0.1603
13905W        W29036   0.403  12.780  13.754 -0.0864 -0.0581 -0.0868
13906W        W29037  13.426  16.570  11.708 -0.1481  0.3493 -0.2826
13907W        W29038  14.973  15.647  13.573 -0.0277  0.0020 -0.2862
13908W        W29039   2.769   9.988   5.232  0.0039  0.0902  0.1085
13909W        W29040   7.632   2.572  12.746 -0.3374  0.0652  0.0692
13910W        W29041  16.158   6.870  13.988  0.1651 -0.0924 -0.0482
13911W        W29042   9.726   5.677  11.829  0.0697 -0.1636  0.3029
13912W        W29043   4.217   5.798   5.284 -0.0986 -0.0040  0.2229
13913W        W29044  17.314   2.040   1.948 -0.1577  0.0434 -0.1652
13914W        W29045   9.766   6.906   3.197 -0.1934  0.0882  0.2153
13915W        W29046  17.135   1.042  11.535  0.0444  0.1081  0.0216
13916W        W29047   8.414  14.753   0.683  0.0728  0.1487 -0.0615
13917W        W29048  17.484   2.740   3.529 -0.1128  0.0148  0.1677
13918W        W29049  16.756   8.993   2.476 -0.2369 -0.1121 -0.2638
13919W        W29050  11.469   4.731  10.529 -0.1764  0.1698 -0.2033
13920W        W29051   2.412   5.107   4.670  0.0395 -0.0150 -0.2602
13921W        W29052   4.622  18.474   2.678  0.0245 -0.2567  0.2230
13922W        W29053   4.134   1.744   3.402  0.0794 -0.1162  0.0498
13923W        W29054   4.861   4.566  12.560 -0.1061 -0.0606  0.0393
13924W        W29055   8.980   5.559  11.719 -0.1497 -0.1039 -0.0615
13925W        W29056   9.412  11.368   5.100 -0.2375  0.0563  0.1259
13926W        W29057   3.623   4.219   0.583 -0.2700 -0.1999  0.1312
13927W        W29058  18.296   9.744   1.029 -0.0891 -0.2044 -0.1835
13928W        W29059  10.678   3.330   4.349  0.1762 -0.0866  0.0962
13929W        W29060  16.545  18.394  11.553  0.0942 -0.0277  0.1281
13930W        W29061   6.532   7.724  14.138  0.0870 -0.1143 -0.1149
13931W        W29062  13.471   1.071   1.069  0.0300 -0.4810 -0.4053
13932W        W29063   3.636   9.435   0.982 -0.0406 -0.2188 -0.1116
13933W        W29064  15.071   1.721  11.976  0.0533 -0.0345  0.0829
13934W        W29065  10.164   8.187  12.256 -0.0373  0.1507 -0.2475
13935W        W29066   4.807   8.989   1.762 -0.2572  0.0927  0.1316
13936W        W29067  17.406   5.337  14.312 -0.1560 -0.1341  0.0640
13937W        W29068   2.519  10.169   2.413 -0.1485 -0.0868  0.0003
13938W        W29069   0.392  11.053   4.862 -0.0762 -0.1315  0.3309
13939W        W29070  12.353   5.154  12.635 -0.4207  0.0715  0.1989
13940W        W29071   2.434  12.322   5.149 -0.0092  0.2885  0.1363
13941W        W29072  14.872   8.704   2.096 -0.2937  0.0278  0.2018
13942W        W29073   3.550   9.128  11.388 -0.0487 -0.0989 -0.0757
13943W        W29074   0.974   5.145   1.806 -0.1241 -0.2666 -0.1480
13944W        W29075   7.383  17.584  15.878  0.1333 -0.1380 -0.1507
13945W        W29076  14.087   0.968   5.467 -0.0084  0.0979  0.2174
13946W        W29077  11.517  12.603  13.630  0.3236 -0.1768  0.0910
13947W        W29078  10.012   7.210   6.394 -0.0843  0.4158 -0.1480
13948W        W29079  15.490   2.180  12.819 -0.1294 -0.0824 -0.0341
13949W        W29080  12.220  15.826   2.883 -0.0201 -0.6496  0.1385
13950W        W29081   1.136   2.710  14.252  0.0991  0.4292 -0.2557
13951W        W29082   0.724   8.722  15.162 -0.0840  0.2281  0.3203
13952W        W29083   9.209   8.599   3.327  0.2010 -0.3384  0.0773
13953W        W29084   5.495  10.205   3.724  0.4260 -0.1463 -0.0596
13954W        W29085  11.812  10.432  14.778  0.1543 -0.0856  0.0889
13955W        W29086   7.015  15.029  15.350  0.2302  0.1306 -0.0520
13956W        W29087  15.079   3.824  12.241  0.1157  0.1046 -0.2852
13957W        W29088   0.327   1.835  11.310 -0.1852  0.3657 -0.0883
13958W        W29089   7.690  12.870   4.097  0.0931  0.1330  0.0460
13959W        W29090   2.405  14.120  12.602 -0.0334  0.2280  0.2511
13960W        W29091   8.716   6.039   2.171 -0.0787  0.0247 -0.1044
13961W        W29092  12.030   1.012  11.984 -0.2857 -0.0011 -0.0076
13962W        W29093   6.008  10.725  13.072  0.3471  0.1666 -0.0967
13963W        W29094   2.127   0.322   2.321  0.3894  0.2621  0.0965
13964W        W29095  12.404   0.128  14.254  0.4386 -0.1012  0.1349
13965W        W29096   2.072  12.523   4.925  0.2792 -0.0345  0.0398
13966W        W29097   4.283   4.937  14.758 -0.1974 -0.1353  0.1754
13967W        W29098   6.309  12.741  10.779  0.2090 -0.1735 -0.0326
13968W        W29099  17.546   6.348   4.662 -0.3157 -0.2141 -0.1123
13969W        W29100  16.148   2.367   5.608  0.2079  0.0766  0.3333
13970W        W29101  14.299  18.108  14.355  0.0143  0.0138  0.1046
13971W        W29102   5.947   8.858   2.977 -0.0566  0.2380  0.1296
13972W        W29103   3.055   0.999  12.354 -0.0828  0.1421  0.0628
13973W        W29104   0.414  18.123  14.354 -0.0313  0.0570 -0.3020
13974W        W29105   6.558   0.731  13.046 -0.0549 -0.1006  0.1311
13975W        W29106   5.328   7.813   3.759  0.0019  0.0040  0.3726
13976W        W29107   8.395   4.209   2.555 -0.2871  0.0081 -0.4568
13977W        W29108   5.356  10.815  11.986 -0.0637 -0.0164  0.0509
13978W        W29109  16.061  12.982  15.119  0.0402 -0.0325  0.0054
13979W        W29110   3.093   4.748   3.298 -0.2722  0.1358 -0.0395
13980W        W29111  10.672   8.769   5.515 -0.1735 -0.1026 -0.1313
13981W        W29112  11.851  17.990  14.298 -0.0105  0.0403 -0.3698
13982W        W29113   8.262  15.122  14.002 -0.1324 -0.0031 -0.0673
13983W        W29114   9.466   2.765  11.525 -0.2492  0.1449 -0.0036
13984W        W29115   4.112   9.598   2.097  0.1682 -0.0617 -0.1208
13985W        W29116  12.576  16.561  11.205  0.0815 -0.2090 -0.4685
13986W        W29117   7.081   2.517  15.861 -0.4077  0.1604 -0.0430
13987W        W29118  18.053  16.560  12.897  0.1757 -0.2460 -0.0091
13988W        W29119   2.241   1.613  12.283 -0.1173  0.1228  0.1633
13989W        W29120  10.426  16.391   1.836 -0.0529 -0.0424 -0.1398
13990W        W29121   1.834   5.150  12.753 -0.1516  0.4113  0.1230
13991W        W29122  15.176  15.451   1.542  0.1095  0.0955 -0.1364
13992W        W29123   2.173  16.530   1.029 -0.1542 -0.1190  0.3112
13993W        W29124   6.756   0.989   2.879  0.0994  0.2332 -0.1792
13994W        W29125  11.836  14.349  11.321  0.0026 -0.0696  0.3041
13995W        W29126   2.437   3.152  13.394 -0.0516 -0.3082  0.3128
13996W        W29127  13.332   5.531   1.305  0.1946  0.1633  0.0700
13997W        W29128  18.440   7.325  13.771  0.1516  0.0813 -0.2074
13998W        W29129   1.433  11.687   0.454  0.0126  0.3197 -0.0947
13999W        W29130  12.006  14.221  13.373 -0.0653  0.0555  0.0105
14000W        W29131  12.888   8.812  14.726  0.1412  0.0862 -0.1633
14001W        W29132  12.702   7.460  14.405 -0.0801  0.6109  0.1877
14002W        W29133  17.115   9.141  13.866 -0.1629  0.2787 -0.3343
14003W        W29134  13.272  13.669  11.005 -0.3526  0.0484 -0.0097
14004W        W29135  13.790  15.172  15.315  0.0459  0.3073  0.0432
14005W        W29136  17.665  14.585  14.931  0.1119 -0.2018 -0.0403
14006W        W29137   5.362  12.507   4.504 -0.0899  0.1464  0.3937
14007W        W29138   5.751  17.558   4.764  0.5339 -0.2826  0.1265
14008W        W29139  16.459   7.030   4.096  0.3850  0.0532 -0.0077
14009W        W29140   6.777   7.707   0.264 -0.0414  0.2802 -0.4269
14010W        W29141  15.160   2.048   0.128 -0.0034  0.0157 -0.2428
14011W        W29142  17.260   3.945  12.752  0.1499  0.0141 -0.4648
14012W        W29143  17.902  13.073   1.816 -0.0094  0.0755  0.1153
14013W        W29144   7.277  13.787  14.630 -0.1860  0.0367 -0.0347
14014W        W29145  11.536  17.818   1.487 -0.1514 -0.0342 -0.0232
14015W        W29146  10.347  10.439   0.593 -0.2254  0.2996  0.0811
14016W        W29147  16.967   4.308   0.075  0.3573  0.1781  0.2257
14017W        W29148  18.369   5.108   4.582  0.1262  0.4291 -0.0938
14018W        W29149   1.213   4.343   5.254 -0.0994  0.1264 -0.0044
14019W        W29150   7.885   8.891   5.382  0.1012  0.1195 -0.0510
14020W        W29151   7.702   3.248  14.604  0.5625 -0.0496 -0.3266
14021W        W29152   4.894   3.700   1.345  0.1165 -0.1800 -0.2727
14022W        W29153  11.873   9.908  12.620  0.0254 -0.1507 -0.2579
14023W        W29154   0.255   1.264   0.533 -0.2555  0.3131 -0.0006
14024W        W29155  13.828  10.753   3.740 -0.0677  0.1177  0.1168
14025W        W29156  12.487  13.698   4.730 -0.0031  0.0338 -0.1766
14026W        W29157   2.624   3.745  12.698 -0.2536  0.0860  0.1502
14027W        W29158   7.449  17.151   2.197 -0.1856 -0.1788 -0.1742
14028W        W29159  13.480  11.680   3.720 -0.4382  0.2293 -0.0927
14029W        W29160   5.703   6.984  12.249 -0.1049  0.1930  0.1254
14030W        W29161  10.842   1.484   2.998  0.0815 -0.4820  0.0496
14031W        W29162   6.437   9.034   3.144  0.0463  0.2343 -0.3385
14032W        W29163  12.493  10.549   0.355 -0.3687  0.0553 -0.0541
14033W        W29164  10.323  11.563   3.657 -0.1500  0.0604  0.2179
14034W        W29165   4.460   8.449  15.503 -0.0435  0.0533  0.2952
14035W        W29166  12.424  13.205   5.013 -0.2708  0.2164 -0.0222
14036W        W29167   4.433   7.347   0.832 -0.0614  0.0989  0.0556
14037W        W29168  11.760   1.939   4.063  0.0744  0.2652 -0.0063
14038W        W29169   0.597  10.048  12.528 -0.1119 -0.0792  0.0773
14039W        W29170   1.131  12.819   3.184  0.0276 -0.0679 -0.0511
14040W        W29171   0.516  15.413  10.375  0.1360 -0.0799  0.0321
14041W        W29172   1.062   2.358   2.597  0.3380  0.1031 -0.0032
14042W        W29173  12.713  11.568  11.385 -0.3898 -0.2265 -0.0359
14043W        W29174  17.085  10.590   5.165 -0.2626  0.3073 -0.0638
14044W        W29175   5.443   1.008  10.699  0.2705  0.0290  0.0697
14045W        W29176  12.773  14.410  15.961  0.1307  0.1937  0.0840
14046W        W29177   6.691   5.788   2.449 -0.2185 -0.0931 -0.1801
14047W        W29178   4.146   5.066   0.705 -0.0282  0.1369 -0.2147
14048W        W29179   2.577   0.411   2.204  0.1258  0.3941  0.1369
14049W        W29180  17.680  11.550  16.105  0.0967  0.1220  0.1344
14050W        W29181   9.947  14.839  13.193 -0.0501 -0.1922  0.2340
14051W        W29182   7.349   5.336  15.267 -0.1404 -0.0226  0.0688
14052W        W29183  17.823   2.834   0.755 -0.1701 -0.0954 -0.1550
14053W        W29184  15.550   2.166   3.694 -0.0138  0.1601 -0.0960
14054W        W29185   1.458   0.760   3.166 -0.0400 -0.1779  0.3110
14055W        W29186   6.239   5.343   0.491  0.0544  0.2309 -0.1515
14056W        W29187  15.269   8.769  13.640  0.2466  0.1398 -0.2276
14057W        W29188  13.707  17.016  11.657 -0.1164  0.1781  0.1998
14058W        W29189  12.201   0.003   3.815  0.0197  0.0410 -0.2424
14059W        W29190   7.672   2.337   1.143 -0.0620 -0.1289 -0.2566
14060W        W29191   2.969  10.243   2.836  0.2931 -0.0191  0.1805
14061W        W29192  12.109  10.553   4.106 -0.1601  0.0027  0.0819
14062W        W29193  10.664  18.011  11.807  0.1744  0.2694 -0.2851
14063W        W29194  15.445  14.254  11.125 -0.2745 -0.0937  0.1668
14064W        W29195  18.335   8.297  13.288  0.1364  0.2600 -0.1397
14065W        W29196  15.437  10.999  15.875  0.0424  0.0943  0.0852
14066W        W29197   2.778   7.231   0.775  0.2265 -0.1449  0.0293
14067W        W29198  16.362   5.897  15.863  0.0845 -0.0906 -0.1651
14068W        W29199  14.478   8.279   2.658 -0.2184 -0.3493 -0.3778
14069W        W29200  18.276   2.060   0.863  0.0677  0.1808  0.2720
14070W        W29201  16.787  14.207   1.153 -0.1960 -0.0886 -0.0253
14071W        W29202  13.902   6.305   4.808 -0.1931  0.0106  0.1282
14072W        W29203   4.215   7.398  13.629  0.1242  0.2246  0.1449
14073W        W29204  14.792   1.776   4.671 -0.2626  0.2712 -0.1883
14074W        W29205  17.018  15.741   4.368 -0.1492 -0.0895 -0.1257
14075W        W29206  12.606   7.264   1.340 -0.1106  0.0251 -0.0769
14076W        W29207  11.965  17.906  11.714 -0.1439  0.2277 -0.1789
14077W        W29208  17.451  15.680   2.813 -0.0370  0.0268 -0.0774
14078W        W29209   9.942  15.111   2.824 -0.1332  0.4064  0.0229
14079W        W29210   0.249  18.126  11.564  0.0588  0.1271  0.1124
14080W        W29211   2.108  16.042  14.969  0.0251  0.2914  0.1900
14081W        W29212  13.104   0.208   1.764  0.2703 -0.0220  0.2368
14082W        W29213  14.283   5.144  13.532  0.2967 -0.0803  0.1283
14083W        W29214   3.494   3.802   3.338  0.1107  0.0395 -0.2537
14084W        W29215  11.246  14.066  16.038 -0.1362  0.0109  0.4151
14085W        W29216   1.833   8.448   2.087  0.3245  0.1888  0.3491
14086W        W29217  11.970   4.148  13.928  0.1658 -0.1469 -0.0145
14087W        W29218   3.968   3.632   2.101  0.2078 -0.2509 -0.1455
14088W        W29219   1.321   6.532  15.050 -0.1359  0.0315 -0.0340
14089W        W29220   8.552  14.083   0.202  0.0457  0.0095 -0.5992
14090W        W29221  15.129   1.130   0.337  0.1365  0.3810 -0.0696
14091W        W29222  11.754   2.805   0.378  0.2105 -0.2457  0.2435
14092W        W29223   9.617   6.632  14.885  0.0799 -0.1385 -0.0461
14093W        W29224  12.218  14.080   5.079  0.0553  0.0513  0.1681
14094W        W29225  17.982   8.303  12.483  0.0001  0.3795  0.1321
14095W        W29226  14.054  15.846   0.922 -0.1992  0.0049 -0.0253
14096W        W29227  14.336   6.759   3.417  0.1366  0.2174  0.2972
14097W        W29228   8.760   4.590   3.774 -0.0772 -0.1357 -0.1070
14098W        W29229  18.086  14.205   0.333  0.4394 -0.1621  0.1613
14099W        W29230   0.462   5.953  12.806 -0.1208  0.1025 -0.2829
14100W        W29231   7.020   6.416   0.559  0.2404 -0.0234  0.0920
14101W        W29232  12.814   1.146  13.293 -0.0136 -0.2488  0.0945
14102W        W29233  11.474   6.309   3.252 -0.0295 -0.0831  0.0973
14103W        W29234   5.803   8.583   3.866 -0.0965 -0.1617  0.1506
14104W        W29235  12.621  16.621  12.727  0.0483  0.1419  0.1896
14105W        W29236  12.372  16.272   2.120 -0.0435 -0.0096  0.1162
14106W        W29237   1.855  13.647   0.410  0.2696 -0.0297  0.3453
14107W        W29238   3.989  10.672  12.506 -0.0097  0.1835  0.1444
14108W        W29239  16.332  16.741  14.545  0.0686  0.0389 -0.0274
14109W        W29240  10.052  11.029  11.391 -0.0075 -0.0436  0.3168
14110W        W29241   6.165   5.946   4.944  0.0249  0.0387  0.1553
14111W        W29242  16.160   7.276   5.858  0.3176  0.1282  0.0868
14112W        W29243  10.064  15.243   4.996 -0.2271 -0.1227  0.0893
14113W        W29244   1.939  16.767  10.410  0.3706 -0.2360  0.0797
14114W        W29245   4.498   4.236  13.214  0.0200 -0.0961 -0.0909
14115W        W29246  16.329   3.749   5.388  0.1368  0.2830 -0.1386
14116W        W29247   8.228   8.539  12.153  0.2171 -0.1497 -0.2597
14117W        W29248  17.111   0.130  13.738  0.0852 -0.0811 -0.2858
14118W        W29249   6.114  12.305   1.237  0.1005  0.1517  0.1331
14119W        W29250  17.078  15.589   0.265 -0.0541 -0.2236  0.0935
14120W        W29251  12.910   7.090   3.695  0.3556  0.1429 -0.2834
14121W        W29252  16.367  11.282   1.841 -0.0375  0.0564  0.0445
14122W        W29253   3.831   1.434  11.415  0.0508 -0.2163  0.2233
14123W        W29254   1.461  14.671  15.521 -0.1423  0.0475 -0.2060
14124W        W29255   3.687   7.390   1.296  0.0191  0.0701  0.0485
14125W        W29256   7.776  10.953  10.360 -0.1558 -0.3041 -0.1526
14126W        W29257  18.467   8.342   2.800 -0.0583  0.3196 -0.2766
14127W        W29258   9.778  15.433  13.019  0.0433 -0.2302 -0.0266
14128W        W29259   4.136   2.250   3.539 -0.0507  0.0604  0.0664
14129W        W29260   2.729  12.456  10.928 -0.1371  0.2861  0.0016
14130W        W29261  11.296   9.505  15.629  0.2412 -0.0430 -0.2289
14131W        W29262  12.390   3.277  13.577  0.4437 -0.2923  0.1455
14132W        W29263   0.218  10.576  10.609  0.0671  0.1674 -0.2371
14133W        W29264  10.979  15.190  11.633 -0.1441 -0.3886 -0.2126
14134W        W29265   7.075  12.330  13.591 -0.1763 -0.1744 -0.1542
14135W        W29266   3.423  15.551   3.239 -0.0925 -0.1214  0.3469
14136W        W29267  18.251  15.614   2.001 -0.3048 -0.1674  0.0346
14137W        W29268  15.855   9.298   4.486 -0.1449 -0.1005 -0.0970
14138W        W29269  17.552   7.881   3.637  0.0287 -0.0617 -0.0965
14139W        W29270  13.014  17.897  10.447  0.0133 -0.0571  0.0812
14140W        W29271   5.126  14.267  14.162  0.1091 -0.2449  0.0382
14141W        W29272   1.400   4.846   1.555 -0.0760 -0.1449  0.2087
14142W        W29273  11.641  15.097   0.621  0.1708 -0.5109  0.0023
14143W        W29274   1.652  13.345   2.210 -0.2254  0.1773  0.0688
14144W        W29275  11.428   2.826   1.252 -0.0314  0.3947 -0.0180
14145W        W29276   2.542   3.259  13.887 -0.2331 -0.3601  0.1557
14146W        W29277   1.922   8.769   1.342  0.1609 -0.0695 -0.2532
14147W        W29278   5.075   1.066  12.800 -0.0164 -0.0177 -0.2427
14148W        W29279  15.044   2.057  14.386 -0.0944 -0.0653  0.0260
14149W        W29280  11.479  10.917  15.765  0.1579 -0.1226 -0.1117
14150W        W29281  10.449  10.074  11.496 -0.1377  0.2317  0.0522
14151W        W29282   1.254  14.723   0.558 -0.0571 -0.0341  0.1527
14152W        W29283  17.875  15.825   3.330 -0.2642  0.0117  0.3330
14153W        W29284  10.152   3.058   0.087  0.0327  0.0667 -0.1234
14154W        W29285   7.616  11.404  10.148 -0.1059  0.0532 -0.0766
14155W        W29286  10.715  15.772  13.362 -0.0945 -0.1891  0.1683
14156W        W29287   0.184  10.939  11.811 -0.0988 -0.0640 -0.2940
14157W        W29288  18.110   0.208   1.685  0.1028  0.2008  0.2001
14158W        W29289  10.841  12.790   3.445 -0.1207  0.3052 -0.0179
14159W        W29290   8.764   7.678  13.888 -0.0669 -0.5350  0.1225
14160W        W29291   4.021   4.230   3.754  0.0768 -0.2747  0.1246
14161W        W29292  17.375  18.378   5.688  0.0524  0.0588 -0.3295
14162W        W29293  10.288   9.119   3.327 -0.0089  0.1468 -0.0295
14163W        W29294   0.235  14.923  13.392 -0.1851  0.2835 -0.2445
14164W        W29295   7.753   3.022  15.587 -0.0013  0.1200 -0.2132
14165W        W29296   4.540   7.322  16.027  0.0896 -0.1689 -0.0415
14166W        W29297  16.950   4.094   0.552  0.2876  0.1680  0.1596
14167W        W29298   9.846  13.218   0.557  0.2627 -0.1955  0.2581
14168W        W29299  17.949   2.699   3.277 -0.0045 -0.1002 -0.2120
14169W        W29300   8.581  15.119  11.235 -0.5226  0.1883 -0.3355
14170W        W29301  14.921  12.154  11.654 -0.4216 -0.2947  0.0066
14171W        W29302   7.172   3.068  14.114  0.3080 -0.1083  0.1084
14172W        W29303   3.204   7.690   5.313 -0.3604 -0.0311 -0.0383
14173W        W29304   9.099   5.657   5.561  0.2338  0.0064 -0.0927
14174W        W29305  13.984   1.727  16.053  0.2077 -0.0211 -0.2197
14175W        W29306   6.604  17.449  14.185  0.1684 -0.2600  0.2737
14176W        W29307  13.162  15.186  13.407 -0.1258  0.3318  0.3102
14177W        W29308   4.453  11.791   1.504 -0.1555 -0.1064  0.1262
14178W        W29309   2.860  15.867   4.470  0.0720 -0.0209 -0.4266
14179W        W29310  17.371   7.012  15.779 -0.0506  0.0704 -0.1618
14180W        W29311  10.067  13.679  13.059  0.0782  0.3318 -0.0501
14181W        W29312  18.106  14.642  15.154  0.0662  0.0477  0.4332
14182W        W29313  18.208   1.565  13.367  0.1713 -0.2026 -0.2970
14183W        W29314  10.391  14.701  15.607  0.0637  0.2187  0.4113
14184W        W29315  13.845   3.057   2.381 -0.1552  0.1225  0.3418
14185W        W29316   5.398  11.164  10.548 -0.0977 -0.0992 -0.1013
14186W        W29317   3.479  10.402  10.666  0.0204  0.0529  0.2994
14187W        W29318   1.082   8.234   3.624  0.0348 -0.0856  0.0366
14188W        W29319   7.427   4.805   4.699  0.0587  0.2741  0.0705
14189W        W29320  14.708   5.358   1.633  0.0298  0.1752  0.2428
14190W        W29321   5.668  15.285  10.669 -0.0396  0.0727 -0.3045
14191W        W29322  16.895   4.040  11.888  0.1925 -0.1035  0.2845
14192W        W29323  13.378   3.621   5.635  0.0689 -0.0461  0.0331
14193W        W29324   6.099   5.472  13.852  0.3485  0.4195 -0.1285
14194W        W29325   5.042   3.210  15.607 -0.0870  0.1193  0.3210
14195W        W29326  16.278  15.825   4.556 -0.2101  0.3677 -0.4028
14196W        W29327   6.403   1.547  10.735 -0.0649  0.1336 -0.0305
14197W        W29328   6.482   2.911  12.833  0.0613 -0.0474 -0.2358
14198W        W29329   6.006   2.910  11.663  0.0053  0.0150 -0.2855
14199W        W29330  13.008  10.636  11.764  0.2547  0.0753  0.1003
14200W        W29331   5.402   8.436   0.952  0.2025  0.2404 -0.2168
14201W        W29332   7.781  15.622   4.133  0.0569  0.2992 -0.2679
14202W        W29333   4.746   4.776  14.909  0.0404  0.1649  0.2475
14203W        W29334  17.760   2.584  13.077 -0.2148 -0.0333 -0.1991
14204W        W29335  16.306   0.413  14.183 -0.0670  0.1175 -0.0332
14205W        W29336  18.051   3.547   4.349 -0.0626  0.0965  0.2315
14206W        W29337  15.568  10.987  14.828 -0.1059 -0.1424  0.0228
14207W        W29338   1.690  12.749   1.810  0.2627 -0.2039 -0.1521
14208W        W29339  15.953  13.228   3.349 -0.1550  0.0447  0.1509
14209W        W29340   1.490  11.199   5.484  0.1952 -0.0675  0.2702
14210W        W29341  18.303  13.890  10.879 -0.0663 -0.1432  0.1666
14211W        W29342   7.315   1.925   1.294  0.0615 -0.0777 -0.2653
14212W        W29343  15.587   6.000   3.272 -0.0589 -0.2237 -0.1758
14213W        W29344  10.373  10.998  13.820  0.0838 -0.2242 -0.2219
14214W        W29345   3.753   8.668  14.515  0.0480  0.1491 -0.1832
14215W        W29346  14.647  14.438  12.676 -0.0606 -0.1144  0.0316
14216W        W29347   8.316  13.735   0.395 -0.3252  0.1223  0.0212
14217W        W29348   3.077  12.912   0.840 -0.2911  0.1905  0.0977
14218W        W29349  15.551  17.444  10.411  0.2751  0.2724  0.1689
14219W        W29350  12.050  16.254   4.942 -0.0178 -0.2321 -0.1968
14220W        W29351  16.588   3.160   0.079  0.1669 -0.1415  0.2200
14221W        W29352  12.349   7.751  11.572 -0.0641  0.1843  0.2474
14222W        W29353  11.960   9.962  10.909 -0.0480 -0.2451 -0.3374
14223W        W29354   8.368   7.106  14.555 -0.0641  0.1172  0.1189
14224W        W29355   9.393  17.197   1.772  0.0491 -0.3504  0.4496
14225W        W29356   0.141  13.083  13.251 -0.0580 -0.2331  0.0711
14226W        W29357   2.699  10.941   0.543 -0.1248  0.0895  0.2746
14227W        W29358   6.660   3.566   4.678  0.0737 -0.0567  0.2868
14228W        W29359  14.756  18.059  11.785  0.0635  0.1911  0.2409
14229W        W29360   4.933   3.907   3.706 -0.1333  0.0547  0.0203
14230W        W29361  10.870   5.306   1.832 -0.0896 -0.3993 -0.0861
14231W        W29362   5.178   1.986  10.545 -0.1719  0.1111 -0.0505
14232W        W29363  12.721  18.249  11.284  0.0233  0.1926  0.0200
14233W        W29364  16.340   8.347   5.995 -0.0005  0.1518  0.2322
14234W        W29365   6.499   3.313   4.252  0.0584  0.0185 -0.1252
14235W        W29366   7.852   0.115  13.366  0.3801  0.2248 -0.1927
14236W        W29367   8.927  18.081  10.831 -0.0750 -0.2870  0.0900
14237W        W29368  16.586  12.385  10.631  0.1202 -0.1013  0.1378
14238W        W29369   9.182   1.939  15.797  0.2284  0.2255 -0.3476
14239W        W29370  14.439  17.936  12.786 -0.1801 -0.0010 -0.0868
14240W        W29371   1.089   9.002  15.827 -0.3553  0.2792  0.2491
14241W        W29372   3.040  15.196   1.489  0.1881 -0.0316 -0.0735
14242W        W29373  14.970   3.358  11.814 -0.1899 -0.3865 -0.3042
14243W        W29374  13.782  16.540   1.317  0.0661  0.1564 -0.3360
14244W        W29375  14.664   2.985   4.893  0.0242  0.1401  0.1777
14245W        W29376  17.046  13.356  13.437  0.5159  0.0358  0.3133
14246W        W29377  12.794   7.211   0.525 -0.2105 -0.1381  0.2083
14247W        W29378   3.275  17.691   2.047  0.0093 -0.1320 -0.2018
14248W        W29379   4.397   8.438   1.794 -0.2485 -0.1137 -0.0745
14249W        W29380   7.940  11.136   3.422 -0.0869 -0.1346  0.2028
14250W        W29381   8.407  16.676   0.870 -0.0632  0.1295 -0.1812
14251W        W29382   8.916   0.136   3.579  0.2672  0.0006  0.1431
14252W        W29383  14.893   2.281   5.329  0.0217 -0.2303  0.3624
14253W        W29384  10.683   8.979   3.619 -0.1991 -0.3170 -0.0191
14254W        W29385   7.694   6.566   4.117 -0.3132 -0.0438 -0.0249
14255W        W29386   3.032   6.976  13.085  0.0056 -0.4367  0.0904
14256W        W29387   0.584   1.545  10.372 -0.2681 -0.0769 -0.2238
14257W        W29388   0.365  16.407   0.813  0.1604 -0.3172 -0.4222
14258W        W29389   7.233  13.734  13.872  0.2285 -0.2723  0.2394
14259W        W29390  15.342   6.402   1.835 -0.2234 -0.3397  0.2100
14260W        W29391  18.478   0.416   2.544  0.4889 -0.0102 -0.3476
14261W        W29392   6.459  13.549  11.157  0.0309 -0.0324 -0.1965
14262W        W29393   7.658   7.890   1.870  0.2875  0.1347 -0.2157
14263W        W29394  18.244  11.729  14.970 -0.3115 -0.0833 -0.0356
14264W        W29395   3.209   1.496   1.740  0.1027  0.3292  0.1301
14265W        W29396   8.483   4.225  11.150 -0.0391  0.2951 -0.3715
14266W        W29397  17.809   2.749  15.351 -0.3254 -0.0537  0.2842
14267W        W29398  16.603   8.803   3.797 -0.1461  0.2006  0.1882
14268W        W29399  12.277   6.941  13.661  0.0415 -0.0045 -0.1202
14269W        W29400   1.748   0.661   0.108  0.2038  0.0117  0.3968
14270W        W29401   0.373   5.312  13.210  0.1905 -0.1308  0.1263
14271W        W29402   0.085  16.714   1.139  0.0736 -0.1752 -0.1353
14272W        W29403   8.603   1.470   3.520 -0.1344 -0.0199  0.1414
14273W        W29404  12.895   6.696  15.361  0.3741  0.0255 -0.0333
14274W        W29405   1.495  10.472  11.509  0.0516  0.2296 -0.1396
14275W        W29406  15.451   6.969  11.431 -0.0650  0.1647  0.1071
14276W        W29407  16.510  17.912   0.918  0.2019  0.1317  0.0579
14277W        W29408   6.486  16.120  14.741 -0.1226 -0.1420 -0.1899
14278W        W29409  17.928  15.646   0.150  0.1238 -0.1806  0.1622
14279W        W29410  14.438   7.602  12.822 -0.0127 -0.2227 -0.2828
14280W        W29411   1.122  17.015  11.349  0.0096  0.1836 -0.1801
14281W        W29412   4.763  10.064   3.784 -0.2397 -0.1881  0.1452
14282W        W29413   1.736  12.632   2.335 -0.2546  0.1173  0.1431
14283W        W29414  10.648   8.562   2.698 -0.3571 -0.0367 -0.0667
14284W        W29415  13.154   1.306   1.383  0.1865  0.1141 -0.2494
14285W        W29416  18.422  11.423   2.018 -0.0906  0.1007 -0.2655
14286W        W29417   1.513   9.322  15.248 -0.0572 -0.0299  0.1490
14287W        W29418  15.363   5.304   1.009 -0.4854 -0.1322 -0.0072
14288W        W29419  15.569   9.166  13.767 -0.1093 -0.0516  0.1861
14289W        W29420   8.443  13.099   4.563  0.0467  0.0593 -0.2610
14290W        W29421  17.489   6.823   4.429 -0.1094 -0.0333 -0.0327
14291W        W29422   3.758  14.179  14.329 -0.0683  0.2923  0.4049
14292W        W29423  14.356  16.359  14.270 -0.2923 -0.0012  0.1968
14293W        W29424  14.741   8.819   0.256 -0.1141 -0.2472 -0.0276
14294W        W29425   9.415  12.242  14.592 -0.1570  0.2937  0.0435
14295W        W29426  14.676   2.260   4.810  0.2439  0.0837  0.0402
14296W        W29427   0.595  12.169   4.245  0.1023 -0.0911  0.0393
14297W        W29428   4.845   2.807  14.467 -0.1432 -0.0544  0.0450
14298W        W29429   7.347  16.044  15.652 -0.1377 -0.1765  0.5261
14299W        W29430   3.156  15.416  13.613 -0.2367 -0.3369  0.2300
14300W        W29431  10.959   1.535  11.588 -0.2308 -0.0446 -0.0310
14301W        W29432   0.919   7.175   4.763 -0.2042  0.3158  0.0977
14302W        W29433   7.223   2.069  14.750  0.2137 -0.0484 -0.2614
14303W        W29434  17.772  17.788  15.330 -0.0804  0.0001  0.2435
14304W        W29435  12.120   0.564  12.121 -0.1966 -0.0519  0.2808
14305W        W29436  11.423   9.438   1.188  0.2817 -0.2379 -0.0399
14306W        W29437   3.713  11.051   3.843  0.0827  0.2308 -0.0627
14307W        W29438   5.478   8.109  12.623 -0.2560  0.2114 -0.0846
14308W        W29439  18.443   1.753  14.801  0.0789  0.1487  0.4388
14309W        W29440   3.012   6.686   4.854  0.3467  0.1120 -0.3846
14310W        W29441   4.988   3.861  10.782  0.1963 -0.0974 -0.0654
14311W        W29442  10.847   4.039   1.386  0.2466 -0.0731 -0.1064
14312W        W29443   3.663   6.548   2.339 -0.1684 -0.1558  0.0560
14313W        W29444   0.557   7.527   6.090  0.1725  0.0778 -0.1811
14314W        W29445  11.122   8.130   6.650  0.0412 -0.2019 -0.0083
14315W        W29446   4.900   8.564   0.200 -0.1211 -0.2264 -0.0854
14316W        W29447  13.277   4.081  14.378  0.0566 -0.0125  0.0241
14317W        W29448  16.306  13.199   4.609  0.1475  0.0544 -0.3635
14318W        W29449   3.899  17.217   2.884 -0.1753  0.3421  0.1476
14319W        W29450  18.102  16.000   2.491  0.3324  0.0176  0.1551
14320W        W29451   9.469  13.037  15.065  0.2178 -0.0870  0.1926
14321W        W29452  14.858   3.327  13.802 -0.2337 -0.1283 -0.1198
14322W        W29453  17.915   9.152  15.139  0.0267  0.1411  0.0233
14323W        W29454   3.994   1.449   5.331 -0.2702 -0.0692 -0.0057
14324W        W29455   6.014  16.021   3.072  0.0080  0.1377  0.0873
14325W        W29456  17.231   7.127  12.370 -0.2541  0.0468  0.0611
14326W        W29457   7.982   8.586   4.584  0.2464 -0.2402  0.2287
14327W        W29458   6.379   6.902   0.753 -0.0370 -0.0876  0.0117
14328W        W29459   3.435   9.833  15.502  0.3931 -0.1671  0.1828
14329W        W29460   2.032   1.574  14.327 -0.1437 -0.1126  0.1100
14330W        W29461  11.742   8.588   2.720  0.0609 -0.2299 -0.1931
14331W        W29462  14.860   4.093   5.140  0.2183  0.2810  0.2634
14332W        W29463   6.083   6.804   1.734  0.0356 -0.4623  0.1779
14333W        W29464   6.505  10.790  13.322 -0.0181  0.3642  0.3024
14334W        W29465   9.471   4.691  15.041 -0.0503  0.0853  0.2547
14335W        W29466   6.950   3.598   0.030 -0.2424  0.3648 -0.1141
14336W        W29467   4.352   0.852   9.908 -0.0811 -0.0164 -0.0090
14337W        W29468   9.996   0.311   2.192 -0.4599  0.1061 -0.2228
14338W        W29469  16.387  15.325   1.874 -0.0997 -0.0892  0.1348
14339W        W29470   2.101   1.176   1.046  0.1320  0.0056  0.0585
14340W        W29471   8.677  16.207  14.023  0.0184  0.3773  0.1332
14341W        W29472   0.594  14.513   0.582  0.3248  0.2186 -0.1578
14342W        W29473   6.120   2.403  12.028  0.3169  0.1924 -0.0862
14343W        W29474  14.219   3.855   4.204 -0.2327  0.0632 -0.1438
14344W        W29475  13.855  15.368   0.842  0.0799 -0.2036 -0.0234
14345W        W29476  17.812   1.820   0.900 -0.1096  0.0320  0.3324
14346W        W29477  12.120  15.765   5.101 -0.3623 -0.1173  0.1543
14347W        W29478   2.674   5.011  15.536  0.3448 -0.0489  0.0474
14348W        W29479  12.167   8.588   1.342  0.0593 -0.0062  0.0872
14349W        W29480   9.869   0.338   1.528  0.1223 -0.1006  0.1475
14350W        W29481   1.047   1.284  11.118 -0.2179 -0.0686  0.2528
14351W        W29482   4.200   4.783   6.196  0.2430  0.1468 -0.0774
14352W        W29483   5.818  15.362   3.602  0.0739  0.4088  0.1630
14353W        W29484  13.444  15.528  15.407 -0.5142 -0.0423  0.3279
14354W        W29485  15.600   1.869  15.970  0.0086  0.1384 -0.1693
14355W        W29486   5.632   7.347  13.994 -0.2943  0.0845  0.1416
14356W        W29487  11.385  10.347  11.166  0.1694  0.0309  0.1655
14357W        W29488   0.889   8.481   0.421 -0.0960 -0.0074 -0.0989
14358W        W29489   5.930   3.141   5.479 -0.3217 -0.1196 -0.0731
14359W        W29490  13.235   2.400  11.337  0.0447  0.1993  0.1239
14360W        W29491   4.450  10.098  11.822  0.2529  0.0543  0.3903
14361W        W29492  11.035  15.404  13.164  0.1810 -0.1200 -0.0547
14362W        W29493   1.410  12.296  12.168 -0.0728 -0.1706  0.0817
14363W        W29494   3.320   1.904  12.480  0.2935  0.2173 -0.2085
14364W        W29495   3.677  11.932  15.553  0.3082  0.1163  0.0923
14365W        W29496   3.050   2.347   0.348 -0.0601 -0.0098 -0.1345
14366W        W29497  16.760  16.961  13.142  0.2089 -0.0330 -0.2286
14367W        W29498   8.376   9.231  14.122 -0.0277 -0.0826 -0.2971
14368W        W29499  14.661  15.540  14.279 -0.1028  0.1824  0.0570
14369W        W29500   8.198   0.800  11.810 -0.2904  0.0603  0.2440
14370W        W29501   3.162   9.203   2.354 -0.0695  0.0565 -0.0559
14371W        W29502  18.071   7.861  13.258  0.0614 -0.0540 -0.0668
14372W        W29503  10.365  10.787   1.769 -0.0791  0.0010  0.1357
14373W        W29504   2.332  18.075   1.023 -0.1549  0.1858 -0.3273
14374W        W29505  15.324  14.628   1.031  0.2887  0.0916 -0.1984
14375W        W29506   9.255  17.085   3.827  0.2323  0.0636  0.0989
14376W        W29507   3.165   4.766   2.428 -0.1859 -0.0467  0.3877
14377W        W29508   0.862   6.504  11.954 -0.0662 -0.1464 -0.4575
14378W        W29509   3.221   3.201   1.873 -0.4264 -0.0979  0.0882
14379W        W29510   1.414  17.058   0.276  0.1103 -0.1625 -0.0412
14380W        W29511  15.964  18.032  10.839  0.2131  0.5774 -0.2138
14381W        W29512   0.240   0.272   1.523 -0.0614  0.2097  0.0869
14382W        W29513   7.350   7.852   1.125 -0.0297  0.0516 -0.1140
14383W        W29514   5.424  13.128   4.257  0.2699 -0.1534  0.2014
14384W        W29515   6.043   7.429  13.045 -0.0103 -0.2442  0.0744
14385W        W29516   0.123  13.469  15.353  0.1425 -0.2225 -0.1147
14386W        W29517  10.123  17.042  13.580 -0.0821 -0.1223  0.3370
14387W        W29518   0.791  10.256   4.919  0.1875  0.0327  0.0230
14388W        W29519   8.765  11.960   2.419 -0.1089 -0.0634 -0.4933
14389W        W29520  11.287   2.245   4.026  0.0076 -0.1422 -0.1503
14390W        W29521   5.193  12.584  14.982  0.1580 -0.3345 -0.0772
14391W        W29522   2.031   3.386   3.130  0.0866 -0.0596 -0.4441
14392W        W29523  15.872  12.952  12.094 -0.1920 -0.0127 -0.2983
14393W        W29524  16.707  15.414   0.528 -0.1690  0.0097  0.1827
14394W        W29525   5.214   3.522  15.167 -0.0523  0.2220 -0.0804
14395W        W29526   8.216  11.237  15.077 -0.1082 -0.4080  0.0908
14396W        W29527   8.285  16.863   3.079 -0.2264  0.0905  0.4433
14397W        W29528   0.949  10.527   0.990  0.1357  0.3613  0.0690
14398W        W29529  10.591  13.963  11.591 -0.2662  0.0150 -0.2843
14399W        W29530   6.102  17.799  10.977  0.2735 -0.2331 -0.3341
14400W        W29531  12.282   5.703   1.433 -0.2184 -0.1282 -0.2156
14401W        W29532   5.556  16.857  15.508 -0.3143 -0.1197 -0.1943
14402W        W29533   7.231   5.894  11.638  0.0685 -0.1996  0.0346
14403W        W29534  16.699   2.953  12.219  0.1406 -0.3000  0.1952
14404W        W29535   9.676   2.516   5.212  0.2162 -0.1859  0.1245
14405W        W29536   3.454  11.839  10.759  0.0442  0.0985 -0.1406
14406W        W29537   4.228  15.461  14.223 -0.1755 -0.1808 -0.1950
14407W        W29538  11.245   6.728  12.863  0.0252  0.3065 -0.1616
14408W        W29539  16.296   6.796  13.508 -0.0639 -0.0660 -0.0193
14409W        W29540   0.489   7.581   5.559 -0.0365  0.1730  0.0028
14410W        W29541   0.808  17.836  13.424  0.1556  0.1796 -0.0809
14411W        W29542  13.235  16.270   4.275  0.0941 -0.2806 -0.1578
14412W        W29543   1.692   7.217  14.623 -0.0630 -0.0690  0.0447
14413W        W29544   7.874  12.368  13.609  0.1275 -0.0435 -0.1136
14414W        W29545   4.042   5.091   4.854 -0.2907  0.0927 -0.0898
14415W        W29546   3.964  16.136   4.916  0.1063  0.1376  0.0394
14416W        W29547  10.875   5.090   4.104  0.0901  0.2400  0.0186
14417W        W29548  14.345   9.291  11.686  0.0468  0.0154 -0.0206
14418W        W29549   7.856  13.604   2.921 -0.3396 -0.1366  0.1573
14419W        W29550   5.997   9.266   2.610 -0.3674 -0.0452 -0.2361
14420W        W29551  16.769   0.990  10.355 -0.0409  0.1666 -0.4064
14421W        W29552  12.382  12.867   2.103  0.0197  0.0686  0.0093
14422W        W29553  10.702  12.845  15.219 -0.0508  0.0148  0.0189
14423W        W29554  17.982   2.950  11.031  0.3203 -0.0919 -0.0140
14424W        W29555   5.316   6.303   4.694  0.0014 -0.1669  0.1056
14425W        W29556   6.002  15.264  12.246  0.3654 -0.0785  0.0477
14426W        W29557  16.681  12.268   3.910  0.1534 -0.2060  0.2820
14427W        W29558   9.375  17.056   0.778  0.0959  0.1159 -0.0594
14428W        W29559   5.414  18.012  13.367  0.3113  0.1054 -0.0728
14429W        W29560   2.318  14.262   2.502 -0.1400 -0.0022 -0.2540
14430W        W29561  18.228   4.751  12.616 -0.0144  0.2101  0.3956
14431W        W29562  10.663  10.986   5.241  0.1860 -0.0046  0.0928
14432W        W29563   2.340   4.825   0.027 -0.1712 -0.2133 -0.0687
14433W        W29564   2.016   8.603   0.697 -0.1947  0.0154 -0.0248
14434W        W29565  14.583   9.050   4.424 -0.2027  0.1877  0.1560
14435W        W29566  14.463  13.895   3.483 -0.1388  0.1117  0.1587
14436W        W29567  11.669   2.667  13.425  0.1746  0.1381 -0.2127
14437W        W29568   0.397   5.962  16.018  0.0654 -0.2253  0.2121
14438W        W29569   9.165   4.810  11.177  0.3024  0.1044  0.0303
14439W        W29570   4.258  11.758  14.263  0.0617  0.0210 -0.0512
14440W        W29571  10.275  12.229  11.358 -0.0344 -0.2005 -0.0099
14441W        W29572  18.311   0.325   4.165  0.3542  0.2729  0.0526
14442W        W29573   3.872  10.383  11.872  0.0605 -0.0532  0.2262
14443W        W29574  17.961  11.877  15.775  0.0048 -0.2416  0.1154
14444W        W29575   9.903   5.115   2.813  0.0986 -0.0291 -0.1284
14445W        W29576  12.826  11.328   1.494 -0.1072 -0.0654 -0.0755
14446W        W29577   1.050   6.362  13.337 -0.0067 -0.1744 -0.1546
14447W        W29578   5.097  10.347  12.596 -0.0178  0.2674 -0.1294
14448W        W29579  16.253   0.647   1.829 -0.0984 -0.2341  0.0498
14449W        W29580   1.809   6.177   1.368 -0.1059 -0.1254 -0.0888
14450W        W29581   9.334   3.525  14.087 -0.1916 -0.0749 -0.0835
14451W        W29582  15.863   5.174   1.182 -0.0340  0.1804  0.0392
14452W        W29583  14.669  17.859   3.081  0.0050 -0.1195  0.2473
14453W        W29584   0.841   4.530  15.851 -0.4267 -0.2645 -0.5398
14454W        W29585  12.681  16.135   5.745  0.1079  0.2373 -0.1337
14455W        W29586  18.189  12.250   1.622  0.0429  0.0162  0.1875
14456W        W29587   4.892  10.695  11.162 -0.2157 -0.4024  0.4336
14457W        W29588  11.799   2.820   2.406 -0.2434 -0.3112 -0.3089
14458W        W29589   6.639   5.534  14.086  0.1032  0.3064 -0.0225
14459W        W29590   2.769   4.777  13.012 -0.1859  0.1631 -0.1874
14460W        W29591  12.759   8.122   5.492  0.3755 -0.0469 -0.1096
14461W        W29592   4.862   7.440   3.047 -0.0733 -0.0911  0.0377
14462W        W29593   5.084  11.647  15.479 -0.0224  0.6073 -0.0794
14463W        W29594   3.578  11.147  14.562  0.0178 -0.0123 -0.1755
14464W        W29595   9.631   2.478   2.686 -0.1406  0.0216 -0.1111
14465W        W29596  12.343   0.439   3.908  0.0899 -0.0412 -0.1186
14466W        W29597  11.253  12.246   5.551 -0.0064 -0.2928 -0.0977
14467W        W29598   7.930   4.108   3.527 -0.0656 -0.3164 -0.0219
14468W        W29599   9.327   3.235   4.345 -0.2054 -0.0814  0.1848
14469W        W29600  13.516   4.760  11.538  0.0579 -0.3604  0.0191
14470W        W29601   6.960   5.758  12.643  0.1535  0.4067  0.1388
14471W        W29602  13.480  17.208   4.379 -0.4389 -0.3018  0.0933
14472W        W29603  16.714   5.248  15.681  0.0904  0.2486  0.2463
14473W        W29604   5.751   6.131  13.335  0.1410  0.0046  0.2749
14474W        W29605   2.156  14.229   0.300 -0.1132  0.3997  0.2571
14475W        W29606  11.580   0.865   1.342 -0.4789 -0.1271 -0.1539
14476W        W29607   0.689   5.253   1.116  0.1081 -0.1424  0.5121
14477W        W29608   5.974  13.337   5.852  0.2115 -0.5027 -0.2686
14478W        W29609   0.006  11.219   6.262 -0.0192  0.3048  0.2136
14479W        W29610  11.482  11.057  13.318 -0.0142  0.1221  0.1113
14480W        W29611   7.642   6.888   4.648  0.0321 -0.0990 -0.0389
14481W        W29612  16.097   6.819   4.446 -0.0359  0.1970  0.1890
14482W        W29613   7.345  12.402  10.413  0.2366  0.2214  0.0606
14483W        W29614   1.232   5.991  14.670 -0.1278  0.1483  0.3210
14484W        W29615   4.654   5.856   4.666 -0.1407  0.0440 -0.0496
14485W        W29616   3.704   7.931  12.404 -0.0028  0.1381 -0.2244
14486W        W29617   2.560   7.928   1.828  0.0784  0.0026 -0.1720
14487W        W29618  12.592   4.516   5.561 -0.0997 -0.1527  0.1749
14488W        W29619  10.498  15.241   0.149  0.0728 -0.2269  0.3553
14489W        W29620  13.083  10.414   2.324  0.1076 -0.0464  0.0532
14490W        W29621  13.085   9.603   5.362  0.1901 -0.3587 -0.0549
14491W        W29622   8.238   2.970  15.464 -0.2434  0.0339 -0.1462
14492W        W29623   3.560  10.657   1.410  0.1374  0.0403  0.0408
14493W        W29624  10.585  17.170  11.024 -0.0403 -0.3762 -0.3191
14494W        W29625   0.963   5.230   2.868  0.0570 -0.0615  0.1676
14495W        W29626   4.036   7.760   4.313  0.1240  0.0278  0.2495
14496W        W29627  14.669  13.959   4.640  0.1290 -0.1148 -0.0638
14497W        W29628   2.384  13.381  13.844 -0.1105  0.0377 -0.0106
14498W        W29629  15.873   5.306  15.456 -0.1206 -0.0818  0.1652
14499W        W29630   6.254  11.862   3.407 -0.1394  0.0188  0.0066
14500W        W29631  13.765   6.974   4.570  0.0974  0.0123  0.4536
14501W        W29632   9.264   1.047   3.354  0.1272  0.1306  0.0678
14502W        W29633   0.814  13.184  14.685  0.0721  0.2251 -0.2988
14503W        W29634   8.661   1.642  14.680  0.0648  0.2171  0.0309
14504W        W29635  14.782   3.042  11.423 -0.0089  0.3148  0.0861
14505W        W29636  16.349  17.404   1.146 -0.1815  0.1413  0.0152
14506W        W29637   3.729   2.430   3.216  0.2371  0.2818  0.3908
14507W        W29638   2.805   9.666  13.920  0.0883  0.0421 -0.4898
14508W        W29639   8.302  18.445   3.701  0.1509 -0.1593  0.0712
14509W        W29640  14.710   6.075  13.679 -0.0411  0.1723 -0.5153
14510W        W29641   8.491  12.868   0.672 -0.0466  0.0500 -0.0582
14511W        W29642  15.474  13.088  14.522 -0.0366  0.0722 -0.2153
14512W        W29643  17.544   2.307  15.212 -0.2877 -0.1579  0.1591
14513W        W29644  14.700   4.781  14.838  0.2910  0.1721 -0.0108
14514W        W29645   0.849  14.860   0.324  0.2249 -0.0563  0.0812
14515W        W29646   9.593  10.051  14.484 -0.0539  0.1644  0.0421
14516W        W29647   0.028  11.047  12.294 -0.0283 -0.1683  0.0249
14517W        W29648   4.654  16.611  15.064  0.3445 -0.2576  0.2618
14518W        W29649   2.270  15.264   3.556 -0.3281  0.1904  0.0647
14519W        W29650  10.965   0.682   0.657  0.0391  0.3166 -0.2963
14520W        W29651  12.797   8.689  15.815 -0.0536  0.2628 -0.4801
14521W        W29652   3.970   7.009   2.336 -0.0166 -0.1062  0.1667
14522W        W29653  17.055   0.427   0.626 -0.0143 -0.0678 -0.1602
14523W        W29654   7.693   2.612  10.522 -0.1120  0.2760 -0.0143
14524W        W29655  15.328  17.230   2.959 -0.5167 -0.0006  0.0811
14525W        W29656   6.811  13.107   6.313  0.1112 -0.1136  0.2251
14526W        W29657   9.103  16.874  12.175 -0.3002 -0.2261  0.2050
14527W        W29658  17.809   2.924   5.316  0.1107  0.2867  0.2462
14528W        W29659  14.813  18.128  10.721  0.2613 -0.3588 -0.0660
14529W        W29660   8.463   1.193  11.619  0.0599 -0.1717 -0.2126
14530W        W29661   1.206  11.476  12.625  0.1140  0.1408  0.1247
14531W        W29662  11.332   4.016  14.349 -0.1934  0.3057 -0.0281
14532W        W29663   0.526  10.115  14.877  0.1108  0.2687  0.1638
14533W        W29664   3.369   2.369  13.379  0.1726 -0.2256 -0.1043
14534W        W29665  14.637  14.657   4.848 -0.0192  0.2342  0.0702
14535W        W29666   9.815  17.085  11.553  0.2674  0.2228 -0.1514
14536W        W29667   7.129  10.782  14.862 -0.2142  0.2178  0.4433
14537W        W29668   0.067   7.787   1.126 -0.3568 -0.0123 -0.1896
14538W        W29669   7.052   1.915   5.249 -0.3783 -0.0927  0.0590
14539W        W29670   5.759  10.058   1.161  0.3353 -0.2759 -0.0262
14540W        W29671   8.636   3.903   2.902  0.1459 -0.0642  0.3862
14541W        W29672  10.143   2.466   2.456  0.0259  0.0217  0.0880
14542W        W29673  13.367  13.057  12.202 -0.0713 -0.0109  0.0832
14543W        W29674   0.699   9.808  14.396  0.2398  0.0539  0.4954
14544W        W29675   2.782   8.152   3.429  0.4438  0.1318 -0.3498
14545W        W29676  13.844  17.160   0.817 -0.0006 -0.1076  0.0519
14546W        W29677   6.503  16.500   5.136  0.0612  0.0560 -0.1432
14547W        W29678   9.696  14.233   0.522 -0.0300  0.0283 -0.1334
14548W        W29679  17.675  12.424   2.401 -0.3086  0.1308  0.3242
14549W        W29680  13.526   3.030   1.197 -0.0839 -0.2741 -0.1269
14550W        W29681   6.868  13.324   2.726 -0.0473  0.1293  0.1947
14551W        W29682  17.509  14.221   3.044  0.0825 -0.0007  0.0658
14552W        W29683  10.356  11.353   3.161 -0.1662  0.1148  0.0275
14553W        W29684  11.544   7.698  15.185  0.0089  0.1603  0.3983
14554W        W29685  16.923  18.464  14.904  0.1868  0.0358 -0.1980
14555W        W29686  13.521  12.852   0.309 -0.1440  0.2125 -0.1134
14556W        W29687   6.245  17.145  15.508  0.0412 -0.1909  0.2608
14557W        W29688   3.451   8.899   1.007 -0.1883  0.2014 -0.0965
14558W        W29689   8.213  17.940   0.179  0.0549  0.0993  0.1411
14559W        W29690  17.544  12.153  11.041  0.1768  0.0739  0.0118
14560W        W29691   3.481  12.542   5.029  0.2649  0.0124  0.1161
14561W        W29692  13.347   7.865   2.542 -0.0948 -0.0333  0.3222
14562W        W29693   4.684  18.456  12.427 -0.1293  0.0394  0.1614
14563W        W29694  15.386   9.271   5.498 -0.4757 -0.3304 -0.0242
14564W        W29695   9.811   0.529  15.821 -0.0358  0.0293  0.2610
14565W        W29696  16.131   7.355   5.311 -0.1670  0.1925  0.0036
14566W        W29697  10.256  15.274  10.181  0.0306  0.1231  0.3753
14567W        W29698  10.625  16.322  10.486 -0.0874  0.0827 -0.0075
14568W        W29699   3.022  16.207  15.215  0.1097 -0.1481  0.1666
14569W        W29700  13.321   4.996   3.675 -0.0913  0.1104  0.2156
14570W        W29701   6.179   6.666   4.347  0.0931  0.1565 -0.0247
14571W        W29702  10.475  13.013   1.670  0.3020  0.0951  0.1099
14572W        W29703  13.617   6.157   1.749 -0.0873 -0.2838 -0.0647
14573W        W29704  13.148   2.485   0.423 -0.4554 -0.2955  0.4612
14574W        W29705  13.032  13.041  13.775  0.0442  0.3781  0.1775
14575W        W29706   5.072  16.968  14.434 -0.2214 -0.1821 -0.2711
14576W        W29707   4.316  13.027  15.484  0.1316  0.2956  0.3149
14577W        W29708  10.992   0.408   2.507  0.2833  0.1453  0.1634
14578W        W29709   0.946  10.736  12.999  0.1165 -0.1577  0.0896
14579W        W29710   1.228   3.260   1.672  0.0659  0.1662 -0.3112
14580W        W29711  18.470  13.164   2.467  0.2963 -0.2438 -0.0675
14581W        W29712   2.815   0.527  11.812  0.1041  0.0858 -0.0082
14582W        W29713  18.181  15.858  14.809 -0.0056  0.2083  0.1458
14583W        W29714  16.706   1.600  14.938 -0.1244 -0.2444  0.1936
14584W        W29715   4.707   4.158   1.594 -0.0746  0.0907 -0.0576
14585W        W29716   0.681  12.479   0.253  0.1044  0.1199  0.1071
14586W        W29717  17.041  10.119  13.640 -0.1081  0.0719  0.0321
14587W        W29718  16.806  12.841   2.314 -0.3396 -0.0713 -0.0206
14588W        W29719  18.311  11.750  11.261 -0.0927 -0.1812  0.4225
14589W        W29720  15.652   3.740  13.948 -0.1699  0.2297 -0.3015
14590W        W29721  12.870  10.442   1.378 -0.1638  0.2708 -0.0044
14591W        W29722  16.976  18.154  12.554 -0.0105 -0.2130  0.1359
14592W        W29723  16.105   2.102   0.256 -0.0482  0.2375  0.3547
14593W        W29724  12.924   4.866  14.300  0.2014 -0.0315  0.2189
14594W        W29725   6.544  13.694  12.244  0.0610  0.2622  0.3362
14595W        W29726  10.844  10.206   4.363  0.0412  0.0485  0.1212
14596W        W29727   0.457   6.584  12.290 -0.1867  0.1971 -0.3141
14597W        W29728  16.867  14.005   3.979  0.0677  0.4151 -0.0384
14598W        W29729   4.745  10.488  16.037 -0.1045 -0.0016  0.2902
14599W        W29730   7.099   6.052   5.343 -0.0188  0.1380  0.1615
14600W        W29731   1.962  14.789  11.091  0.1418  0.0162 -0.0757
14601W        W29732   7.934   7.025   2.626 -0.1344 -0.0853  0.1488
14602W        W29733  14.464   5.957  11.459 -0.4478 -0.1105 -0.1238
14603W        W29734   0.540  12.628   1.586 -0.5851  0.3613 -0.0167
14604W        W29735   0.960   1.229   0.630  0.0957 -0.2062  0.1412
14605W        W29736   1.898   9.556  14.324 -0.5452 -0.2179 -0.0189
14606W        W29737  16.791  15.335   5.106  0.1949 -0.0484 -0.0408
14607W        W29738   0.424   8.379   1.859 -0.2047 -0.1850 -0.1761
14608W        W29739   1.671   5.636   2.236  0.0067  0.0642  0.0360
14609W        W29740   9.457  11.189   2.181  0.2496 -0.2472 -0.0707
14610W        W29741   9.967  10.957  15.741  0.0996 -0.1586  0.0787
14611W        W29742  16.051   7.548   3.260  0.0581  0.1491 -0.2797
14612W        W29743  13.768  14.917  15.728 -0.0558 -0.0022  0.1118
14613W        W29744   8.281  11.097   4.869 -0.0565  0.1215 -0.0856
14614W        W29745   2.730  15.455   0.338  0.1425 -0.0709 -0.0164
14615W        W29746   8.597  13.736  11.226 -0.5586 -0.2167  0.1927
14616W        W29747   5.646   6.896   5.130  0.0900  0.0392 -0.1850
14617W        W29748   9.583  16.941  12.364 -0.1871  0.1190 -0.1372
14618W        W29749   9.376   6.089  11.123 -0.1125  0.1237 -0.0861
14619W        W29750   5.170   7.315  12.270 -0.0031  0.0835 -0.0315
14620W        W29751  12.470   9.220  11.252  0.0722  0.1062 -0.3100
14621W        W29752  10.884   5.836   0.117 -0.1574 -0.0967  0.2259
14622W        W29753   6.108  10.617   0.982 -0.0391  0.4224 -0.1815
14623W        W29754  11.475   3.112  13.084  0.2637  0.1668 -0.1364
14624W        W29755   6.560   2.050  13.972 -0.0394  0.1717 -0.1733
14625W        W29756  16.989   1.808  10.362  0.0077 -0.2046  0.4998
14626W        W29757   8.930   8.758   5.016 -0.1371  0.1909  0.3357
14627W        W29758   1.071   8.220  12.836 -0.0289  0.0649 -0.0105
14628W        W29759  15.488  11.884  15.316 -0.3166 -0.2237 -0.2711
14629W        W29760  16.093  11.553  13.466  0.1713 -0.1368 -0.1487
14630W        W29761  16.905  14.910  13.008  0.0526  0.0453 -0.0875
14631W        W29762  13.241   9.062  12.471  0.1327  0.0760 -0.0866
14632W        W29763   8.260  16.197   0.779 -0.0569  0.1578  0.3749
14633W        W29764   6.625   9.908   4.745 -0.2344 -0.2690  0.0292
14634W        W29765  14.438  14.018  14.153 -0.0738  0.1412  0.3370
14635W        W29766   0.002   0.780  15.340  0.2137 -0.1136 -0.1742
14636W        W29767  17.325  11.600  14.725  0.0947  0.0718  0.1492
14637W        W29768   7.163  10.834   2.129 -0.0923 -0.0006 -0.3201
14638W        W29769  12.795  16.208   0.554 -0.0801 -0.0472  0.0339
14639W        W29770   2.990  13.331   2.125  0.1317  0.1763 -0.0052
14640W        W29771  13.996  17.675  12.801 -0.0651  0.1212 -0.0292
14641W        W29772  15.870   1.553  11.292 -0.1499  0.1713 -0.3512
14642W        W29773   5.359  12.935   5.618 -0.0236 -0.1842  0.0353
14643W        W29774   8.959  15.006  11.569 -0.1818  0.3504 -0.0616
14644W        W29775  16.000  16.257  12.652 -0.1485 -0.5589 -0.2723
14645W        W29776  17.603   6.621  13.666 -0.0454 -0.2833 -0.1819
14646W        W29777   2.930  10.560   5.470  0.2286 -0.4791 -0.2729
14647W        W29778   5.747   5.025  16.064 -0.1163  0.1999  0.4159
14648W        W29779   9.036   7.561  15.758  0.1282 -0.0390  0.2314
14649W        W29780   5.882  14.497  10.200  0.3019  0.3497  0.2961
14650W        W29781   2.271   2.185  16.008 -0.2124  0.1843  0.0134
14651W        W29782   3.902  17.202   5.218  0.0458 -0.0396  0.0820
14652W        W29783   3.490   3.987  12.742  0.0052  0.1475  0.1799
14653W        W29784   9.608   4.335   6.222 -0.0571  0.1046 -0.4598
14654W        W29785   2.610  10.824  15.349 -0.0118 -0.3332  0.0657
14655W        W29786  12.736   4.467   3.479  0.1304  0.3055  0.0353
14656W        W29787   3.820   9.785  12.793  0.1401  0.0635  0.2219
14657W        W29788   7.076  11.619  12.207  0.0956  0.1614 -0.0555
14658W        W29789  16.867  17.190  11.558 -0.0029  0.0869 -0.0472
14659W        W29790   9.766  13.635   1.900  0.2360  0.0062 -0.1549
14660W        W29791  15.826   4.486   2.778 -0.4087 -0.3505 -0.3076
14661W        W29792   6.581  16.280   0.965  0.3227  0.0402 -0.0631
14662W        W29793   9.143   0.976  14.163  0.0363 -0.0169  0.2284
14663W        W29794   7.422  17.073  14.151 -0.2604  0.1461  0.0848
14664W        W29795  13.767   6.212  15.434  0.2756  0.2060  0.2136
14665W        W29796   7.555   1.459  11.227  0.0290 -0.1930 -0.1496
14666W        W29797   4.543  11.047   2.962 -0.0967 -0.4917 -0.2762
14667W        W29798  11.640  14.941   1.569 -0.1543 -0.2151  0.1256
14668W        W29799  12.908   0.506   3.947 -0.0020 -0.1768  0.1302
14669W        W29800   3.705  13.365   1.457 -0.0499 -0.1849 -0.1715
14670W        W29801  16.501   6.343  14.820  0.1749 -0.0035  0.1981
14671W        W29802   7.376   7.062   0.025 -0.1671  0.0541 -0.0771
14672W        W29803   2.326   1.192   3.258  0.3221 -0.1550  0.0726
14673W        W29804   9.742   1.382   4.194  0.3234 -0.1087 -0.1894
14674W        W29805   4.504   7.380   5.869  0.0087 -0.4070  0.1350
14675W        W29806  14.273   7.365   2.198  0.0004 -0.1937 -0.1840
14676W        W29807  11.791  14.840   3.790 -0.0547 -0.1500 -0.2696
14677W        W29808  14.559   7.589   1.758 -0.4346 -0.0082 -0.2300
14678W        W29809   1.202   9.150  13.366 -0.1085  0.0602 -0.1152
14679W        W29810   4.330   8.680   0.264 -0.1082  0.2574  0.1978
14680W        W29811   3.499   9.684   1.649 -0.1587 -0.0570 -0.0145
14681W        W29812  16.364   9.911  15.322  0.0351 -0.2818  0.0119
14682W        W29813  16.931   6.527  12.110 -0.0210  0.0034 -0.1065
14683W        W29814  15.890  14.075   4.563 -0.0636 -0.4646  0.2326
14684W        W29815  12.191  11.822   0.851  0.0852 -0.1240 -0.0070
14685W        W29816  18.244   0.175  13.246  0.1888 -0.1290  0.0545
14686W        W29817   7.520   3.016   2.344 -0.1052 -0.0511 -0.1132
14687W        W29818   4.836   7.802   4.587  0.0352 -0.2025 -0.1445
14688W        W29819  11.406  11.486   1.434  0.0483  0.1455 -0.3685
14689W        W29820   6.454   2.404  12.918  0.2164 -0.1649 -0.3288
14690W        W29821   8.874  17.944   0.813  0.1112  0.1880 -0.1726
14691W        W29822   1.256  16.078   0.342  0.0174 -0.1000  0.1031
14692W        W29823  11.924   7.046  12.237  0.0231 -0.1392  0.0069
14693W        W29824  11.489  13.226  13.737 -0.2938 -0.3300 -0.2435
14694W        W29825   0.307  15.673   4.596  0.0012 -0.0493 -0.0008
14695W        W29826  16.362   0.024   3.878 -0.3173  0.0928 -0.2264
14696W        W29827   3.903   0.352   2.916 -0.2217  0.0932 -0.1197
14697W        W29828   5.443   4.921   2.155 -0.1266 -0.2533  0.1223
14698W        W29829   2.451   6.390   5.040 -0.1336  0.0498  0.3639
14699W        W29830  12.344   1.835  12.320 -0.3402  0.0683 -0.0199
14700W        W29831  18.170   5.877   4.501 -0.1522  0.2135 -0.0970
14701W        W29832  14.264   7.406   6.480 -0.1092 -0.1817  0.1988
14702W        W29833  10.395  10.254   4.604  0.3754  0.2194  0.0625
14703W        W29834  16.261  13.641  12.869 -0.1558 -0.0566 -0.0277
14704W        W29835  12.315   0.527   5.804  0.2186  0.0179 -0.3888
14705W        W29836   5.496   0.772   5.109  0.1529 -0.0782 -0.0222
14706W        W29837  15.247   1.465   0.686 -0.1212  0.3229 -0.1215
14707W        W29838  10.307   8.391   0.852  0.0967 -0.1647 -0.2221
14708W        W29839  11.275   4.447   2.034  0.2468 -0.0030 -0.0733
14709W        W29840   8.414   8.146  11.204  0.3088  0.2396 -0.1526
14710W        W29841   6.800   6.262  14.503  0.0335  0.1290  0.4818
14711W        W29842   0.045   0.420   0.166 -0.0731  0.3300  0.0731
14712W        W29843   1.565   1.439  14.180  0.1338 -0.0855  0.3042
14713W        W29844   9.901   2.505  11.384 -0.3014  0.3134 -0.0436
14714W        W29845   2.079   8.023  16.029 -0.1515  0.1832 -0.2084
14715W        W29846   9.942  17.199   0.317  0.1413  0.0756 -0.1775
14716W        W29847  16.855  18.205  13.996 -0.0658 -0.0711 -0.0152
14717W        W29848   8.847   0.380  10.763  0.3632  0.3052 -0.2329
14718W        W29849   2.417   6.626   3.631  0.2390 -0.4488 -0.1986
14719W        W29850   7.955  17.586  14.932 -0.5356  0.0041  0.0573
14720W        W29851  14.814  15.476  11.612  0.1216  0.1322  0.1105
14721W        W29852   1.506   9.065   3.845 -0.1660 -0.5079  0.5437
14722W        W29853  17.903   0.981   3.112  0.2780  0.0403 -0.0468
14723W        W29854   6.215   2.032  14.892  0.1350  0.3355 -0.0693
14724W        W29855   2.569  11.239   2.575 -0.2704 -0.3010 -0.0256
14725W        W29856   2.240  14.712  11.496  0.1047  0.0672 -0.0230
14726W        W29857   9.025   5.060  12.856 -0.1891  0.0562  0.0729
14727W        W29858  12.158  13.424   2.151  0.0146 -0.0261  0.0013
14728W        W29859   6.033  14.978  10.918 -0.0210  0.2503 -0.0983
14729W        W29860  14.280  16.663  13.601 -0.2218  0.2091 -0.2106
14730W        W29861   3.211   9.129  12.781  0.1002  0.0120  0.1826
14731W        W29862   9.210   1.029  15.971  0.0167 -0.0055  0.0273
14732W        W29863  13.517  10.356  12.518 -0.2370  0.0839 -0.1829
14733W        W29864  15.076  14.194  13.053 -0.0571 -0.0273 -0.4146
14734W        W29865  16.165   8.686  11.404  0.0701 -0.2390 -0.1117
14735W        W29866   9.655  17.765  12.126 -0.2303 -0.0911  0.2080
14736W        W29867   1.563  16.421  10.521  0.0405  0.2206  0.3723
14737W        W29868  10.948   4.567  16.055 -0.0638 -0.0700  0.1666
14738W        W29869   7.509   9.724  11.265 -0.0189  0.3834  0.0428
14739W        W29870   2.624  17.108   2.120  0.1735  0.0197 -0.3145
14740W        W29871  10.483   4.321  15.381  0.0451  0.4312 -0.0394
14741W        W29872   1.533  15.095   4.632 -0.1960 -0.0187  0.1770
14742W        W29873  10.660   7.846   1.637  0.0215  0.1652  0.1551
14743W        W29874   2.383   1.473  13.181 -0.2992  0.1605  0.0651
14744W        W29875  12.735  17.456  10.247  0.0643  0.3475 -0.1701
14745W        W29876  10.250   0.364  10.465  0.0624  0.1985  0.4557
14746W        W29877   2.318   3.335   3.570 -0.1486  0.2765  0.1525
14747W        W29878   8.832  16.955   3.022 -0.2524  0.0076  0.2808
14748W        W29879   9.777  17.012  14.875 -0.1534 -0.1055 -0.0678
14749W        W29880  11.500   2.915   1.747 -0.2658 -0.2234  0.1548
14750W        W29881  13.307  13.917   0.724  0.0566 -0.2683 -0.0926
14751W        W29882   4.882   8.855   5.754  0.0589 -0.0874  0.1436
14752W        W29883   8.308  14.919  14.500 -0.3034  0.4285 -0.1166
14753W        W29884   4.163   2.488  11.732  0.2116  0.0143  0.0373
14754W        W29885  13.721   9.233  14.746 -0.3080  0.0548  0.2695
14755W        W29886   4.256   8.410   4.813 -0.1609 -0.0490  0.1512
14756W        W29887  11.421   0.395   5.453 -0.4909  0.3402 -0.3925
14757W        W29888  11.057   2.412   3.564  0.1565 -0.0652 -0.0498
14758W        W29889  17.267  17.744  12.415 -0.1369 -0.2371 -0.0241
14759W        W29890  14.773  16.776  11.891 -0.1912  0.0787 -0.3113
14760W        W29891   7.747   0.040  11.351  0.1998  0.3584 -0.0809
14761W        W29892  16.194  12.586  14.239  0.2575 -0.2140 -0.0828
14762W        W29893  12.863  13.341  10.116 -0.1346 -0.1173  0.3198
14763W        W29894  15.569  10.942   4.624 -0.1954 -0.4646  0.1853
14764W        W29895  18.265  14.526  13.681 -0.1805 -0.0076 -0.0433
14765W        W29896   6.095   1.268  15.410 -0.2036  0.0426  0.2540
14766W        W29897  12.533   7.476   2.569  0.2246 -0.2431 -0.1796
14767W        W29898  16.178  16.934   3.334  0.3689 -0.1658 -0.0889
14768W        W29899   2.636   4.116  12.038  0.0951 -0.0766  0.4881
14769W        W29900  12.120   6.527   4.547 -0.2386  0.1269 -0.0833
14770W        W29901  18.048   6.007   2.066  0.0565  0.1442 -0.2704
14771W        W29902  11.429   7.648  11.458  0.2858  0.0330 -0.1640
14772W        W29903   7.334   5.399  11.771 -0.0505 -0.1918 -0.4549
14773W        W29904  17.006  17.513   4.681 -0.1242 -0.1147 -0.4258
14774W        W29905   5.000   3.926  13.016 -0.1782 -0.0444  0.0683
14775W        W29906  12.682  13.599  11.808 -0.0463  0.2900  0.0846
14776W        W29907  10.749   3.395   1.675 -0.5006  0.2014 -0.3712
14777W        W29908  18.390  10.099   5.022  0.0995 -0.0344 -0.0669
14778W        W29909  15.840   4.947  12.619  0.1091  0.0050 -0.0081
14779W        W29910   2.277  16.821   0.103  0.1632 -0.4789  0.1895
14780W        W29911  13.205  16.016   4.740  0.0898  0.0539 -0.1169
14781W        W29912  16.476   5.167   4.145 -0.2271  0.1088 -0.0274
14782W        W29913  16.056   5.650   5.121  0.2844  0.1276  0.1390
14783W        W29914   6.192   5.082  13.359  0.5329 -0.1100 -0.1541
14784W        W29915  13.937   3.713  11.373 -0.0709 -0.0593  0.1521
14785W        W29916  13.239   0.955   0.677  0.1636 -0.3558 -0.0504
14786W        W29917   8.315  11.844   0.486  0.1081  0.0467 -0.0832
14787W        W29918   7.087   4.542   4.403 -0.3024 -0.2171  0.2901
14788W        W29919   9.316   2.507  14.992 -0.1392  0.2442  0.2467
14789W        W29920   9.510  17.708   3.073  0.0546 -0.2508  0.4498
14790W        W29921  18.165   1.880  10.805 -0.2630 -0.3738  0.1112
14791W        W29922  11.151   8.803   2.635 -0.3240 -0.1637 -0.0753
14792W        W29923  12.377  15.921  13.265  0.4814  0.0607 -0.0177
14793W        W29924   4.669  16.576  10.570 -0.1818 -0.1932  0.2194
14794W        W29925   1.398   4.029   3.452  0.0588 -0.1489  0.0944
14795W        W29926   9.155   7.237  14.051  0.1045  0.0633  0.1542
14796W        W29927   5.016   9.660  13.008  0.0828 -0.1775 -0.1236
14797W        W29928  14.263   3.378   2.315  0.0411 -0.0762  0.1179
14798W        W29929   6.284  12.565   0.824 -0.1212  0.1725 -0.0604
14799W        W29930  10.968   2.222  15.652  0.0342 -0.2636 -0.0452
14800W        W29931  18.106   1.084   1.940 -0.2511  0.0243 -0.0594
14801W        W29932   6.112  10.938  11.017  0.0867  0.2473 -0.1323
14802W        W29933   6.254  14.052  12.484  0.0481  0.3105  0.1388
14803W        W29934   2.053   9.423   4.309 -0.0242  0.0090  0.4251
14804W        W29935   2.304   5.448  14.539  0.4284 -0.2243 -0.0068
14805W        W29936   5.187  16.112  14.908  0.1253  0.3716  0.2585
14806W        W29937  12.779   7.998   1.765 -0.1450  0.3188 -0.1371
14807W        W29938   3.732   8.947  12.090 -0.0144 -0.2661  0.2488
14808W        W29939   2.026   1.285  10.744  0.0587 -0.0145 -0.0440
14809W        W29940   3.724  17.562   9.819 -0.1979  0.1367 -0.0654
14810W        W29941  11.540  14.197   0.305 -0.1769  0.2201  0.1256
14811W        W29942  17.641   4.963  13.336 -0.0001  0.0977  0.1831
14812W        W29943  14.632   3.151   4.100  0.0812  0.0569 -0.0191
14813W        W29944   1.873  14.366  15.284 -0.0916  0.2561 -0.0530
14814W        W29945   0.483   6.452  12.789  0.1866 -0.1215 -0.2005
14815W        W29946   2.886   8.360   1.889  0.4271  0.2796 -0.0356
14816W        W29947   5.742   7.609  12.642  0.1384 -0.1945 -0.0618
14817W        W29948  15.859   5.135  14.445  0.0436  0.1389 -0.1761
14818W        W29949  16.957   7.050   3.933 -0.0577  0.1788 -0.4394
14819W        W29950  13.175   9.247  15.952  0.0295 -0.1680  0.5597
14820W        W29951   0.528  11.889  14.882 -0.0064  0.4631 -0.3895
14821W        W29952   6.965  10.727   3.439 -0.3778 -0.0624 -0.1566
14822W        W29953  18.446  15.060  12.865  0.0348  0.0214  0.1351
14823W        W29954  17.347  12.410   5.061  0.0866  0.3003  0.1292
14824W        W29955  11.823   5.144  14.377 -0.0849 -0.1629 -0.2002
14825W        W29956  11.998   7.442   5.734 -0.2281  0.1174  0.0346
14826W        W29957   3.428   0.284   3.646 -0.3995  0.2547 -0.0426
14827W        W29958  12.853  12.395  14.753 -0.5463  0.1122 -0.0011
14828W        W29959  14.389  17.092   5.452  0.5516  0.0509  0.0352
14829W        W29960  11.919  14.026  13.838  0.2429 -0.3518  0.0985
14830W        W29961   4.623  13.408   0.562  0.0518  0.0408 -0.0204
14831W        W29962   3.864   9.303   1.779 -0.1183  0.1917 -0.0152
14832W        W29963  16.704   3.300  10.014 -0.0287  0.1141 -0.1224
14833W        W29964  16.469   8.891   3.249  0.2144 -0.0894 -0.3533
14834W        W29965   5.659   3.175   2.922  0.0763  0.1879 -0.0214
14835W        W29966   3.863   0.827  15.234  0.2383 -0.2301  0.3864
14836W        W29967   5.168   2.742   5.131 -0.1973  0.1697 -0.0959
14837W        W29968   8.487  18.072   9.849  0.1488  0.2446 -0.0387
14838W        W29969  15.190   6.432   5.424  0.3539 -0.2069 -0.1191
14839W        W29970   0.880  11.574   5.577  0.1374  0.0683 -0.0416
14840W        W29971  13.781  17.970   4.585  0.2176 -0.2091  0.0286
14841W        W29972   3.871  13.751   5.020 -0.0672 -0.0046 -0.0420
14842W        W29973   3.956  11.308   3.440 -0.4828  0.3461  0.1822
14843W        W29974  15.981   6.494  14.821 -0.0875  0.1590  0.1360
14844W        W29975   7.675  13.262   1.387  0.2049 -0.0172  0.2417
14845W        W29976   3.160   8.784  11.355 -0.0400  0.0186 -0.0245
14846W        W29977  14.488  10.333   5.946  0.1227  0.1823 -0.1372
14847W        W29978   1.230  15.484   0.679 -0.2448  0.1075 -0.0759
14848W        W29979   9.723   0.876   4.919 -0.0244  0.2677 -0.0723
14849W        W29980  10.567   2.987   4.904  0.0647  0.0759 -0.0959
14850W        W29981  11.271  11.212   0.011 -0.0107 -0.0695 -0.0262
14851W        W29982  10.346  18.097  14.584 -0.1248 -0.0141 -0.2082
14852W        W29983  18.248  14.678   0.202 -0.0508  0.1595 -0.0665
14853W        W29984  14.897   5.344   1.134  0.0242 -0.3088 -0.0167
14854W        W29985  15.140  13.612   2.203  0.1194  0.0466 -0.3288
14855W        W29986   3.746   5.157   3.623 -0.0170 -0.1128  0.2219
14856W        W29987  17.582   2.278   3.834  0.2652 -0.0118 -0.1496
14857W        W29988   2.260   2.059   0.728 -0.0782  0.2195 -0.1415
14858W        W29989  16.612   9.227  13.857  0.3573  0.1125  0.0872
14859W        W29990   4.502   3.941  12.800 -0.1760 -0.6367 -0.1502
14860W        W29991   6.006   8.465  12.180 -0.1212 -0.1330 -0.0673
14861W        W29992   2.786   1.784   5.461  0.2067 -0.3239  0.0257
14862W        W29993  10.352  14.741   4.005  0.1090 -0.1657 -0.0811
14863W        W29994  13.316   6.900   4.771 -0.2426 -0.1355  0.2169
14864W        W29995  16.785   8.914   5.512  0.3409  0.0392 -0.0242
14865W        W29996  11.856  16.540   3.462 -0.1345  0.2102  0.3393
14866W        W29997  17.619  16.057  11.479 -0.1100  0.1843 -0.1105
14867W        W29998  13.084   2.275  16.052  0.0672  0.1322 -0.2451
14868W        W29999   9.750   4.077  12.783  0.3167  0.3571 -0.0423
14869W        W30000   8.410   7.807   4.794  0.2490  0.0976  0.1689
14870W        W30001  16.721   6.507  15.329 -0.1358  0.2860 -0.2153
14871W        W30002  10.422   6.127   1.620  0.1276  0.0811  0.1101
14872W        W30003  16.669  17.627  11.457 -0.0432  0.3324 -0.1580
14873W        W30004   8.949   1.136  13.560 -0.0817  0.0176 -0.2411
14874W        W30005   3.721  13.468   4.489  0.0524  0.0445  0.1199
14875W        W30006  12.151   8.128  13.093  0.0271  0.1949 -0.1278
14876W        W30007   6.899  17.992   3.019 -0.2436 -0.0483  0.1450
14877W        W30008   9.899   4.192   3.023  0.0559 -0.0591  0.5034
14878W        W30009   2.751   8.927   4.767  0.3639 -0.2654 -0.1874
14879W        W30010   6.867   2.550  11.183 -0.1170 -0.1234 -0.2286
14880W        W30011   7.983  10.919  14.459  0.0979 -0.6487 -0.2923
14881W        W30012   6.498  17.134   2.569 -0.3756 -0.1409 -0.1468
14882W        W30013  15.167   6.611  12.188  0.0345 -0.2032 -0.1436
14883W        W30014  16.298  17.625   1.651  0.4121 -0.0423  0.3409
14884W        W30015   8.249   4.711   2.341 -0.0400 -0.1929 -0.0279
14885W        W30016   5.743   3.702  13.015 -0.2217 -0.1407  0.0807
14886W        W30017  14.627  17.749  14.512  0.1699  0.3566  0.1508
14887W        W30018  11.728   9.818  15.903  0.1314  0.2201 -0.0303
14888W        W30019   7.984  11.753  11.224  0.2712  0.0873  0.1320
14889W        W30020  18.459  11.649   5.439 -0.2305  0.1584  0.0680
14890W        W30021  11.173   7.501   2.418  0.2431  0.2172 -0.0530
14891W        W30022   4.294  12.589   0.013  0.2820 -0.0011  0.0223
14892W        W30023  16.290  10.680  11.371  0.3171 -0.1658 -0.0433
14893W        W30024   4.948  13.806   9.842  0.0598  0.0694  0.0241
14894W        W30025   3.021   8.055   0.113 -0.0885  0.0823  0.2304
14895W        W30026  11.066  13.849  11.763  0.1942 -0.2366  0.2939
14896W        W30027   9.915   5.094  12.319 -0.0445  0.0590 -0.0018
14897W        W30028  10.982   2.138   1.274 -0.1981 -0.0423  0.1860
14898W        W30029  12.306  11.330   0.174 -0.3286 -0.1222  0.3727
14899W        W30030  16.713  16.301  11.749 -0.1183 -0.2303 -0.1572
14900W        W30031   9.284  16.009   3.958  0.2213  0.3245  0.1064
14901W        W30032  11.417  10.640  12.596  0.0475 -0.0684 -0.2260
14902W        W30033   4.935  15.151  11.020 -0.1073 -0.0625  0.2596
14903W        W30034   4.773   4.810  14.031 -0.1746  0.1242  0.2770
14904W        W30035  16.720   7.449   3.670  0.1072  0.0647  0.0183
14905W        W30036  12.182   6.918  14.288  0.0443 -0.2900 -0.1312
14906W        W30037   8.292  14.729   4.924  0.2397  0.2082 -0.0166
14907W        W30038  11.007   2.129   0.395 -0.0736 -0.0087 -0.3324
14908W        W30039   7.522   9.123  15.667  0.3093  0.0091  0.1544
14909W        W30040  17.144  13.125  14.427  0.3746  0.1716 -0.3952
14910W        W30041  15.278  10.361   5.654  0.2148 -0.1840  0.0488
14911W        W30042  10.831  10.216  12.803  0.3160 -0.1756 -0.0158
14912W        W30043   7.853  15.204  15.319 -0.1586 -0.1377  0.0773
14913W        W30044   9.905  13.281   4.334  0.0794  0.1605 -0.2009
14914W        W30045  14.249  11.126   4.471  0.0228 -0.0619 -0.1166
14915W        W30046  17.546   9.101   1.442 -0.0261 -0.2101 -0.1136
14916W        W30047   6.498   3.016   6.270  0.4172 -0.3576 -0.1911
14917W        W30048   3.026  12.099  11.155 -0.0968 -0.2110  0.0271
14918W        W30049   6.512   5.793  13.054  0.2479  0.0000  0.0837
14919W        W30050   4.871  17.445   3.540  0.0143  0.0238 -0.0379
14920W        W30051  14.462   1.856  12.908 -0.3407  0.1816  0.2222
14921W        W30052  10.379   3.312   2.098  0.0307 -0.1456  0.0815
14922W        W30053  15.507   3.540  15.410 -0.3089  0.3067 -0.4524
14923W        W30054  15.646   6.670   4.604  0.0612  0.2118  0.0495
14924W        W30055   8.763   2.214  15.516 -0.2418 -0.0595 -0.3438
14925W        W30056  15.449   1.980  14.614  0.2112  0.1766 -0.5297
14926W        W30057   5.189  10.492   2.299  0.0633 -0.0642  0.3527
14927W        W30058  16.461  13.085   1.885 -0.0741 -0.0345  0.0348
14928W        W30059  17.804   7.120   6.025 -0.2112  0.1299 -0.0879
14929W        W30060   9.220   0.233   4.032 -0.2133  0.2063  0.0992
14930W        W30061  10.074   0.677   2.570 -0.0023 -0.0400 -0.0600
14931W        W30062   2.916  15.210  16.037  0.2323 -0.0650 -0.1292
14932W        W30063  13.520  12.382   0.908  0.0598  0.0025 -0.0122
14933W        W30064   8.457  14.728   1.611  0.2115 -0.1785  0.0828
14934W        W30065   3.855  10.280  10.991 -0.1414  0.2019 -0.2671
14935W        W30066   4.631  15.605   4.742  0.2344 -0.1983 -0.1392
14936W        W30067  12.284   0.098   0.163 -0.1835 -0.0537 -0.2748
14937W        W30068   0.651   7.888   3.393 -0.2776  0.0116  0.0128
14938W        W30069   2.652   5.305   2.929  0.0601 -0.0928  0.0592
14939W        W30070   9.468   5.113  13.325 -0.3102  0.3297  0.1210
14940W        W30071   6.119   4.522   1.436  0.1501  0.0097  0.0337
14941W        W30072   4.842  18.268  12.899 -0.1285  0.0463  0.0173
14942W        W30073  18.021   4.960  13.627  0.0727 -0.0028 -0.2295
14943W        W30074   7.553   1.987   0.136  0.0132 -0.0476 -0.1787
14944W        W30075   6.132   2.787   0.332 -0.5137 -0.1292  0.1078
14945W        W30076   6.228   8.056   3.181  0.1215  0.1033 -0.0903
14946W        W30077   2.440   4.652  14.229 -0.0632  0.6139  0.1827
14947W        W30078   1.575   7.258   4.798 -0.0693  0.0647  0.3509
14948W        W30079   7.615   9.668  14.982 -0.0389  0.0439  0.1327
14949W        W30080   2.470   2.662  12.475  0.1495 -0.1280 -0.1429
14950W        W30081   4.118   4.916  12.575  0.2091 -0.2440  0.0969
14951W        W30082  15.366  11.629  11.589 -0.3517  0.1776 -0.0270
14952W        W30083  14.125  11.795  15.433 -0.1008 -0.4946 -0.1993
14953W        W30084  11.267  13.536  11.459  0.3503 -0.0832  0.0056
14954W        W30085  14.989  12.416   3.326 -0.0138 -0.0653 -0.1591
14955W        W30086  12.373   5.172  14.383 -0.0018 -0.0760 -0.0614
14956W        W30087  18.078  13.714   5.543  0.0881  0.1821 -0.0902
14957W        W30088   6.301   1.528  14.974 -0.0431 -0.0774 -0.0685
14958W        W30089  14.251  14.848  12.082  0.0136  0.0128 -0.0258
14959W        W30090   9.826   1.038   0.630 -0.2951 -0.1895  0.2177
14960W        W30091  18.098  17.788   3.364 -0.1386  0.3350  0.1767
14961W        W30092   8.926   7.124   4.344  0.0237 -0.0132  0.1163
14962W        W30093   2.089   6.264  11.449 -0.2752 -0.2357  0.1406
14963W        W30094  17.380   1.278  12.885  0.0989  0.1915 -0.0518
14964W        W30095  17.307   6.608  12.456  0.0495  0.1140 -0.3600
14965W        W30096  14.694   7.575   3.139  0.1138  0.3482 -0.1503
14966W        W30097  15.264  15.153  15.544 -0.1060 -0.0141  0.2355
14967W        W30098  11.713  18.277   1.560 -0.0347  0.0340 -0.2663
14968W        W30099   1.096   7.717  15.365 -0.0375  0.0393  0.0240
14969W        W30100   4.708  15.757   2.022  0.0688 -0.1367  0.0594
14970W        W30101  10.213  15.956  11.336 -0.3718  0.0935  0.0486
14971W        W30102   5.765  17.892   1.697  0.0830 -0.1972 -0.1490
14972W        W30103   6.050   3.413  10.187 -0.5655  0.0748  0.4233
14973W        W30104   8.516   7.668  11.453  0.1003 -0.1090 -0.0306
14974W        W30105   3.474   5.302  11.066  0.1885 -0.1201 -0.1362
14975W        W30106   1.615  15.231   0.955  0.0597  0.0236 -0.0624
14976W        W30107  17.808  12.417   4.944 -0.0776  0.1421 -0.0797
14977W        W30108  18.158   8.680   4.726 -0.0846 -0.2288 -0.1323
14978W        W30109  16.420   4.008  14.164 -0.0978  0.0303  0.0945
14979W        W30110  17.811   1.982   0.444  0.2282  0.0493 -0.0957
14980W        W30111  15.034  12.408  10.539 -0.0398 -0.4644 -0.1401
14981W        W30112   2.056  13.080   2.076  0.2395  0.0167  0.1580
14982W        W30113  15.468   5.464  15.693 -0.2111  0.0884 -0.2977
14983W        W30114   9.720  13.317  13.109  0.0028 -0.1161  0.2578
14984W        W30115   1.670  14.744  14.564 -0.2570  0.0513 -0.0534
14985W        W30116   3.732  17.198   1.625 -0.2009 -0.0156 -0.1415
14986W        W30117  13.406   0.198   4.944  0.0983  0.0474 -0.1055
14987W        W30118   1.066  10.526  12.443 -0.2893 -0.1599  0.0135
14988W        W30119  13.736  16.054   2.816  0.3793  0.0113 -0.0142
14989W        W30120  18.007   7.016  12.732 -0.0364  0.0324  0.0427
14990W        W30121   0.557  16.133   1.735 -0.1636  0.0317 -0.0185
14991W        W30122  17.713   1.454   4.385 -0.1438  0.1338  0.2078
14992W        W30123  18.229   2.988  11.436 -0.0302 -0.2020  0.1489
14993W        W30124   2.177   1.714   2.008  0.1769  0.0588  0.0735
14994W        W30125   9.058  12.269  11.149 -0.0377  0.2711 -0.0057
14995W        W30126   1.499   5.373  11.907  0.0032  0.0048 -0.1979
14996W        W30127   9.245   3.430   5.303 -0.2638  0.1161 -0.2251
14997W        W30128  11.515   1.840   0.359  0.1906 -0.3509  0.1082
14998W        W30129   4.845  12.236   6.338 -0.1628 -0.2671  0.0308
14999W        W30130  17.686  13.934  15.651  0.1462 -0.1249  0.1585
15000W        W30131   8.636  15.388  14.331  0.1673  0.2121  0.0795
15001W        W30132   1.896   3.431   1.929 -0.4468  0.0051  0.0729
15002W        W30133   3.455   2.853  14.557 -0.3667 -0.1296  0.3574
15003W        W30134   4.818   1.807   5.231  0.3245 -0.2044  0.0028
15004W        W30135  11.680   4.759   2.102 -0.1856 -0.2258  0.0601
15005W        W30136  13.470   6.123   5.008 -0.0191 -0.0845  0.0840
15006W        W30137  10.606   9.520   2.131 -0.0348 -0.0330 -0.0802
15007W        W30138   0.563   8.544   5.116 -0.2999 -0.1723 -0.0011
15008W        W30139   0.396   8.335   3.377 -0.0906 -0.0167 -0.0872
15009W        W30140   6.963  12.491   5.235 -0.1176  0.0520  0.2751
15010W        W30141   5.892   7.514   4.494 -0.1785  0.1949 -0.0739
15011W        W30142  15.406  13.900  14.403  0.0115  0.1277 -0.0496
15012W        W30143  13.574   5.721  15.790  0.1098  0.2148 -0.1238
15013W        W30144   3.824   0.701   1.777 -0.0549 -0.2924 -0.1964
15014W        W30145  14.198   3.036   5.769  0.2156 -0.1795 -0.0569
15015W        W30146  16.726  18.178   5.262  0.1615  0.0186 -0.0404
15016W        W30147   6.881   5.555   4.250  0.0531  0.0382  0.1087
15017W        W30148   9.864   8.270   5.648 -0.2461  0.2575  0.0074
15018W        W30149   8.035  10.650  14.050  0.2632  0.1729  0.0930
15019W        W30150   4.037   4.938   3.027 -0.1653  0.0333 -0.0656
15020W        W30151  10.063  12.678  13.148 -0.2022 -0.0017  0.1612
15021W        W30152  15.718  15.329   2.221 -0.0683  0.0988 -0.0589
15022W        W30153  15.579   3.893   4.022 -0.0576  0.0143 -0.4928
15023W        W30154   5.486  16.955   0.245  0.0402  0.0840 -0.4154
15024W        W30155   4.732  16.966   3.048  0.2080  0.0680 -0.0368
15025W        W30156  17.165  16.869   5.712 -0.0849  0.2326 -0.1900
15026W        W30157   7.212   4.325  15.181  0.0075 -0.1539 -0.0009
15027W        W30158   0.978  18.169   9.467 -0.2326  0.0562  0.1793
15028W        W30159   3.808  14.424   3.418  0.0059 -0.0489 -0.1860
15029W        W30160   8.547   9.015   2.651 -0.1122  0.0681 -0.1660
15030W        W30161  14.546  13.468   4.446 -0.0853 -0.1325  0.0948
15031W        W30162   7.541  14.705   4.269  0.2062 -0.3246 -0.1670
15032W        W30163  13.182   0.678  14.853 -0.2435 -0.1456  0.1182
15033W        W30164   3.699  15.279  10.340  0.2477  0.1286 -0.3741
15034W        W30165   2.062   3.207  14.467  0.1887 -0.1903 -0.2515
15035W        W30166  10.877   8.983  10.270 -0.2845 -0.1583 -0.1116
15036W        W30167  11.827  13.025   4.311 -0.0745 -0.0915 -0.0004
15037W        W30168   9.319   1.312  11.199 -0.0189  0.1612 -0.3677
15038W        W30169   9.637  18.227   4.638 -0.1910  0.0461  0.0401
15039W        W30170  11.403  14.768   2.799 -0.2297 -0.1320  0.1485
15040W        W30171   2.824  16.366   0.721 -0.1585 -0.1027  0.0467
15041W        W30172   7.536  12.412   2.189  0.1451  0.0296 -0.2877
15042W        W30173  14.677   7.468   1.243 -0.5347  0.1225  0.0821
15043W        W30174  14.338  13.611  15.597 -0.4585 -0.0706 -0.0795
15044W        W30175   6.440   2.609   1.718  0.2374 -0.0318 -0.4011
15045W        W30176  12.175  13.363   5.426 -0.4263 -0.3360 -0.2277
15046W        W30177  10.473   4.072  14.778 -0.0437  0.0266  0.2245
15047W        W30178  17.267   5.963   1.040 -0.0837  0.3421 -0.1210
15048W        W30179  16.115   5.501   5.641  0.2027  0.1727 -0.0774
15049W        W30180  12.351  10.686   4.565 -0.1560 -0.0232  0.0826
15050W        W30181  14.461  12.494   1.029  0.1067  0.2561  0.1858
15051W        W30182   0.256  10.571  11.502  0.1656 -0.0476 -0.0334
15052W        W30183   4.967   9.796   5.716 -0.0705  0.1339 -0.1203
15053W        W30184  17.346   1.737  13.680 -0.3343  0.0600 -0.1045
15054W        W30185  16.964   9.998  15.360  0.2633  0.2036  0.3239
15055W        W30186  11.621  15.511   4.409 -0.0581  0.5290  0.2425
15056W        W30187   5.697  14.071  16.014  0.3345  0.1700  0.3918
15057W        W30188  15.423   0.398   1.903 -0.4581  0.1810  0.1800
15058W        W30189   8.292   5.770   5.807 -0.1179  0.2163 -0.0018
15059W        W30190   1.390   9.449   5.941  0.0381 -0.3897 -0.0260
15060W        W30191   0.867  18.007  16.098  0.3688 -0.4175  0.1070
15061W        W30192  15.025   1.151  15.150  0.1248 -0.1365  0.1514
15062W        W30193  14.913   3.654  11.313 -0.1236  0.0857 -0.0163
15063W        W30194  17.178  10.122   5.388  0.1152  0.2404  0.2161
15064W        W30195   6.181  13.325   1.519 -0.1004  0.1098  0.2251
15065W        W30196  11.106  18.455  15.520 -0.0250  0.1746  0.0310
15066W        W30197  11.560  10.776  11.448  0.0136 -0.1407 -0.0371
15067W        W30198  17.715   5.510   4.652  0.3222  0.1111  0.1628
15068W        W30199   8.588   4.589   2.022 -0.0164 -0.1935  0.2218
15069W        W30200  12.846   5.576  13.576  0.1545  0.1708 -0.1028
15070W        W30201  10.783   7.356   1.731 -0.2534 -0.1509 -0.1945
15071W        W30202   7.363  10.128  12.471  0.0032 -0.5388  0.0379
15072W        W30203  16.617   7.736  12.420 -0.0193 -0.0642 -0.0350
15073W        W30204   8.901  16.065  15.063 -0.0903 -0.3244 -0.0898
15074W        W30205  11.950  16.069   0.679  0.3429 -0.1968  0.0678
15075W        W30206  10.219  12.437  15.174  0.0278  0.0547  0.1910
15076W        W30207   4.289  14.117  12.299  0.0920 -0.0990  0.0671
15077W        W30208   2.733   1.029   5.413 -0.2235 -0.2736  0.1010
15078W        W30209   0.278  12.072  15.409 -0.1525 -0.1012 -0.3361
15079W        W30210  10.510   9.920   3.042 -0.1088 -0.0923  0.1480
15080W        W30211  15.825  14.541   0.859 -0.2403  0.0731 -0.2086
15081W        W30212  16.884  10.137  11.754 -0.1015 -0.2059 -0.2092
15082W        W30213  15.591   8.563   3.587  0.3943  0.0278 -0.0059
15083W        W30214   8.252   3.681   4.894 -0.2219  0.2816  0.2301
15084W        W30215  10.663  14.200   5.285  0.2199 -0.0951 -0.3277
15085W        W30216   6.473   7.179   1.631 -0.3757  0.1158  0.1550
15086W        W30217   7.605   4.366   4.341 -0.0833 -0.2103  0.4006
15087W        W30218  12.278   3.789  14.120 -0.0846 -0.0436  0.1476
15088W        W30219   8.464   7.116   1.359  0.1227 -0.4813 -0.0803
15089W        W30220  16.892  10.651  14.333  0.1137  0.0379 -0.0113
15090W        W30221  15.537  17.402   5.080  0.0779 -0.1968 -0.2024
15091W        W30222  18.001  10.387  11.379  0.1587 -0.1713 -0.1968
15092W        W30223  11.238   5.822  15.847  0.0466  0.3389  0.0282
15093W        W30224   2.159  15.586  13.904  0.1751 -0.2378 -0.2812
15094W        W30225   4.300  17.415  11.623 -0.0578  0.1589 -0.2514
15095W        W30226  11.379   0.175  11.739 -0.0440  0.0551  0.2732
15096W        W30227   4.692   2.960  10.921  0.0247  0.1399  0.1899
15097W        W30228  16.301   4.940   1.238  0.1305  0.1911  0.1443
15098W        W30229   2.870  13.099  15.421 -0.1127  0.0115  0.2467
15099W        W30230  17.979  17.612  13.115 -0.1394  0.0891  0.0791
15100W        W30231   9.025   5.841   3.622 -0.1007 -0.4468 -0.1727
15101W        W30232  13.223  13.771  13.735  0.3179 -0.2181  0.2669
15102W        W30233   2.233   6.871  11.444 -0.2221 -0.0873  0.2068
15103W        W30234   7.576   1.949   4.602  0.2384 -0.1300  0.3549
15104W        W30235   9.879   2.149   3.083  0.2391  0.0250 -0.1716
15105W        W30236   7.333  12.413  11.311 -0.3095  0.1677  0.0188
15106W        W30237  17.898  14.270   3.559 -0.2391 -0.3297 -0.0486
15107W        W30238   0.146  14.630  10.415  0.0277 -0.0375 -0.0598
15108W        W30239  11.322  14.037   1.146 -0.1941  0.4671 -0.3561
15109W        W30240  10.206   6.722   2.907 -0.1465 -0.0409 -0.1410
15110W        W30241  13.573   9.143   1.887  0.0916 -0.2323 -0.2105
15111W        W30242   4.501   1.563   0.064 -0.2363  0.2059  0.1060
15112W        W30243  13.457   4.270   0.275 -0.1235  0.0734 -0.1591
15113W        W30244  14.289  12.272  13.349  0.2756  0.1295 -0.0497
15114W        W30245   7.679   7.245   5.032  0.1684  0.2944  0.0547
15115W        W30246  12.536   6.816  15.034  0.0380 -0.0098 -0.2562
15116W        W30247  12.200   8.655   2.538 -0.2380 -0.0089 -0.2781
15117W        W30248  13.386  10.981  14.975 -0.0847  0.1594 -0.0543
15118W        W30249  16.276   7.126   3.507  0.3658 -0.3227 -0.0487
15119W        W30250  10.400  14.306   1.023 -0.1402 -0.2289  0.0296
15120W        W30251  12.820   7.826   5.137  0.0726 -0.1789 -0.0782
15121W        W30252   0.619   6.618  14.132 -0.1399 -0.0251  0.1818
15122W        W30253  15.285   7.530   2.858  0.0324  0.2064 -0.1216
15123W        W30254  12.552  13.808   5.443 -0.1473 -0.3152 -0.0965
15124W        W30255   3.417   0.582   1.566  0.3965 -0.1751  0.6809
15125W        W30256   1.624  17.044  13.029  0.3577 -0.2027  0.0522
15126W        W30257   3.405  13.605  11.373 -0.1067 -0.2053  0.0856
15127W        W30258   7.396   4.341  15.658  0.2274 -0.1882  0.0753
15128W        W30259  12.036   4.788   3.581  0.0787 -0.1857  0.1642
15129W        W30260   2.178   2.955   0.202 -0.0591 -0.3056 -0.3621
15130W        W30261   7.376  13.109  12.589  0.1569 -0.0945  0.1472
15131W        W30262   4.309   2.890   5.169  0.0471 -0.0113  0.4994
15132W        W30263  11.726  10.031   5.288 -0.0007  0.2975 -0.1509
15133W        W30264  10.804  14.767   1.137 -0.1179  0.1335 -0.1278
15134W        W30265  16.622  12.541   1.217 -0.3422  0.1116  0.0252
15135W        W30266   0.764  15.224  15.482 -0.1279  0.1209 -0.1711
15136W        W30267   8.832  13.381   2.238  0.3068 -0.0961  0.2491
15137W        W30268   7.966   7.343  14.408 -0.3674  0.1037 -0.0223
15138W        W30269  12.225  11.002   3.809 -0.3232  0.0071 -0.2410
15139W        W30270   5.393   0.769  13.045  0.0723 -0.2149  0.1272
15140W        W30271   2.582   1.298  14.982 -0.3497  0.0856 -0.1279
15141W        W30272   4.435   2.013  13.919  0.2055  0.2514  0.0765
15142W        W30273   2.077   0.915  14.318 -0.0464 -0.0616  0.6477
15143W        W30274  10.948   6.749  11.831 -0.1281 -0.0034 -0.3006
15144W        W30275  16.106  15.119  13.729 -0.0848  0.2870  0.2778
15145W        W30276   5.002  13.896   4.681  0.0430  0.1276 -0.1965
15146W        W30277   9.412   4.170   5.722 -0.0496 -0.0865  0.2373
15147W        W30278   0.502  18.258  13.424 -0.0472  0.1414 -0.0513
15148W        W30279  17.266  10.663  12.688  0.1377 -0.0759 -0.0242
15149W        W30280   2.780  17.584   4.618 -0.0705 -0.0524 -0.3001
15150W        W30281   7.966  12.173   2.170 -0.2508 -0.0066 -0.4335
15151W        W30282   5.062  15.517  11.462  0.1333 -0.0935 -0.3225
15152W        W30283   3.666  14.654  12.756 -0.1805  0.2466  0.1024
15153W        W30284   5.908   8.466  15.398  0.3830  0.1482 -0.1273
15154W        W30285   4.887  16.494   4.743 -0.0103  0.1508 -0.0162
15155W        W30286  17.349  13.960  14.220 -0.2618 -0.1678  0.3277
15156W        W30287   2.186   9.343   5.468  0.2864 -0.1834 -0.0574
15157W        W30288  15.237  13.483   5.544  0.5116 -0.1526 -0.0118
15158W        W30289   7.359   8.571  14.842 -0.0098 -0.0306  0.0526
15159W        W30290   7.637   3.685  12.725 -0.0871 -0.2627  0.3086
15160W        W30291   9.317   0.207   2.787 -0.1081 -0.0346 -0.0541
15161W        W30292  13.439  11.616  12.732  0.3106  0.0196 -0.2041
15162W        W30293  16.999   5.391  14.625  0.0463 -0.2069 -0.1765
15163W        W30294  12.115   0.868   2.627 -0.1605  0.1152 -0.1267
15164W        W30295   7.741  11.717   1.616 -0.0163  0.2787  0.0188
15165W        W30296  15.802  16.045  11.506  0.0009  0.1399  0.3977
15166W        W30297   6.730   5.375  15.789 -0.1094  0.1438 -0.0076
15167W        W30298  16.856  10.489   2.435  0.3376 -0.0010 -0.2585
15168W        W30299  17.426   9.961   3.976  0.0353 -0.1524  0.2303
15169W        W30300   9.539   9.042  13.487 -0.2065 -0.1082 -0.0251
15170W        W30301   6.462  12.254   4.623 -0.2932  0.1993 -0.0852
15171W        W30302   3.152  13.845  15.405  0.0990  0.4056  0.3214
15172W        W30303  17.002  15.654   1.757 -0.1950 -0.2484 -0.1367
15173W        W30304   5.639   6.590  10.495  0.0269  0.0053  0.3324
15174W        W30305   3.896   8.679  13.476 -0.0170  0.0571 -0.0935
15175W        W30306  11.547  18.209  12.032 -0.0302 -0.2429 -0.0919
15176W        W30307   9.023  10.776  10.330  0.2218 -0.0092 -0.2376
15177W        W30308   8.165  16.461  13.900 -0.3942 -0.4274  0.4058
15178W        W30309  18.085   6.119   3.435  0.0266  0.3533  0.2293
15179W        W30310  14.330  14.958   4.111  0.2697 -0.1430  0.1419
15180W        W30311  11.715   9.466  15.085 -0.4037  0.2347 -0.2408
15181W        W30312   5.563  13.769   0.645 -0.0346 -0.0257  0.0167
15182W        W30313   4.501  10.426   1.069  0.0749  0.3540 -0.1255
15183W        W30314  10.534  17.769   1.139  0.0095 -0.1762 -0.2652
15184W        W30315   4.739   6.790  14.810  0.2133  0.2467  0.0586
15185W        W30316  10.852   6.401  12.870  0.1320 -0.3155  0.1869
15186W        W30317  13.049   3.414   3.705  0.2419  0.0628 -0.4180
15187W        W30318   3.387  18.130   0.449  0.2923 -0.0683 -0.2024
15188W        W30319  12.745   1.647   3.347  0.0695 -0.1291  0.2385
15189W        W30320   6.739   6.330   2.728  0.2314 -0.0516 -0.1182
15190W        W30321  12.724  16.508  14.184 -0.0256  0.1716 -0.0738
15191W        W30322  10.935   6.188   2.366 -0.0073  0.0455 -0.0347
15192W        W30323  15.268   0.071   2.430 -0.3551  0.1289  0.0933
15193W        W30324  15.026  12.421  12.727  0.3082 -0.0439 -0.2461
15194W        W30325   5.783   7.599   3.726 -0.0441  0.0046 -0.1738
15195W        W30326   3.431   6.516   3.272 -0.0101 -0.1310  0.0051
15196W        W30327  10.534   7.204   3.184  0.0054 -0.1702 -0.0542
15197W        W30328   3.527   8.240  13.143 -0.3899 -0.1955  0.1588
15198W        W30329   5.045   9.253  13.617 -0.0310  0.1789 -0.5165
15199W        W30330  10.974   1.931  11.955  0.3416  0.1174  0.0010
15200W        W30331  11.332   4.889   4.258  0.4439  0.3381 -0.1317
15201W        W30332  16.446   2.194   3.657  0.2206  0.1718  0.0985
15202W        W30333   5.915   2.300  12.601  0.2587  0.0798  0.2190
15203W        W30334   0.541  11.965  12.496  0.0490  0.2118 -0.1472
15204W        W30335  16.095   2.879  13.862 -0.1069  0.2046 -0.0371
15205W        W30336  16.461  11.871   5.245  0.2127 -0.0232 -0.0793
15206W        W30337   3.114   5.673   2.212  0.1367 -0.3263 -0.1538
15207W        W30338  11.336   7.523   6.519 -0.4865  0.1714  0.0929
15208W        W30339   8.867  11.240   0.574 -0.1579  0.3301  0.1006
15209W        W30340  17.760   2.861   4.819  0.0562  0.3686 -0.0374
15210W        W30341  15.669  11.907  12.748  0.0944 -0.2213  0.0429
15211W        W30342   7.978   1.019  12.176  0.2068  0.0782 -0.1730
15212W        W30343  13.967   1.678  10.710 -0.0443 -0.0890  0.2116
15213W        W30344  10.459  17.122   1.007 -0.2581  0.0663  0.0726
15214W        W30345  12.892  10.506  13.417 -0.2767  0.1885  0.0411
15215W        W30346  12.974  15.358   4.112  0.0446  0.0773 -0.3303
15216W        W30347   5.275   8.875   1.420  0.1437 -0.0408 -0.4890
15217W        W30348  14.880   6.373   4.902 -0.0621 -0.2831 -0.1239
15218W        W30349  18.254  16.715  13.854 -0.2762  0.1604  0.1448
15219W        W30350  12.233   0.744   0.709  0.0911  0.1650 -0.1761
15220W        W30351   4.196   9.144  13.422 -0.0963 -0.0795  0.5517
15221W        W30352  14.070  16.125  11.315  0.2787 -0.0031  0.2124
15222W        W30353   5.010  11.224  13.535 -0.2210  0.3602 -0.0158
15223W        W30354   4.447   3.479   2.311  0.2114 -0.2827 -0.3197
15224W        W30355  18.462  13.915  11.748 -0.4489 -0.1884  0.0947
15225W        W30356   5.938  13.179   2.792  0.0101  0.3143  0.0933
15226W        W30357  14.022   5.980  12.608  0.2631  0.3877 -0.0132
15227W        W30358   7.277  13.358   1.756  0.1039  0.0433  0.2860
15228W        W30359  15.590   4.474   1.776 -0.2104 -0.2895 -0.4257
15229W        W30360  15.972  10.080   3.736  0.2831  0.0622 -0.2444
15230W        W30361  18.298  11.540   3.956  0.2760  0.3204  0.1173
15231W        W30362  12.391   7.431  13.501  0.3264  0.1180  0.0165
15232W        W30363  14.407  17.159  13.423 -0.1571  0.0715  0.3685
15233W        W30364  16.147  14.890   0.112 -0.2444  0.1128  0.4170
15234W        W30365  16.706   3.683   1.984  0.1537 -0.0598 -0.2978
15235W        W30366   5.719   3.097  14.454  0.3226  0.1904 -0.0591
15236W        W30367   6.671  14.132   0.949  0.1496  0.2584  0.2760
15237W        W30368  13.318   9.576   3.797  0.1434 -0.2099  0.1554
15238W        W30369   3.922   8.598   1.084 -0.0350  0.0501 -0.0969
15239W        W30370  17.458   7.743  13.346 -0.2731  0.3788  0.0162
15240W        W30371  14.232   7.294  12.301 -0.0868  0.1846 -0.0961
15241W        W30372   7.465  12.260   3.096  0.0037 -0.0238  0.0198
15242W        W30373   1.482  17.227   9.201 -0.2113  0.0158  0.1055
15243W        W30374  10.064  10.251   1.193 -0.2585 -0.2825  0.0461
15244W        W30375  12.874   7.000   0.984  0.0859 -0.2458  0.1321
15245W        W30376   3.251  16.941   9.601 -0.0854 -0.2272  0.0024
15246W        W30377   3.416  17.160  10.603 -0.1217 -0.4578 -0.1279
15247W        W30378  10.727  17.129  11.767 -0.1474  0.1900 -0.2070
15248W        W30379   9.696   0.187  13.916 -0.3578  0.1212 -0.0156
15249W        W30380  10.303   9.819  15.690  0.1831  0.0212  0.2889
15250W        W30381   5.350   6.531  10.861  0.1742  0.0369 -0.0523
15251W        W30382   3.095   4.460   0.243 -0.4295  0.4299  0.1255
15252W        W30383  14.234  15.644   2.258 -0.0889 -0.1330 -0.0513
15253W        W30384  10.412   1.809  15.595 -0.3196  0.0455 -0.3531
15254W        W30385   3.803   8.932   3.368 -0.0018 -0.1010  0.2238
15255W        W30386   4.680   3.258   1.944 -0.1849 -0.1428  0.1975
15256W        W30387   9.605  15.389   3.092  0.1949  0.0912 -0.0806
15257W        W30388   3.486  13.603   1.862  0.0113 -0.3225 -0.0059
15258W        W30389   9.746   6.429   2.769  0.2788  0.1672 -0.0485
15259W        W30390  13.748  11.292  13.621  0.0442  0.2852 -0.0674
15260W        W30391  12.869  11.797   0.619  0.4086 -0.1566  0.1379
15261W        W30392  17.002   9.348  14.826 -0.1338  0.0680 -0.3208
15262W        W30393   4.197   7.075  11.958  0.0311 -0.0145 -0.0799
15263W        W30394  11.656   7.488  13.847  0.1653 -0.3110 -0.3121
15264W        W30395  16.851   3.039   4.472  0.2139  0.0618 -0.4703
15265W        W30396   8.360  14.179   3.919 -0.0717 -0.1305  0.2058
15266W        W30397  14.917   2.535   0.631  0.2366 -0.1163 -0.4800
15267W        W30398  13.093  13.380  12.916  0.4762  0.1229 -0.3310
15268W        W30399  18.316  15.442  15.085 -0.4142 -0.2804  0.0613
15269W        W30400  12.973   9.714   1.554 -0.1892 -0.3969 -0.4165
15270W        W30401   8.110   0.321  11.638 -0.1595  0.0375 -0.0813
15271W        W30402  16.444   6.009   4.963  0.0818  0.2284 -0.0210
15272W        W30403   5.841  15.500  16.005 -0.2606  0.2165  0.1782
15273W        W30404  13.283   0.481  15.258 -0.0189 -0.1092 -0.0790
15274W        W30405   1.573  13.270  11.488 -0.5225 -0.2033  0.1989
15275W        W30406  14.672  13.969  10.571 -0.0412 -0.1470  0.0712
15276W        W30407   3.847  11.810   5.606  0.0444 -0.2653  0.2723
15277W        W30408  13.410  12.536   9.774  0.1546  0.0633  0.3101
15278W        W30409   3.451  17.516  10.234 -0.0291 -0.1962 -0.0377
15279W        W30410   6.606   1.822  15.309 -0.0174  0.0088  0.3439
15280W        W30411   6.962   0.969  11.556 -0.2724  0.1813  0.0177
15281W        W30412   2.301   9.820  13.540  0.3463 -0.2101  0.0652
15282W        W30413   8.687  11.241   5.099  0.0415  0.0655 -0.0568
15283W        W30414   8.368  13.655  12.894  0.2556  0.3892  0.2324
15284W        W30415  11.631   8.341  11.861  0.1052 -0.2141  0.3029
15285W        W30416   2.204  14.244   3.586 -0.1353  0.0638  0.2623
15286W        W30417  15.303  14.397   1.501  0.0393  0.3556 -0.1082
15287W        W30418  13.727   8.245  13.837  0.3023  0.3894  0.1090
15288W        W30419   3.333   6.497   2.754  0.0092 -0.0677 -0.1241
15289W        W30420   3.228   8.200  14.890 -0.2566  0.1944  0.3684
15290W        W30421   7.434   0.199   0.986  0.3327  0.2763  0.2829
15291W        W30422  11.881  14.157  12.869  0.2651  0.1152  0.1735
15292W        W30423  12.114   0.865   5.068 -0.4654  0.1132  0.1760
15293W        W30424  10.317  15.926  13.679  0.1145 -0.0420 -0.0461
15294W        W30425   7.983   4.221  12.136  0.0563  0.2196 -0.2123
15295W        W30426  11.025  16.138   4.163  0.2031  0.1796  0.6205
15296W        W30427  15.843   1.812   0.841 -0.1759 -0.0833  0.0460
15297W        W30428  14.655   0.793  15.923 -0.0483 -0.0694  0.3184
15298W        W30429  14.290   3.615   0.288  0.1514 -0.2506 -0.1528
15299W        W30430  15.663  15.979   0.788  0.1607  0.1408 -0.2487
15300W        W30431   4.258   0.851   1.025  0.2481 -0.0742  0.0377
15301W        W30432   9.165  13.216  12.256  0.0230 -0.0280 -0.0378
15302W        W30433  10.539   0.353  11.150 -0.0162 -0.0346  0.0456
15303W        W30434   4.364  13.327   4.354  0.1091 -0.2470  0.0337
15304W        W30435  12.959  10.194  15.833 -0.0864 -0.2086  0.0498
15305W        W30436  12.851  17.452  13.009  0.5473 -0.0921 -0.1153
15306W        W30437   9.136  17.475   4.089  0.0906 -0.0596 -0.0774
15307W        W30438   2.577   7.606   3.430 -0.2302 -0.0102 -0.5516
15308W        W30439   9.281  13.881  14.588 -0.0743  0.1083  0.1657
15309W        W30440  17.943   2.147   5.494 -0.0766 -0.1151  0.2511
15310W        W30441  11.870   1.451   0.133 -0.0603  0.3587 -0.2818
15311W        W30442   8.160  14.277  15.170  0.0270  0.0398  0.1623
15312W        W30443   1.212   2.893   1.206 -0.1043 -0.0804 -0.0169
15313W        W30444  11.674  14.290   2.840 -0.1519 -0.0020 -0.0274
15314W        W30445  15.452  10.832  14.172 -0.3675 -0.0946  0.1767
15315W        W30446   9.492   7.918   0.329 -0.3577 -0.2958  0.0012
15316W        W30447  10.506  13.092   1.126  0.2955 -0.1400  0.1660
15317W        W30448   0.170   5.950   4.768  0.0503 -0.1482 -0.2983
15318W        W30449   9.589  13.408   5.875  0.2413  0.0352  0.2412
15319W        W30450  10.070   9.681  13.484  0.0759 -0.1691 -0.1121
15320W        W30451  13.152   0.289  13.918  0.2702 -0.3354  0.0239
15321W        W30452  13.240   4.572   4.968 -0.0249 -0.2822 -0.0878
15322W        W30453   7.628  12.672   0.263  0.0234 -0.0185 -0.2361
15323W        W30454  17.545  11.921   4.316 -0.0332  0.0027  0.1370
15324W        W30455  16.178   5.579   1.460 -0.0012 -0.2368  0.0656
15325W        W30456   9.918   4.115  13.320  0.2552  0.0956  0.1179
15326W        W30457   6.720  13.093   1.679  0.1773  0.1491 -0.0697
15327W        W30458   8.376  14.034   4.797  0.1056 -0.2051 -0.0337
15328W        W30459   2.585  18.226  15.418 -0.3790 -0.0258 -0.0761
15329W        W30460   5.538   9.600   5.561 -0.4079 -0.2363 -0.0196
15330W        W30461  18.273  13.979   3.728  0.1067  0.1262 -0.2554
15331W        W30462   5.483   5.694   0.990  0.1278  0.0826 -0.0404
15332W        W30463   4.008  11.848  11.655  0.0240  0.2044  0.0535
15333W        W30464  11.738  11.321  13.711  0.0269  0.1026  0.4245
15334W        W30465  11.218  13.622   5.663  0.1124  0.0905 -0.0365
15335W        W30466   9.184  16.867  14.986  0.0092 -0.1133 -0.0824
15336W        W30467  16.791   4.840  12.947  0.0661 -0.1748 -0.1216
15337W        W30468   7.589  16.442  10.861 -0.0182 -0.1354 -0.0004
15338W        W30469   5.947   4.201  14.269 -0.2221  0.0512  0.2172
15339W        W30470  10.115  12.409   0.870  0.1832 -0.0598  0.2689
15340W        W30471  17.116   5.854   4.275 -0.0168  0.0309 -0.0231
15341W        W30472  14.634   6.563   5.261  0.0758 -0.1126 -0.1761
15342W        W30473  16.163   0.596   2.772  0.0269  0.0992  0.1520
15343W        W30474   3.550  12.787  12.917  0.2348  0.0426  0.1022
15344W        W30475   6.522   4.540   1.805 -0.0287 -0.1327 -0.0023
15345W        W30476  11.368   9.950  11.560 -0.5135  0.0830  0.1152
15346W        W30477  15.187   0.893   1.935 -0.4431  0.1301  0.1512
15347W        W30478   8.935  12.446   5.528 -0.0068 -0.1168 -0.1437
15348W        W30479   2.833   2.670  11.440  0.0329 -0.3750 -0.2919
15349W        W30480  18.247  12.628   3.066 -0.1150  0.2802 -0.1601
15350W        W30481   1.558  16.079  14.174 -0.2289 -0.0908  0.0913
15351W        W30482  12.920   4.789   3.941  0.1372  0.2455 -0.0357
15352W        W30483  16.063  10.246  15.498  0.0306  0.1495  0.0465
15353W        W30484  13.668  12.474   5.397 -0.2324  0.2910 -0.0447
15354W        W30485   6.951  16.178   5.092 -0.1401  0.0570  0.1641
15355W        W30486  15.804  12.610   0.636  0.0057 -0.2413  0.0423
15356W        W30487  14.968  11.109  12.994  0.3941 -0.1580 -0.1248
15357W        W30488   8.559   0.602  11.327 -0.1986 -0.0704 -0.0053
15358W        W30489   2.795  14.197  13.772  0.3857  0.3580 -0.1340
15359W        W30490   5.371  15.472  12.059 -0.1105 -0.1385  0.0375
15360W        W30491   3.411  11.899   4.219 -0.0924 -0.2535 -0.1442
15361W        W30492  14.343  16.032  10.865 -0.2136  0.0353 -0.0218
15362W        W30493  15.169  18.459   1.888 -0.0728  0.0430 -0.1779
15363W        W30494   3.383   9.388   4.737 -0.0816  0.0804 -0.1428
15364W        W30495   5.746  17.859  10.196  0.2894 -0.0717 -0.0945
15365W        W30496   7.767  11.703  15.748 -0.2952 -0.1633 -0.2741
15366W        W30497  11.387   7.180  14.191 -0.2727 -0.0860 -0.3162
15367W        W30498   1.419   9.816   9.809 -0.0368 -0.0091 -0.0118
15368W        W30499   4.847  13.041  12.716  0.0840 -0.0569 -0.1692
15369W        W30500   6.969  12.202   4.372  0.1773  0.1290  0.0155
15370W        W30501  10.668  10.970   5.777  0.3006 -0.0398 -0.1385
15371W        W30502   6.425  16.069   4.935  0.1866 -0.1833 -0.3331
15372W        W30503  17.867  12.927   3.225 -0.1270 -0.0170 -0.4011
15373W        W30504  12.198   8.833   0.846  0.0641  0.1052 -0.1155
15374W        W30505  14.678   0.416  13.894  0.1454 -0.2255 -0.0286
15375W        W30506   6.862   3.076  13.178  0.0393 -0.1595 -0.3551
15376W        W30507   1.574  15.244   4.158 -0.0999 -0.2626 -0.0212
15377W        W30508  11.590   4.670  12.885  0.0622  0.0464  0.0205
15378W        W30509  13.339  13.364   4.340 -0.1677 -0.0028  0.4030
15379W        W30510   2.463  15.639  14.902 -0.0763 -0.0250 -0.0083
15380W        W30511   0.931  12.712  13.766  0.0596 -0.2772 -0.4267
15381W        W30512  18.284  11.588   4.891 -0.1139  0.1145 -0.3297
15382W        W30513   9.736   3.379   1.857  0.0352 -0.0194 -0.2764
15383W        W30514   4.633   6.648   5.092  0.0176 -0.0773  0.0442
15384W        W30515   3.979   6.954   4.614  0.0189  0.0991 -0.2908
15385W        W30516   3.369  12.075   0.754 -0.1647 -0.4627 -0.1327
15386W        W30517  11.601  16.543  13.435  0.2337 -0.0653 -0.0175
15387W        W30518   0.259  15.223   2.405 -0.1749  0.0196 -0.2058
15388W        W30519  15.888  14.876  12.086  0.0169 -0.0074  0.2773
15389W        W30520  11.513  14.124  14.750  0.0300  0.4342  0.0848
15390W        W30521  15.926  15.297   4.160 -0.1412  0.0914  0.0046
15391W        W30522   9.017   8.480  14.675  0.0037  0.0326  0.1278
15392W        W30523   1.754  15.161  11.454  0.1788 -0.0426 -0.0577
15393W        W30524  10.464   9.362   3.840 -0.2540 -0.0992 -0.4696
15394W        W30525   6.653   1.745   4.421  0.1068 -0.0523 -0.0124
15395W        W30526  15.265   1.486   3.037  0.0941  0.2360  0.1472
15396W        W30527  11.915   6.615  13.317  0.0280 -0.0394 -0.0952
15397W        W30528   0.990   8.809  13.788  0.0330 -0.3169 -0.0080
15398W        W30529  14.477  11.417  13.755 -0.1719  0.0910 -0.1038
15399W        W30530  18.443   5.569  12.346  0.1446  0.2852  0.1228
15400W        W30531  17.141   4.279   2.861 -0.0267  0.1970  0.1744
15401W        W30532   3.230  13.726   3.528  0.0363  0.2263 -0.0440
15402W        W30533  12.742  13.809  14.358 -0.3971  0.2860 -0.0016
15403W        W30534   0.491   5.101   1.513 -0.0091  0.3635 -0.0855
15404W        W30535  16.985  11.454   5.332  0.2134 -0.2917  0.2200
15405W        W30536  13.251   2.507  14.040 -0.0152  0.0378 -0.1740
15406W        W30537  15.605   1.086   4.571  0.1508  0.0125  0.1407
15407W        W30538  15.625  14.901  10.841  0.0948 -0.1087 -0.0841
15408W        W30539   5.556   2.498   4.348 -0.2355 -0.0225 -0.4245
15409W        W30540   3.701  11.723   0.250 -0.2677 -0.0502 -0.3752
15410W        W30541  16.856  11.250  16.082 -0.1501  0.0566 -0.0791
15411W        W30542  15.747  13.502  14.502 -0.1128 -0.4129  0.0549
15412W        W30543   8.685  17.997  16.015 -0.6024 -0.1790  0.3626
15413W        W30544   6.107   8.711  14.020 -0.2512 -0.0666 -0.1734
15414W        W30545  16.646   0.989   3.129  0.0183  0.1702  0.2125
15415W        W30546  11.202  14.480  13.135 -0.3921 -0.3280  0.1344
15416W        W30547  16.193  12.145   4.847  0.0377 -0.2402  0.1684
15417W        W30548  16.960  12.171   0.310  0.1592 -0.2029  0.1453
15418W        W30549  10.807   8.208  11.786  0.0124 -0.3997  0.0689
15419W        W30550   2.436  12.744   2.965 -0.1501  0.0350  0.4361
15420W        W30551   2.868   2.958   4.001 -0.1512 -0.2111 -0.0265
15421W        W30552  14.402  17.240  11.331  0.1501 -0.0824 -0.0554
15422W        W30553   0.028   3.780   0.156 -0.0934 -0.3825  0.4785
15423W        W30554   9.236  17.029   5.382 -0.0259 -0.2631  0.0885
15424W        W30555   2.060   9.045   3.893  0.0569  0.1873  0.3114
15425W        W30556  17.722   8.880   2.784  0.3119 -0.0256  0.0736
15426W        W30557   9.897   1.643   3.024  0.1283 -0.1052 -0.1050
15427W        W30558  15.618   6.799   6.108  0.1718 -0.0654  0.0505
15428W        W30559  11.590  11.885  12.235 -0.0633 -0.2077 -0.1271
15429W        W30560   8.852   6.959   2.764 -0.1286  0.2031  0.1413
15430W        W30561   5.370   1.216   5.202  0.0074 -0.0930  0.0261
15431W        W30562  13.629  12.812   1.279 -0.1585  0.0119  0.0326
15432W        W30563   6.613  12.641   3.445  0.1989  0.1127  0.0241
15433W        W30564   8.910  14.000   1.947 -0.2667  0.1235  0.1455
15434W        W30565   5.353   2.583   1.865 -0.0002  0.0389  0.0377
15435W        W30566  11.535   3.709  13.353 -0.0410 -0.1890 -0.2412
15436W        W30567  11.438  16.847   1.669  0.2697 -0.3412 -0.1484
15437W        W30568  13.322  15.061  15.544 -0.1429  0.1262 -0.2034
15438W        W30569  18.472   7.806  13.563 -0.0764 -0.7175  0.3571
15439W        W30570   2.619  10.309  15.400  0.4399  0.3041  0.0991
15440W        W30571  12.767   2.442  14.423 -0.1137  0.2097  0.2174
15441W        W30572  12.795  15.277  14.715  0.2659  0.1577 -0.1764
15442W        W30573  12.692  16.271  16.107 -0.5344  0.1964 -0.1177
15443W        W30574  11.264   5.322   3.248  0.2744  0.1097  0.3105
15444W        W30575  11.225   5.858   3.059 -0.0717 -0.4824 -0.0589
15445W        W30576  16.487   2.353  11.012  0.2574 -0.1858 -0.0719
15446W        W30577   8.897  11.378  13.325  0.0351 -0.0565 -0.1158
15447W        W30578  11.486   8.922  13.058  0.3469  0.1037  0.2557
15448W        W30579   1.081   6.280   1.009  0.2417 -0.2868  0.0055
15449W        W30580   1.995  10.541   5.174 -0.1377  0.0575  0.1722
15450W        W30581   0.071  10.104   2.741  0.0164  0.2097  0.0186
15451W        W30582  17.275  16.624   4.719 -0.1504  0.2592  0.2758
15452W        W30583   7.557   3.352   1.629 -0.1975 -0.0015 -0.0959
15453W        W30584   0.536  17.524  11.814 -0.0472 -0.0027 -0.1309
15454W        W30585  16.434   2.383   1.822  0.2590  0.0843 -0.1097
15455W        W30586  16.798  12.139  12.513 -0.0061  0.1313 -0.1364
15456W        W30587   6.179   8.360   1.907 -0.0393 -0.2527  0.0536
15457W        W30588  15.581  13.270   4.799 -0.1605 -0.2787  0.0981
15458W        W30589   3.888  15.767  14.981 -0.0268 -0.1578 -0.1858
15459W        W30590   2.428   2.904   5.142  0.2117 -0.1771 -0.3747
15460W        W30591  12.374   1.479   0.177 -0.1094 -0.1074 -0.1686
15461W        W30592   7.003  13.908   5.807 -0.1804  0.0052  0.0576
15462W        W30593   8.752  10.208   4.072 -0.0357 -0.1018 -0.0790
15463W        W30594   3.867   0.873   4.119 -0.1528  0.1417 -0.0257
15464W        W30595  14.434   2.730   3.936 -0.1741  0.0784  0.1005
15465W        W30596  15.303  17.784   5.697 -0.0338 -0.2081 -0.1073
15466W        W30597  14.651  14.596  11.988  0.0961  0.1290  0.2298
15467W        W30598  13.213  11.077  12.699  0.1981  0.0873 -0.3423
15468W        W30599  15.434  11.721   1.071 -0.0472  0.1224 -0.2353
15469W        W30600   1.517  14.291  16.093 -0.2134  0.1047  0.1104
15470W        W30601  15.758   9.530  14.579  0.0651 -0.2553 -0.1304
15471W        W30602   8.573   0.279  11.937  0.1619  0.0242 -0.3004
15472W        W30603   3.993   8.289  11.663 -0.0472 -0.1228  0.1381
15473W        W30604  17.104   5.197  12.171  0.0725  0.0812 -0.0741
15474W        W30605  17.216  13.579   0.146 -0.0276 -0.1360 -0.4415
15475W        W30606   4.754  11.539  12.231 -0.3056  0.1835 -0.2386
15476W        W30607  14.279   1.773  15.009 -0.0667  0.1469 -0.1188
15477W        W30608  13.053   2.977   3.494 -0.1673  0.2113 -0.1192
15478W        W30609  13.481  15.394   4.744 -0.0793 -0.3913  0.1562
15479W        W30610  17.177  12.093  14.331  0.2178  0.1130  0.3014
15480W        W30611   0.805   5.735   0.072  0.1694  0.0911  0.3387
15481W        W30612  16.168  10.828   3.325  0.0721 -0.2244 -0.1182
15482W        W30613   4.379  10.111  14.464 -0.1012 -0.1174  0.0486
15483W        W30614   5.336  10.490  13.028 -0.2091 -0.1476  0.0684
15484W        W30615  10.105  15.485  11.558 -0.0348  0.0672 -0.1303
15485W        W30616   0.674   1.278  14.659  0.4060 -0.3378  0.0104
15486W        W30617  10.483  15.447  14.106  0.2332 -0.0269 -0.3852
15487W        W30618   5.709   0.002  11.362  0.2482  0.1812 -0.2938
15488W        W30619   9.492   5.025   3.788 -0.0942  0.2441 -0.4741
15489W        W30620  18.201   2.891   0.108  0.0332 -0.0492 -0.2233
15490W        W30621  13.296  15.762  15.818 -0.2167 -0.1914 -0.0381
15491W        W30622   5.503  14.673  15.441  0.0616  0.1806 -0.1355
15492W        W30623   5.121   5.074   5.733  0.1915 -0.3631  0.1510
15493W        W30624   8.994  15.348   2.098 -0.0569  0.3118  0.1965
15494W        W30625   0.057   4.351  15.274 -0.1053 -0.0992  0.5537
15495W        W30626   2.250   8.390   1.866 -0.0532 -0.1030  0.3695
15496W        W30627   0.675  10.004   3.878  0.2744 -0.1310  0.0370
15497W        W30628   8.974   4.898   1.814 -0.1589  0.1006  0.0878
15498W        W30629   0.590   2.964   2.295 -0.0458  0.0483  0.0980
15499W        W30630   3.693   0.594  11.789  0.2507  0.1301 -0.0348
15500W        W30631   4.432   0.974  11.198 -0.4604 -0.4419  0.1601
15501W        W30632  10.517  15.055  14.815 -0.2828  0.0186  0.5415
15502W        W30633   8.793  18.479  13.781  0.1735 -0.2764 -0.1414
15503W        W30634   3.504   5.930  15.812 -0.0125 -0.0124  0.2917
15504W        W30635  13.008   1.600   2.349  0.0377 -0.0023  0.1743
15505W        W30636   2.054   3.270   9.395  0.1199 -0.0144 -0.0742
15506W        W30637   1.340  11.781   2.923 -0.1434  0.1233  0.1802
15507W        W30638   0.527   5.079  11.241 -0.1335 -0.0308 -0.1059
15508W        W30639  12.101  12.128   5.359 -0.1849 -0.3902 -0.3840
15509W        W30640  11.736   3.862   5.181 -0.0398  0.3662 -0.2764
15510W        W30641  14.644   4.224   3.943 -0.0780  0.0385  0.2344
15511W        W30642   3.289   2.880   0.374 -0.2069  0.1596  0.0601
15512W        W30643  15.588   0.268   3.837 -0.3014 -0.0316 -0.0632
15513W        W30644   9.434  10.866  12.603  0.1295 -0.1154  0.0214
15514W        W30645   9.497   8.358  11.049 -0.1439 -0.0756 -0.0563
15515W        W30646   5.670  17.270   0.613 -0.0408  0.4839 -0.3234
15516W        W30647  13.932   5.855   0.417  0.1012 -0.0236 -0.0438
15517W        W30648  14.199  10.544  10.999  0.0328  0.3319  0.1718
15518W        W30649   6.314  12.043   0.786 -0.0313 -0.1420 -0.0358
15519W        W30650  14.369   8.303  12.349  0.1525 -0.0412  0.2429
15520W        W30651   1.984   7.779  12.829 -0.0130 -0.0759 -0.0868
15521W        W30652  10.074   5.739  11.361 -0.2933 -0.2662  0.1335
15522W        W30653   1.999  12.418  10.355 -0.1113  0.4121 -0.3181
15523W        W30654   3.219  10.834   3.206 -0.3031 -0.1052  0.0284
15524W        W30655   3.035  11.550   2.579 -0.2286  0.2972 -0.1796
15525W        W30656  12.304   2.039  11.267  0.0169  0.1270  0.0808
15526W        W30657   6.005   4.556  14.649  0.2126  0.2394 -0.2734
15527W        W30658   0.466   1.979   2.491  0.1942  0.2240  0.2528
15528W        W30659   8.124   1.997   3.665 -0.1663  0.1239  0.3209
15529W        W30660   1.573   1.778  15.722 -0.1250  0.0051 -0.5081
15530W        W30661  11.501   7.433  13.333  0.0776  0.0557  0.2106
15531W        W30662   7.237   5.448   1.272 -0.0456 -0.0547 -0.2392
15532W        W30663   1.330  13.998  13.364  0.0232 -0.1913  0.0927
15533W        W30664   3.916  18.449   2.500  0.1532  0.2076  0.0231
15534W        W30665   8.987   5.449   0.498  0.1630 -0.3230  0.1102
15535W        W30666  14.858   4.324   0.027  0.1729 -0.1217 -0.0728
15536W        W30667  15.215   6.031   0.416 -0.3066 -0.0650 -0.0534
15537W        W30668  10.005   2.245  14.365  0.0038 -0.0148 -0.1505
15538W        W30669  16.268  18.416  12.825  0.3834 -0.0831  0.0243
15539W        W30670   4.753  10.910  14.072 -0.2347 -0.1668  0.0590
15540W        W30671   8.287  11.481  11.530 -0.2084  0.2575 -0.5462
15541W        W30672  13.109   8.355   0.464  0.1103 -0.1200 -0.0114
15542W        W30673   5.469   3.293   5.290  0.1640 -0.0788  0.4555
15543W        W30674   9.543   2.868   2.273 -0.1128  0.0611 -0.4078
15544W        W30675  17.149   1.482   0.420  0.1265 -0.2490  0.1250
15545W        W30676   3.893  16.796  14.650 -0.0894 -0.3490  0.2348
15546W        W30677   0.795   3.196  13.409  0.0245 -0.1347  0.0508
15547W        W30678  15.616  18.419  14.401 -0.4685 -0.2440  0.0349
15548W        W30679   0.958   6.814  13.612 -0.0040 -0.1907  0.0205
15549W        W30680  17.621   2.710  12.634  0.1024 -0.2348 -0.0126
15550W        W30681   9.996   5.283  13.780  0.1664  0.1505 -0.0428
15551W        W30682  12.509   9.181  13.915 -0.2363 -0.2468  0.1840
15552W        W30683  15.492   4.914  12.920 -0.2414 -0.1608  0.3281
15553W        W30684   9.013   1.121   3.741 -0.0270  0.0957  0.1808
15554W        W30685  13.184   9.302  14.689 -0.3335  0.2614 -0.0115
15555W        W30686  17.999  11.066   0.728 -0.0740 -0.0360 -0.1204
15556W        W30687  12.213   5.408   0.532 -0.0384 -0.1678 -0.0231
15557W        W30688   9.465   3.938   5.209 -0.2505 -0.0095 -0.3363
15558W        W30689  18.019   2.869   1.209  0.1317  0.0787  0.0566
15559W        W30690   4.042   7.884  12.053 -0.0710 -0.0870 -0.1323
15560W        W30691  13.215   3.216   4.397 -0.0116  0.0719  0.0196
15561W        W30692   1.488   0.648   0.520  0.3367  0.2926  0.4837
15562W        W30693  10.550  16.783  15.243  0.2495 -0.3372 -0.0113
15563W        W30694   6.170   6.220  11.335  0.1030  0.0016 -0.3768
15564W        W30695   8.552   2.929  14.623  0.1449 -0.4677 -0.0797
15565W        W30696  18.483  14.950  13.818  0.0358  0.0896  0.3748
15566W        W30697   7.829   8.133  13.873 -0.1479  0.1009 -0.1693
15567W        W30698   9.175  15.879  15.984  0.3205  0.0248  0.2880
15568W        W30699   6.060  15.957  11.483  0.1661  0.3754 -0.2265
15569W        W30700   2.415  14.961   4.379  0.0198  0.0763  0.3215
15570W        W30701   4.285  15.193   3.271 -0.1227 -0.1282  0.2817
15571W        W30702   8.241  15.517   4.299 -0.4611 -0.1114 -0.5028
15572W        W30703   6.220   9.961  13.820  0.1860  0.1711  0.0094
15573W        W30704  16.278   4.698   4.955  0.2622 -0.0687  0.2463
15574W        W30705   9.374  15.499   4.475  0.1511 -0.1697 -0.3085
15575W        W30706   3.554   8.035   5.269 -0.0205 -0.0353 -0.2884
15576W        W30707  11.087   6.184  13.584 -0.0659 -0.0233 -0.0239
15577W        W30708   0.617   3.704   3.738  0.1849  0.1807 -0.0354
15578W        W30709  15.067  12.155   2.811  0.0617  0.0812 -0.2790
15579W        W30710  15.779   3.359   2.832 -0.0372  0.4393 -0.3695
15580W        W30711   6.280  14.856  11.440  0.0696  0.0425 -0.0642
15581W        W30712   3.680  16.226  15.951 -0.1870  0.1683  0.0379
15582W        W30713  10.661  14.251   0.338  0.1194 -0.4764 -0.0626
15583W        W30714   2.200   5.725   2.447 -0.4323 -0.0479 -0.0062
15584W        W30715  11.034   9.927   3.391 -0.1284  0.0891 -0.3501
15585W        W30716   3.488  14.437  15.902 -0.0929 -0.2748 -0.2766
15586W        W30717  16.004   4.491  13.379 -0.3509 -0.0058  0.2348
15587W        W30718  13.858  12.881  10.958  0.2548 -0.2897 -0.1303
15588W        W30719   3.235  16.978   1.575 -0.0034  0.0177  0.0263
15589W        W30720  12.182   5.525   3.180 -0.3479 -0.1065  0.0221
15590W        W30721  18.281   4.504  11.599  0.0096 -0.0026  0.1001
15591W        W30722   8.591   2.134   4.646  0.3366 -0.1723 -0.0358
15592W        W30723   0.399   8.808   1.593  0.1201 -0.1100  0.2466
15593W        W30724   1.078   3.389  13.039 -0.2116  0.0014  0.1475
15594W        W30725  17.513  13.151   0.877  0.0546  0.1217  0.2074
15595W        W30726   8.841  10.159  11.802  0.0841  0.1784  0.2952
15596W        W30727   1.529  12.324   5.003 -0.3363  0.3362  0.4528
15597W        W30728   3.082  11.085   1.874 -0.1591  0.1601  0.2067
15598W        W30729   9.778   4.796   1.446 -0.1820  0.1172  0.1451
15599W        W30730  13.506  10.814  15.869 -0.0972 -0.2125 -0.3233
15600W        W30731   8.696  16.891  15.959  0.0396 -0.1129 -0.3595
15601W        W30732  12.091  17.312  13.973 -0.0630  0.0511  0.1617
15602W        W30733   7.876  16.241  15.720  0.1165 -0.2645 -0.3657
15603W        W30734   9.295  14.993   4.063  0.2655 -0.3215 -0.2707
15604W        W30735   0.834   2.962   4.442  0.0478  0.2715 -0.2852
15605W        W30736   1.492   0.072  10.626  0.0651  0.1999 -0.2213
15606W        W30737  18.108   4.120   4.455 -0.0434  0.2995  0.3117
15607W        W30738  13.004   9.179   5.745 -0.1283  0.1354 -0.2005
15608W        W30739   4.157  13.005  12.726 -0.0319 -0.3242 -0.3169
15609W        W30740  13.884   9.571  12.828 -0.0410 -0.1979  0.3472
15610W        W30741   1.622   9.093   1.687  0.1408  0.2587  0.2186
15611W        W30742  16.435  17.372   3.179 -0.0124  0.0648 -0.1648
15612W        W30743  10.620   9.617   2.606 -0.2065 -0.1046 -0.2810
15613W        W30744   1.613  13.242   1.233 -0.1337  0.4798  0.1089
15614W        W30745   8.405   2.048   1.688 -0.0456 -0.4115  0.0174
15615W        W30746  14.106   4.290  13.847  0.1222  0.1230 -0.2380
15616W        W30747   2.031  15.581  15.123  0.3750 -0.0792  0.2931
15617W        W30748  15.691  11.995  14.872 -0.2227 -0.3389  0.4517
15618W        W30749   4.164  17.465   0.105 -0.3173  0.1887  0.1797
15619W        W30750   8.293  10.762   1.341  0.3350 -0.1292  0.2158
15620W        W30751  13.279   8.874  13.876  0.3869  0.2730 -0.0027
15621W        W30752  15.100   0.738   4.507 -0.0658 -0.1075 -0.0441
15622W        W30753  11.346  14.382  10.492 -0.3813 -0.2812 -0.2386
15623W        W30754   5.054   0.895  14.426  0.1926 -0.0356  0.0631
15624W        W30755   3.343  15.638   3.735 -0.0909  0.1276  0.0970
15625W        W30756   4.638  11.956   4.437 -0.1196 -0.0663 -0.0358
15626W        W30757   8.336  17.705  15.827  0.3600  0.2223 -0.0255
15627W        W30758  11.583  12.771  11.994 -0.1856  0.0688 -0.1088
15628W        W30759  17.300   9.938  15.737  0.1011  0.1894  0.0320
15629W        W30760  17.143  17.304  13.166  0.1802 -0.1010  0.1412
15630W        W30761   8.466   1.169  12.156  0.0087 -0.1226 -0.0686
15631W        W30762  14.540   9.549   2.245  0.2905 -0.0655 -0.2983
15632W        W30763  16.256   4.871   4.534  0.0321  0.2653 -0.2797
15633W        W30764  15.696  16.514   4.804  0.0224  0.2283  0.2488
15634W        W30765   8.493   5.831  15.773 -0.1517 -0.2853  0.4096
15635W        W30766   1.675   5.620   5.193 -0.0108  0.1825  0.0629
15636W        W30767   0.166   4.672   4.682 -0.0178 -0.3093  0.2194
15637W        W30768   5.532  11.955  14.593  0.0922  0.3018 -0.2406
15638W        W30769  11.283  15.872  12.314  0.0106  0.0184  0.2136
15639W        W30770  13.195   3.014  13.796  0.0559  0.1001 -0.1480
15640W        W30771   7.020   0.956  13.881 -0.6019  0.0108 -0.2780
15641W        W30772   2.367   0.900  11.250 -0.2042 -0.4148  0.2810
15642W        W30773   6.423  13.872   2.137 -0.1433 -0.0363 -0.3266
15643W        W30774   1.886  11.908   1.558 -0.0376 -0.0036  0.0401
15644W        W30775  13.152  15.219   3.642  0.0816  0.0244  0.1068
15645W        W30776   2.782  12.009   2.491 -0.3711  0.0733 -0.1108
15646W        W30777   1.166  17.748  13.807 -0.2492  0.0941  0.0852
15647W        W30778   4.194  12.251   2.350 -0.1546 -0.3187  0.0669
15648W        W30779   5.079   4.414  14.901 -0.0685 -0.0145  0.3744
15649W        W30780  10.455  15.431  13.596  0.0015  0.0067  0.0858
15650W        W30781   9.487  11.786   0.753  0.1587  0.0526  0.0476
15651W        W30782   2.404  15.168  15.999 -0.1880 -0.0111 -0.1073
15652W        W30783   2.203  12.237   0.323  0.1906  0.0130 -0.1896
15653W        W30784  12.561   3.365  14.055  0.3752 -0.1662 -0.3609
15654W        W30785  13.429  12.997  15.056 -0.1867 -0.1394 -0.2067
15655W        W30786  16.964  11.389  13.334  0.0507 -0.0036 -0.2131
15656W        W30787  10.199   0.736   3.064  0.4556  0.1221  0.1748
15657W        W30788   3.275   1.822  10.816 -0.1580  0.2400  0.1854
15658W        W30789  13.616  11.028  14.426  0.1138  0.0353  0.5554
15659W        W30790   3.098   8.197   4.181  0.2532  0.0118 -0.1532
15660W        W30791   5.951   9.315  15.675  0.3746 -0.1972 -0.2256
15661W        W30792   4.208   7.582  15.643  0.1413 -0.0934 -0.1199
15662W        W30793  12.192   2.687  15.133  0.1187 -0.0904 -0.0330
15663W        W30794  16.368   2.732   3.881  0.0024  0.1627 -0.0453
15664W        W30795   8.342  15.730  14.185  0.1096 -0.3998 -0.0259
15665W        W30796   1.362   9.857   4.279 -0.0390 -0.2412 -0.0878
15666W        W30797  15.696  14.960  13.564  0.1917  0.0727 -0.1733
15667W        W30798   6.137   4.631  16.011 -0.0865  0.2572 -0.0477
15668W        W30799   7.788  11.891   3.144 -0.0804  0.2026  0.1337
15669W        W30800  16.051   1.148   3.050 -0.0542  0.2020 -0.0197
15670W        W30801  15.047  17.150   4.357  0.2284 -0.2292  0.1513
15671W        W30802   8.848   0.029   2.527  0.2446 -0.1541 -0.3316
15672W        W30803   9.599   7.332   2.854 -0.1384 -0.1174  0.3648
15673W        W30804  18.093   2.330  15.313 -0.0979  0.2245  0.2989
15674W        W30805  16.879   7.185  15.895 -0.0541  0.2990  0.0562
15675W        W30806   0.264   0.400  15.066 -0.3044  0.0970  0.1085
15676W        W30807   1.265   3.689  15.355  0.0562 -0.1149 -0.0073
15677W        W30808  12.139   4.718  12.565  0.2528  0.2279  0.1313
15678W        W30809  13.743  13.197   2.904  0.1984 -0.0178  0.0862
15679W        W30810   3.330  16.572   9.931  0.0954  0.0943  0.1804
15680W        W30811   1.530   6.782   3.698  0.1628  0.0110 -0.0308
15681W        W30812   7.589   7.834   5.152 -0.2333  0.3562  0.0619
15682W        W30813   2.251   0.235   2.960  0.1915  0.1561  0.2053
15683W        W30814  14.734  11.011   4.431 -0.1789 -0.0105 -0.0805
15684W        W30815  18.010  18.159   2.292  0.3333 -0.0009  0.0947
15685W        W30816  16.298  15.835  11.443 -0.4639  0.2003  0.0234
15686W        W30817   7.046   2.977   2.367 -0.2337 -0.1096  0.0547
15687W        W30818  15.416  16.966  10.401 -0.0966 -0.0538  0.1123
15688W        W30819   2.622   8.455   4.916  0.3125 -0.0314  0.0138
15689W        W30820  17.396  11.439   3.519  0.2041 -0.0943 -0.3890
15690W        W30821   9.329  14.686   3.606  0.0717  0.2936  0.0974
15691W        W30822   1.252   8.274   5.771  0.0689 -0.1312  0.0642
15692W        W30823   1.305   1.982   2.971  0.2011 -0.1899  0.0639
15693W        W30824   3.542   3.259  15.528  0.3367  0.0019  0.1282
15694W        W30825   0.693   9.775  12.956  0.1920 -0.1370 -0.3029
15695W        W30826  11.259   6.186   4.445  0.1310  0.1451 -0.3499
15696W        W30827  13.069   6.383   6.911 -0.1479  0.2081  0.1281
15697W        W30828  11.411  16.861  15.861 -0.0184 -0.0221  0.1024
15698W        W30829   4.177  10.787   1.149  0.2553  0.0402 -0.1154
15699W        W30830   3.128   1.782   0.296 -0.2777 -0.3993  0.0517
15700W        W30831   3.902  16.429   4.526 -0.1926  0.1852 -0.2471
15701W        W30832   2.551  15.111   3.125 -0.0220  0.2849  0.0962
15702W        W30833   0.609   0.629  12.954  0.0233  0.2661 -0.0377
15703W        W30834   2.659   2.168   4.472 -0.3591  0.0557 -0.3030
15704W        W30835   9.237   4.043  14.329 -0.2973  0.1211 -0.0011
15705W        W30836  13.197  16.408  11.286  0.2749  0.1232  0.0392
15706W        W30837   8.953   0.737   0.989 -0.1233 -0.0675  0.2203
15707W        W30838  12.577  11.615   4.858  0.1192 -0.0067 -0.1907
15708W        W30839  17.456  11.189  15.329  0.0035 -0.2463 -0.0647
15709W        W30840   9.715   6.622   3.607  0.2289 -0.0483 -0.0771
15710W        W30841  18.457   5.959   3.075 -0.2515 -0.0781 -0.1914
15711W        W30842  11.697   7.476  12.319  0.0102 -0.1054  0.2778
15712W        W30843   1.750  11.103  13.616  0.4560  0.1840  0.0235
15713W        W30844   6.295   9.597   2.222  0.1087 -0.1487  0.2194
15714W        W30845   0.373   9.463  14.362  0.0245 -0.1097  0.1616
15715W        W30846   6.267  15.330  11.331  0.1719  0.0827  0.3194
15716W        W30847   7.921   6.605   5.615  0.2350  0.0783  0.1572
15717W        W30848   0.590  16.702  15.080  0.0018 -0.0537  0.0836
15718W        W30849   8.015  15.008   0.691 -0.2574  0.2510 -0.1018
15719W        W30850  14.979   5.860   5.508 -0.0876 -0.1399 -0.1814
15720W        W30851  12.307  17.065   3.496  0.1201 -0.0677  0.1523
15721W        W30852  12.421  16.552   3.358 -0.2096 -0.0111  0.2067
15722W        W30853  11.167   8.102   3.834 -0.0900 -0.2087 -0.0435
15723W        W30854  11.322  12.549   2.805  0.0382  0.1512 -0.1670
15724W        W30855   2.279  14.017   1.195 -0.0536  0.3397  0.2266
15725W        W30856   9.260  14.475   5.030  0.3722  0.1584  0.1401
15726W        W30857  13.717  12.134   4.679  0.3381 -0.2287 -0.2055
15727W        W30858  17.378   9.486   3.556  0.2835  0.2361  0.1574
15728W        W30859   2.307   0.113   1.835  0.0243  0.0241  0.2091
15729W        W30860  13.485   4.620  15.820  0.1202 -0.1866  0.1722
15730W        W30861   6.599  11.316   2.764  0.0548 -0.1542  0.2218
15731W        W30862  13.361   9.942   0.609 -0.2069 -0.2018 -0.1956
15732W        W30863   2.255   1.840  10.939  0.0393  0.3475 -0.0839
15733W        W30864   6.732   6.861   5.208 -0.4135  0.1289 -0.1812
15734W        W30865   0.047   1.089  13.682 -0.2459 -0.0640  0.0767
15735W        W30866  14.702   8.763   4.824 -0.1544 -0.1425  0.1413
15736W        W30867   5.928  13.409  11.397 -0.1679 -0.2530 -0.1923
15737W        W30868  16.978  14.855   5.064 -0.0923  0.0418 -0.2006
15738W        W30869  15.273   1.125   4.195  0.0322 -0.1386  0.3933
15739W        W30870   0.124  17.706   3.200  0.1523 -0.0433  0.1019
15740W        W30871   2.077  10.614  12.088  0.4206 -0.1317 -0.1286
15741W        W30872   9.476  18.198  13.015 -0.3812 -0.4358  0.3033
15742W        W30873   3.539   8.134  15.275 -0.2281 -0.1939 -0.1223
15743W        W30874  14.571   1.886   1.441  0.2850 -0.0858 -0.0519
15744W        W30875   6.414   1.801   5.901 -0.2888  0.1085 -0.0362
15745W        W30876  10.838   0.361  15.804  0.2033  0.2304 -0.3041
15746W        W30877   8.955  18.400   4.785  0.1497 -0.0459  0.0283
15747W        W30878  10.454   4.866  13.697 -0.2828  0.0602  0.0504
15748W        W30879   4.362  16.227   1.434 -0.0400  0.4484 -0.0890
15749W        W30880  12.432  15.897  14.231  0.3173  0.1398 -0.2339
15750W        W30881   8.276  14.888   1.130 -0.1608 -0.2930 -0.2443
15751W        W30882  14.606  16.481  13.877 -0.0092  0.1377  0.1866
15752W        W30883  17.410   7.922  11.974 -0.0904  0.0395 -0.3013
15753W        W30884   5.333   2.296  12.507 -0.2688  0.6433  0.0766
15754W        W30885  17.723  18.062  13.580  0.0722  0.1378 -0.0890
15755W        W30886  16.542   3.197   2.027  0.1730  0.2339 -0.0368
15756W        W30887  16.641  13.475  14.634 -0.1299  0.1477  0.1089
15757W        W30888   3.841   0.933  12.935  0.1113  0.0723 -0.0568
15758W        W30889   4.257   8.529   3.316 -0.0125 -0.0387  0.1392
15759W        W30890  17.368  12.195   3.164 -0.4755 -0.1204 -0.0736
15760W        W30891  11.294   4.227   6.525 -0.1791 -0.0881  0.1901
15761W        W30892   3.776  14.252  13.803  0.0329  0.3449  0.0723
15762W        W30893   4.416  16.521  11.969 -0.3594  0.1240  0.1820
15763W        W30894   7.841   8.626  14.985 -0.0574  0.2803  0.0210
15764W        W30895  17.948  18.475  14.745 -0.0825 -0.0080 -0.0870
15765W        W30896   9.649   8.249  15.793 -0.2849 -0.2816 -0.1754
15766W        W30897   1.061   8.570   4.179 -0.2452 -0.3260 -0.0276
15767W        W30898  16.846   1.126  12.070 -0.2308 -0.1254 -0.1066
15768W        W30899  13.726   7.471   2.513  0.0021 -0.1203 -0.1305
15769W        W30900   6.419  11.303  14.652 -0.0047 -0.0630  0.1126
15770W        W30901  13.166   1.262   1.932  0.1277 -0.1477 -0.3628
15771W        W30902  16.770   8.934  13.180  0.0388  0.1089 -0.0685
15772W        W30903  11.128  10.937  12.295  0.1065  0.2343 -0.1642
15773W        W30904   0.235   8.906  14.289  0.0753 -0.0490  0.0799
15774W        W30905   0.164   4.385   3.805  0.0038  0.0781  0.2870
15775W        W30906   0.641   1.481  14.188  0.3607  0.0914 -0.1560
15776W        W30907  15.418   7.591  11.314 -0.0326  0.2437  0.1203
15777W        W30908  10.984   6.895   4.042 -0.1582  0.1607 -0.1383
15778W        W30909  17.759  15.345  14.171 -0.2525  0.1122  0.1841
15779W        W30910   7.111   8.387   1.928 -0.1417  0.2604  0.2364
15780W        W30911  16.618   3.344  11.545 -0.2436 -0.1663  0.0076
15781W        W30912  11.019   4.472  11.872  0.2728  0.0157 -0.3332
15782W        W30913   6.881  10.000   3.097  0.1037 -0.0841 -0.1323
15783W        W30914  14.031   3.355   4.086 -0.1119  0.1215  0.1096
15784W        W30915  16.469  16.921  10.776  0.1420  0.2509 -0.2159
15785W        W30916   3.734  17.359  11.598  0.0358  0.3120  0.0206
15786W        W30917  15.617  10.280   1.105 -0.0533  0.1428 -0.1609
15787W        W30918   0.111   4.046   1.112  0.1476 -0.0686  0.0288
15788W        W30919  10.376   9.827  12.849  0.1123  0.1864  0.1228
15789W        W30920   5.469   9.913  12.094  0.3168  0.0072  0.0793
15790W        W30921  17.297  10.965  13.456  0.0742  0.0063  0.0721
15791W        W30922  14.249   3.945  15.450 -0.3245  0.2758  0.4009
15792W        W30923   2.290   5.700  10.826  0.0757 -0.1033 -0.1653
15793W        W30924  12.284  13.623  10.805  0.1538 -0.1222 -0.4707
15794W        W30925  14.287  17.758  11.201  0.0158 -0.2651 -0.2173
15795W        W30926   4.403   6.732  11.663  0.3423 -0.3888 -0.2586
15796W        W30927  13.770  11.149   4.480  0.0504  0.0854 -0.0060
15797W        W30928  17.520   3.547  13.013  0.2614 -0.0914  0.0077
15798W        W30929   8.791  14.008  11.725  0.1699  0.1272  0.0834
15799W        W30930   2.347  12.252  13.704 -0.2241 -0.1409 -0.0503
15800W        W30931  15.311   2.344   6.326 -0.1251 -0.1106 -0.1638
15801W        W30932   2.462   8.423   2.984  0.0388  0.0957 -0.0631
15802W        W30933  15.779   1.598  14.540  0.2493  0.0735  0.1408
15803W        W30934   0.400   2.794  14.373 -0.1588 -0.1595  0.0109
15804W        W30935   8.018   6.331  13.430  0.3476 -0.0473  0.2705
15805W        W30936  12.416  11.472  14.931 -0.2331  0.1057  0.1432
15806W        W30937   9.156   7.511   0.285  0.1368  0.2158 -0.2301
15807W        W30938   9.262   6.285   3.697  0.0343  0.0033 -0.0165
15808W        W30939   0.971  16.974  14.430  0.0891 -0.0732 -0.1807
15809W        W30940   3.740  10.757   5.536  0.0432 -0.0550 -0.2186
15810W        W30941   3.482  16.299   4.140  0.0889 -0.5022 -0.2080
15811W        W30942   7.993  14.521  14.578 -0.0456 -0.3974 -0.1712
15812W        W30943   0.097   7.657   1.711  0.2134 -0.2889  0.2758
15813W        W30944   6.055  12.670   2.642 -0.0424  0.3700 -0.4095
15814W        W30945   1.270  16.388  10.903 -0.1830 -0.1997 -0.3230
15815W        W30946  12.728   2.067   1.288  0.0163 -0.0279 -0.0154
15816W        W30947   7.661   1.143   5.184 -0.1940 -0.1579 -0.2750
15817W        W30948   6.152   8.877  13.501 -0.1702  0.1158  0.1311
15818W        W30949   7.945   8.588   2.528  0.1112 -0.0862 -0.4273
15819W        W30950  17.736   8.714  15.915 -0.1806  0.2411  0.1644
15820W        W30951   1.632   5.362   3.594 -0.4695 -0.0922  0.0710
15821W        W30952   3.648  18.162  10.556  0.1275 -0.3605  0.1871
15822W        W30953   6.595  13.234  12.047  0.2363  0.2972 -0.0652
15823W        W30954  13.147   2.122  12.892 -0.0790 -0.0078 -0.1623
15824W        W30955  16.916   2.969  14.807  0.2934 -0.1429 -0.0726
15825W        W30956  17.534   0.869   5.531 -0.0055  0.0782  0.2262
15826W        W30957   3.836   8.733   2.906  0.1912 -0.1057  0.0384
15827W        W30958   4.791   3.042  14.934 -0.2153  0.0164  0.0236
15828W        W30959   5.560  18.300  12.269 -0.1852  0.0168  0.0410
15829W        W30960  10.342   0.014  15.018 -0.0044  0.3636 -0.1741
15830W        W30961  10.475  16.269   4.100  0.1364  0.2756  0.0159
15831W        W30962   9.936  12.301  11.713 -0.1380 -0.1021 -0.3727
15832W        W30963   7.275   1.033  11.900 -0.0957  0.0269 -0.1664
15833W        W30964  12.366   7.785   2.932  0.1428  0.2711 -0.0054
15834W        W30965  12.556  15.108   5.834 -0.1288  0.3294 -0.3205
15835W        W30966   5.604   0.781   4.214  0.0617 -0.4605 -0.1094
15836W        W30967   6.654  12.988   5.851 -0.0597 -0.0693  0.1524
15837W        W30968   5.966  12.378  12.255 -0.0069  0.1953  0.0415
15838W        W30969  16.759   8.454   4.829 -0.4483 -0.1178 -0.2457
15839W        W30970  12.672  18.149  14.976  0.0443 -0.1256  0.2369
15840W        W30971   3.514   5.435  11.528 -0.1763 -0.1199  0.2220
15841W        W30972   6.708   1.522  12.427 -0.1775  0.0294  0.0844
15842W        W30973   4.772  10.546  12.018  0.3219  0.2105  0.0749
15843W        W30974   8.354   8.051   1.164  0.4775  0.1404  0.1430
15844W        W30975  16.868   9.201  15.812  0.2215  0.0651 -0.3307
15845W        W30976  17.455   5.500   0.893  0.4851 -0.3154  0.2740
15846W        W30977  14.415   8.884   3.426 -0.2427 -0.1735  0.1075
15847W        W30978   0.778   1.582   4.878  0.0034 -0.0593  0.3360
15848W        W30979  17.837   3.250  11.664 -0.1455 -0.3016 -0.2060
15849W        W30980  11.267  16.792  12.192  0.0980  0.1224 -0.0598
15850W        W30981  15.789   9.270   4.982  0.0188 -0.2196 -0.2483
15851W        W30982   5.521   3.491   2.347  0.1914  0.0015  0.0104
15852W        W30983   7.010   7.705  14.382 -0.1758  0.0717 -0.1160
15853W        W30984  10.025   7.458  13.939 -0.0629 -0.0871  0.0183
15854W        W30985  10.143  14.429  10.783 -0.3677 -0.2073 -0.0744
15855W        W30986   5.813   1.552  12.852 -0.0827 -0.2252 -0.0285
15856W        W30987  12.464   9.178   1.833 -0.0503  0.0218  0.3011
15857W        W30988  14.813  14.322  10.937 -0.1438  0.1250 -0.1230
15858W        W30989  11.436   4.555   0.201 -0.3148  0.1485  0.0604
15859W        W30990   7.721   5.495   2.631  0.1801  0.0852  0.0144
15860W        W30991  17.698   8.168   4.469 -0.1891 -0.0238  0.0445
15861W        W30992  11.898   4.951  11.344  0.0140  0.1830  0.1890
15862W        W30993  16.259  10.553  13.675  0.0532  0.3837 -0.2159
15863W        W30994  16.273   7.638   1.573  0.0924  0.0382  0.2231
15864W        W30995  11.776   5.521  13.667 -0.1214  0.0325 -0.0084
15865W        W30996  17.526  17.423   9.600  0.0534 -0.0562 -0.4151
15866W        W30997  17.650  17.020  14.962 -0.2052  0.2173 -0.1358
15867W        W30998   2.377   8.525  13.079  0.1809  0.1699  0.0776
15868W        W30999   3.891  15.513   0.382  0.3805  0.0557  0.2777
15869W        W31000   0.008  13.004  12.176  0.1344  0.2598  0.2397
15870W        W31001  14.814  15.773   2.278  0.1953 -0.1269  0.1862
15871W        W31002  12.840  16.576   1.073 -0.0812  0.0008 -0.0344
15872W        W31003   2.870  15.505   5.119 -0.2304 -0.0361  0.1598
15873W        W31004   7.305  12.824  15.487 -0.2030  0.3021 -0.1183
15874W        W31005   1.581  10.310  12.160  0.0810 -0.0053 -0.1807
15875W        W31006   2.453  10.178   0.346 -0.1663  0.2542 -0.0459
15876W        W31007   7.569   5.310   4.829 -0.0806 -0.1220  0.0919
15877W        W31008   0.374  12.415  12.289 -0.1193  0.3372 -0.0613
15878W        W31009  15.568   5.559   2.391 -0.0060  0.4276  0.1760
15879W        W31010  15.877  11.196   2.098 -0.1369  0.1107  0.1161
15880W        W31011   4.235   3.785  11.670  0.0166  0.3220  0.1532
15881W        W31012   5.946  10.251  13.555 -0.1793  0.0596  0.0770
15882W        W31013  15.177  13.225   5.105  0.2316 -0.0347 -0.1925
15883W        W31014  15.120  11.926   0.692 -0.0789  0.1724 -0.0847
15884W        W31015   3.864  10.872   0.426 -0.0110 -0.0881 -0.1191
15885W        W31016   7.043   7.004   5.587  0.0062 -0.2303  0.1781
15886W        W31017  16.509  12.243  13.221 -0.0250 -0.1208 -0.2281
15887W        W31018   1.258   9.122   3.314 -0.0465 -0.2898 -0.0145
15888W        W31019   1.213  11.040   2.338  0.4366 -0.0321  0.0676
15889W        W31020   0.035   9.402   0.053 -0.0987  0.1515 -0.1297
15890W        W31021  15.657   7.899  13.575 -0.0525  0.0166  0.0981
15891W        W31022  18.361   1.156  13.166  0.0139  0.0318 -0.1297
15892W        W31023  12.214   9.619  11.150 -0.0816 -0.0114 -0.0856
15893W        W31024  15.231  13.019  15.614 -0.1402  0.0654  0.3984
15894W        W31025  10.986   3.670  11.310 -0.0308 -0.2982  0.0870
15895W        W31026  11.324  12.019   1.438 -0.2718 -0.0055  0.1322
15896W        W31027   8.516  16.854   4.318 -0.0310 -0.1820 -0.0379
15897W        W31028  18.311   3.842  12.012 -0.0595  0.3016  0.1493
15898W        W31029   7.768   6.409   4.582 -0.0191  0.0605 -0.1669
15899W        W31030  13.721   4.697   3.864  0.0498 -0.2910 -0.0387
15900W        W31031  11.426   7.580   3.146 -0.0499 -0.2863  0.2698
15901W        W31032   6.296   4.596  13.262  0.1446  0.0323 -0.0504
15902W        W31033  15.404  11.183   3.656  0.2192  0.2435  0.0476
15903W        W31034   4.608  10.950  15.113 -0.0627 -0.0940  0.0041
15904W        W31035  13.471   7.476  13.883  0.0844 -0.0460  0.0957
15905W        W31036   4.734   2.644   4.791  0.1851 -0.1897  0.0471
15906W        W31037  15.696   3.714   4.600 -0.2424  0.1316 -0.0566
15907W        W31038  18.036   9.246  10.416  0.0655  0.0240  0.2091
15908W        W31039   5.019   1.482  15.235 -0.2577 -0.2332 -0.1842
15909W        W31040  15.829  15.787  12.939  0.0481  0.1671 -0.1036
15910W        W31041   8.857   8.663  12.165 -0.0008  0.0997 -0.0020
15911W        W31042   5.724   2.791  14.923  0.1822 -0.1860 -0.2144
15912W        W31043  11.780   2.631   2.920  0.0486 -0.0644  0.1497
15913W        W31044  13.740  14.266  13.915 -0.0934 -0.1138  0.1587
15914W        W31045  17.989   6.919   1.136  0.1112  0.2595 -0.0939
15915W        W31046   4.200  10.186   2.107  0.1450  0.1240 -0.0649
15916W        W31047  11.537  13.741   2.492  0.0174  0.2874 -0.0174
15917W        W31048  15.694  12.616  11.660 -0.0961  0.0973  0.2663
15918W        W31049  10.074   9.157   4.705  0.2793  0.1732  0.0752
15919W        W31050   3.532  16.791   9.123  0.0037 -0.1331  0.1210
15920W        W31051   4.542  12.538  12.077  0.2779 -0.0022 -0.1154
15921W        W31052   6.542  16.837   0.293 -0.3247 -0.6254  0.1308
15922W        W31053   1.176  14.277   3.747  0.1156 -0.0851 -0.0357
15923W        W31054  11.228  17.259  11.998  0.0394 -0.0021  0.1898
15924W        W31055  12.741   0.065  13.932 -0.3306  0.3669 -0.0459
15925W        W31056  14.960  11.744  15.618 -0.0988  0.1047  0.2055
15926W        W31057  12.160   4.178   2.706 -0.1856  0.0734 -0.0298
15927W        W31058   9.196  13.135   0.523 -0.1182 -0.0056 -0.2724
15928W        W31059  13.736   6.598  12.457  0.0350 -0.1326  0.2924
15929W        W31060   3.015  11.044   2.454 -0.5111  0.1510 -0.1133
15930W        W31061   9.415   4.004  13.256 -0.1295 -0.0682 -0.0608
15931W        W31062  11.767   2.483  16.033 -0.1080  0.1098 -0.0807
15932W        W31063  16.868   3.443  13.507  0.0250  0.1001 -0.1195
15933W        W31064  10.194  13.662  14.520  0.1613  0.2141  0.1984
15934W        W31065   5.681   4.655  14.182  0.1873  0.2011 -0.2637
15935W        W31066  16.384  10.184   4.938 -0.0603  0.0740  0.1901
15936W        W31067   1.923   3.162   5.390  0.1577 -0.3082 -0.0818
15937W        W31068  11.892  14.936   5.440  0.0229  0.2421 -0.3273
15938W        W31069  11.681  15.772   4.919  0.1402  0.2041 -0.0459
15939W        W31070  16.883  17.294  14.388  0.2722 -0.2096 -0.0110
15940W        W31071   3.737   2.872  15.335  0.1262  0.1262 -0.0061
15941W        W31072   5.692   1.162   3.534  0.0940 -0.1442  0.1976
15942W        W31073  10.269  16.906  11.665  0.2728  0.1279  0.0107
15943W        W31074  17.143   3.528   1.660  0.1853  0.2345  0.1878
15944W        W31075   6.592   4.114  11.922 -0.2335  0.3190 -0.2237
15945W        W31076  17.597   5.095  13.794  0.1751  0.0296  0.3230
15946W        W31077   7.102   6.740   0.924  0.2900  0.1295  0.4099
15947W        W31078  17.782   9.255   3.191 -0.1033 -0.0015  0.2707
15948W        W31079   5.905   9.133  13.847 -0.1728  0.1499 -0.1232
15949W        W31080  18.108  12.673  15.453  0.2023  0.1595 -0.0141
15950W        W31081  10.904  15.666   3.021  0.2642 -0.0709  0.0153
15951W        W31082   8.360   7.674   1.502  0.1164 -0.0251  0.2426
15952W        W31083   7.365   9.527   3.780  0.0105  0.0688  0.1582
15953W        W31084   4.057   5.504  12.977 -0.1014 -0.2548 -0.0770
15954W        W31085  17.688  10.485  14.367 -0.1111  0.2239  0.1730
15955W        W31086   0.639   1.397  12.125 -0.1712 -0.4853 -0.1137
15956W        W31087  15.059  17.119   1.644  0.0484 -0.2804  0.1631
15957W        W31088  13.819  18.474  15.046 -0.2311 -0.0037 -0.3143
15958W        W31089  18.478  13.289  12.703  0.0968  0.2032 -0.1155
15959W        W31090  12.453  18.099  12.960 -0.2067  0.0997 -0.0016
15960W        W31091  15.937  12.405   1.411 -0.2343  0.2221 -0.1158
15961W        W31092  12.539  17.942  12.054  0.3767  0.0784 -0.0296
15962W        W31093  10.721  12.287   3.313 -0.0375 -0.2247 -0.1000
15963W        W31094  11.108  11.095  15.010 -0.0533 -0.0286  0.2699
15964W        W31095   5.760  17.270  12.003  0.1217  0.0793 -0.0076
15965W        W31096   3.181  10.025  14.084  0.1210  0.2127  0.2381
15966W        W31097  11.883  17.472   5.275 -0.2755 -0.0573  0.1419
15967W        W31098  17.840  17.371   4.181  0.2939 -0.2829  0.0844
15968W        W31099   1.625   5.221   6.119 -0.1011 -0.0159 -0.0709
15969W        W31100  15.357  13.688   3.142 -0.2340  0.0866 -0.2383
15970W        W31101   6.446  12.276  15.870  0.1186 -0.0503  0.0082
15971W        W31102  17.959   0.112   2.559 -0.1757  0.0502  0.3094
15972W        W31103  18.257  17.349   2.119 -0.0921  0.0213  0.0761
15973W        W31104   7.177  17.165  13.265  0.1066 -0.2332 -0.2146
15974W        W31105   5.935   5.768   4.521  0.0285 -0.2801  0.0998
15975W        W31106   0.936  14.688   1.792 -0.1255 -0.1332  0.2269
15976W        W31107   1.073   6.077   4.519  0.0672  0.1283 -0.3848
15977W        W31108  16.337   3.602  10.106  0.1232  0.0360  0.2027
15978W        W31109  14.752  14.836  11.063 -0.1172  0.0804 -0.0939
15979W        W31110  10.027   3.562   0.152  0.2568 -0.1466  0.1110
15980W        W31111  15.664  14.245   6.033  0.0357  0.0467 -0.2956
15981W        W31112  16.892   5.851  16.103 -0.3527  0.3376 -0.3849
15982W        W31113   7.755   5.713   5.797  0.1145  0.0157  0.3422
15983W        W31114  10.915   1.874   3.807 -0.1103  0.0171 -0.0535
15984W        W31115   5.839   4.116  13.413 -0.0239 -0.0094  0.2168
15985W        W31116   0.095  17.886   5.532  0.3976 -0.1062  0.2092
15986W        W31117  11.212   8.765  14.062  0.0399 -0.1121  0.0111
15987W        W31118  10.435   1.696  14.490 -0.1715 -0.1917 -0.3123
15988W        W31119   0.505  15.488  12.088 -0.1723  0.0139  0.2920
15989W        W31120  16.260   2.438   4.280  0.2904 -0.3221 -0.2051
15990W        W31121  17.744   8.386   2.587 -0.1781  0.3462 -0.1808
15991W        W31122  14.127  16.124  13.624 -0.0492  0.0135 -0.1053
15992W        W31123   3.856   8.283   1.966 -0.0819  0.0470  0.1303
15993W        W31124   5.240   8.755   2.021 -0.2509  0.1130 -0.2747
15994W        W31125   8.599   4.871   3.377 -0.1438 -0.0536 -0.2585
15995W        W31126   6.067   0.289  10.977 -0.0874 -0.0975  0.2705
15996W        W31127  12.812   2.399   4.647  0.2577  0.3286 -0.5357
15997W        W31128  14.915   8.792  13.313 -0.0420 -0.1715  0.0916
15998W        W31129   4.347   9.302   4.012  0.0741 -0.0699  0.2058
15999W        W31130   3.172  10.615   0.661 -0.2125  0.0292  0.1241
16000W        W31131   2.352   3.652   4.559 -0.0963 -0.0319 -0.0742
16001W        W31132   0.166  15.730   5.666 -0.0796 -0.0315  0.2259
16002W        W31133   2.534   0.436  14.299  0.0901  0.1590 -0.2773
16003W        W31134  10.456  17.893   1.797  0.1093 -0.0922 -0.2534
16004W        W31135  18.004  16.378  13.569  0.1391 -0.0989  0.1503
16005W        W31136   4.437   3.178   0.959 -0.0989  0.1437  0.1977
16006W        W31137  10.941  16.573   1.770 -0.2240  0.1264 -0.0274
16007W        W31138   5.971   5.955  14.763  0.3514 -0.0735  0.0466
16008W        W31139   8.099  11.861  13.414 -0.1438 -0.0335 -0.2929
16009W        W31140   4.371  17.133   2.712 -0.0432  0.2206 -0.0186
16010W        W31141   0.835  10.593  15.150 -0.1350 -0.1569  0.3185
16011W        W31142  18.325   1.510   0.703  0.1992  0.0214  0.1618
16012W        W31143   6.632  10.768   4.091  0.2107 -0.4410  0.2723
16013W        W31144  16.544   0.275   1.968 -0.1945 -0.0867 -0.0454
16014W        W31145  13.075   8.425  15.513  0.0435  0.0646 -0.0250
16015W        W31146   2.600  12.951  11.028  0.0241 -0.1718  0.0537
16016W        W31147  10.824   2.353  11.149  0.1143  0.3315 -0.1943
16017W        W31148   5.697  14.429  14.958  0.1925 -0.0122  0.1619
16018W        W31149  17.363   1.724  11.271 -0.3115 -0.1187  0.0393
16019W        W31150  16.633   2.431  13.335  0.1538 -0.1848  0.1527
16020W        W31151  13.393  14.141   4.799 -0.0375 -0.3591  0.1984
16021W        W31152   3.630   3.367   3.113 -0.2355  0.0733  0.0624
16022W        W31153  16.356   4.076   0.027 -0.0909 -0.1274 -0.1275
16023W        W31154   2.351   6.182  12.216  0.1284  0.0230 -0.1439
16024W        W31155  10.440  10.366  11.059  0.2607  0.1431 -0.1667
16025W        W31156   5.445   6.354   0.563 -0.2669 -0.2651 -0.1586
16026W        W31157   1.562   9.509   4.635  0.0870  0.2580  0.5122
16027W        W31158  15.797   0.614   0.607  0.0908  0.0585  0.0335
16028W        W31159   3.851   8.846   5.518  0.1883  0.1260  0.0295
16029W        W31160  10.627  10.447   2.091 -0.0041 -0.0000 -0.0627
16030W        W31161   3.191   5.248   1.979  0.1941 -0.1604 -0.1397
16031W        W31162   1.830   2.694   1.290  0.0781 -0.2061  0.0488
16032W        W31163   4.274   3.255   0.144 -0.1124 -0.1174  0.0590
16033W        W31164  17.573   9.570  13.024  0.1028 -0.0210  0.2087
16034W        W31165  17.010   7.757  15.800  0.0283 -0.1327 -0.0527
16035W        W31166   9.996  13.446  15.489 -0.4203  0.0127 -0.2544
16036W        W31167   4.521   9.484   5.314 -0.1723  0.0072  0.1952
16037W        W31168  11.469   6.690   2.203 -0.0243 -0.2580  0.0543
16038W        W31169   4.993  14.040   3.718 -0.0394  0.4189  0.3143
16039W        W31170  12.108   1.195   0.511  0.0668 -0.0025  0.1552
16040W        W31171  14.823   7.775  15.474 -0.2118 -0.1123  0.2300
16041W        W31172  10.403   0.959   0.544  0.0257  0.2179 -0.1834
16042W        W31173   8.540   9.789  12.605  0.1188 -0.1181 -0.0211
16043W        W31174   1.631   8.097  14.162  0.3557 -0.1591 -0.3508
16044W        W31175  18.375   4.888   3.118 -0.2581 -0.0013 -0.0713
16045W        W31176   1.315  18.164  12.674 -0.0891 -0.0562 -0.2084
16046W        W31177   0.554   7.254   3.678 -0.3951 -0.0685  0.1040
16047W        W31178   4.429   9.578  14.177  0.4094 -0.2793 -0.0723
16048W        W31179   3.784  11.385  14.988  0.0759 -0.0452  0.3576
16049W        W31180  17.803  11.421  15.602  0.2490 -0.3612 -0.3224
16050W        W31181  18.133   6.627   0.770  0.0929  0.2357  0.1118
16051W        W31182   5.565  10.515   0.804  0.0137  0.0549 -0.1358
16052W        W31183   4.908   9.697  14.984  0.1526 -0.0624 -0.1751
16053W        W31184  11.727   1.507   0.679 -0.0195 -0.0378 -0.4548
16054W        W31185   5.561   2.112  15.509  0.1935 -0.2724 -0.3511
16055W        W31186   9.469  14.607   2.533 -0.0965 -0.1790 -0.3034
16056W        W31187  14.950  17.519  14.864 -0.0066 -0.1221  0.0917
16057W        W31188   7.232   8.711  14.103 -0.4434  0.2028  0.0440
16058W        W31189   1.373   9.568  13.607 -0.0121 -0.1104  0.0788
16059W        W31190  17.295  14.193  14.809  0.0750  0.0039  0.0432
16060W        W31191  15.132   0.728  16.054 -0.0845  0.2871 -0.3895
16061W        W31192   8.999  15.922   1.544 -0.0154 -0.0176  0.1032
16062W        W31193  17.420  10.551   1.575  0.0680  0.0418 -0.2625
16063W        W31194  10.916  10.658   4.445 -0.2535 -0.1554 -0.0449
16064W        W31195  14.329   7.658  11.754  0.0411  0.4399 -0.0652
16065W        W31196   6.946  12.793  13.861  0.3040 -0.1960  0.2395
16066W        W31197   7.981   2.667  15.202  0.4119 -0.3610 -0.2685
16067W        W31198   2.138  17.858   2.345 -0.3211 -0.2659 -0.1146
16068W        W31199  17.002  17.313  12.659  0.1376 -0.3103  0.0228
16069W        W31200  10.952  12.370   5.109 -0.2884  0.2528  0.0343
16070W        W31201   7.173   5.426   2.188  0.2066  0.1643  0.1048
16071W        W31202  17.664   3.473  10.982  0.0598  0.0012  0.0730
16072W        W31203   2.263  10.106  14.261 -0.0645  0.2791  0.0507
16073W        W31204  15.101  14.238  14.159  0.0170 -0.0236  0.3095
16074W        W31205   0.484  13.843   4.912  0.2925  0.1902  0.0309
16075W        W31206   0.703   8.595   3.778 -0.0650  0.2214  0.2517
16076W        W31207  17.715  13.843   3.338  0.0037 -0.0835 -0.0582
16077W        W31208  15.508   6.519   3.364  0.1432  0.0092 -0.0136
16078W        W31209   5.367  15.090  12.951  0.0901  0.0838  0.1465
16079W        W31210  14.892   7.874   2.721  0.2863 -0.2800  0.0612
16080W        W31211  17.672  14.582   0.217 -0.0303 -0.1605  0.0826
16081W        W31212   5.707   2.653  12.270  0.0497  0.0315  0.2477
16082W        W31213  12.123   8.370  16.044 -0.2155  0.3611  0.2109
16083W        W31214   2.206  10.280  11.342  0.0161  0.0137 -0.1451
16084W        W31215   5.198  14.957  15.823  0.0539  0.2269  0.0779
16085W        W31216   0.416  11.758   2.094 -0.2864  0.2003  0.0183
16086W        W31217  17.268  10.514   3.291  0.1738  0.1038 -0.0840
16087W        W31218  18.197  13.177   2.875 -0.1299  0.0776  0.2652
16088W        W31219   5.534   3.602   4.723  0.4489  0.1824  0.5475
16089W        W31220  12.659  17.668   4.107  0.0191  0.1800  0.1576
16090W        W31221  17.079   2.686   1.306 -0.2321 -0.2791 -0.4132
16091W        W31222  13.642  16.067  14.458  0.0874  0.0053 -0.2625
16092W        W31223   6.757   7.276  10.745 -0.2178  0.1879 -0.1595
16093W        W31224   9.479  10.561   0.884  0.1871 -0.2420 -0.1885
16094W        W31225   9.132  15.318  13.800  0.3977 -0.0773 -0.1054
16095W        W31226   3.777  14.213   4.879 -0.0757  0.3500 -0.1312
16096W        W31227  17.735  14.932  10.094  0.1909  0.1185 -0.0766
16097W        W31228  15.195  12.752   5.263 -0.2343  0.3289  0.0478
16098W        W31229   8.548   2.397  13.396  0.0150  0.0065  0.3365
16099W        W31230  13.303  18.286  16.000  0.1399 -0.0784 -0.1958
16100W        W31231   0.874  17.135   0.249  0.0091 -0.0390 -0.1749
16101W        W31232  17.310  10.242  15.097  0.0997 -0.0425 -0.0853
16102W        W31233  10.772   7.413  12.943 -0.0920 -0.0856  0.0625
16103W        W31234  17.797  12.864  13.873  0.0863 -0.0087 -0.0158
16104W        W31235  12.719   9.326   0.754  0.0601  0.0061 -0.1163
16105W        W31236   4.334  15.516   3.614  0.1399 -0.1058 -0.0402
16106W        W31237  17.578  15.373  13.170  0.0653 -0.0490  0.0787
16107W        W31238   1.840  18.062  14.128  0.1684 -0.2442  0.0539
16108W        W31239  10.618  16.332  12.967 -0.1076 -0.2391  0.1852
16109W        W31240   3.750   6.967   0.358 -0.0150  0.3708  0.1790
16110W        W31241   3.185   4.632   4.947 -0.2484 -0.1845  0.2286
16111W        W31242   0.397  18.161  10.932 -0.2812  0.2784 -0.1249
16112W        W31243   1.936   5.830   1.741 -0.1924  0.2694 -0.0301
16113W        W31244   2.308  14.515   1.277 -0.0414  0.2331 -0.1530
16114W        W31245   8.977  16.854   1.811  0.0962 -0.0770  0.0505
16115W        W31246   6.685  12.159  13.308  0.2847  0.0761  0.3654
16116W        W31247   7.481  11.673   2.688 -0.1878  0.0665 -0.1646
16117W        W31248  15.934  17.535  12.464  0.1039  0.2622 -0.3653
16118W        W31249  17.276  17.769  15.371  0.2920 -0.1505 -0.1242
16119W        W31250  10.481   2.504   4.712 -0.1541 -0.1399  0.2532
16120W        W31251   1.483  15.306   1.992 -0.5101  0.3888  0.0992
16121W        W31252   3.724   4.225   3.129  0.0274  0.1218  0.1425
16122W        W31253   0.186  15.845  14.566 -0.0742  0.1796 -0.0007
16123W        W31254   8.881   6.263  15.633  0.1432 -0.1938 -0.0845
16124W        W31255   5.189  13.943  11.170 -0.2618 -0.0117  0.0625
16125W        W31256   7.546  17.968   2.498 -0.0539  0.1205  0.0679
16126W        W31257   1.188   7.491   4.428  0.0765  0.0659  0.2058
16127W        W31258   9.107  14.308   2.341  0.0830  0.1255 -0.0260
16128W        W31259   7.815   9.498   1.836 -0.1504 -0.0108  0.1918
16129W        W31260  17.912  10.159   0.111  0.0512  0.0077 -0.0607
16130W        W31261  15.962   7.731   0.709  0.3507  0.2124  0.2069
16131W        W31262  17.760   4.053  13.016 -0.2761  0.2403 -0.0946
16132W        W31263   3.859   0.389  12.228 -0.2776 -0.0541  0.0520
16133W        W31264   6.404  14.818  13.078 -0.0905  0.0949 -0.1134
16134W        W31265   4.004   1.566   1.884  0.0956  0.4349  0.3058
16135W        W31266  13.984  12.302   1.197 -0.0024  0.0098  0.1981
16136W        W31267  15.519  10.293   3.873  0.0075  0.1720 -0.0096
16137W        W31268   5.659  11.660   2.463  0.0808  0.1779  0.1035
16138W        W31269   4.244  16.199  13.432  0.1020 -0.0020 -0.1502
16139W        W31270  18.162  10.497  15.961 -0.3512 -0.1050 -0.2422
16140W        W31271  13.192   5.112  11.314 -0.2802 -0.0216 -0.2037
16141W        W31272   8.066   9.549  14.340 -0.3451  0.0470 -0.1022
16142W        W31273   1.344   0.693   4.261  0.3440 -0.0977 -0.0060
16143W        W31274  11.244  14.554  14.590  0.1879  0.1858  0.0348
16144W        W31275   7.266   8.212   6.144  0.2696  0.0890  0.1959
16145W        W31276   3.665   9.996   0.756  0.1337  0.1799 -0.1313
16146W        W31277  10.063  12.078   5.532 -0.4391 -0.0715 -0.1492
16147W        W31278  14.723   5.193   2.578 -0.2385  0.1523  0.3678
16148W        W31279  13.299   6.026  12.945 -0.1406  0.0095  0.1326
16149W        W31280   8.694   5.548  13.608 -0.0273 -0.1819 -0.3383
16150W        W31281  12.529   9.184  12.715 -0.2255  0.3737  0.3002
16151W        W31282  17.770   5.143   0.728  0.4715 -0.0149  0.0510
16152W        W31283  13.855  11.369  12.496  0.0743  0.0505  0.1409
16153W        W31284   1.052  11.588   4.546  0.0627  0.0690  0.1673
16154W        W31285   7.337  15.173   2.757  0.0403  0.1276  0.0735
16155W        W31286  17.431  16.554  11.925 -0.0044  0.1688  0.3639
16156W        W31287  17.621  12.329  14.570  0.0076  0.1628  0.1053
16157W        W31288  17.610  17.510  15.723 -0.0764  0.1488 -0.1892
16158W        W31289  10.801  11.324  14.616 -0.2208 -0.2368 -0.1079
16159W        W31290  16.104   4.776  12.089 -0.2944  0.0141  0.1479
16160W        W31291  10.740   9.171  14.148 -0.0551 -0.1508 -0.0280
16161W        W31292   8.799  14.017   2.984  0.0859 -0.4868 -0.1928
16162W        W31293   7.720   4.615   3.470  0.0583  0.1956 -0.2605
16163W        W31294   1.000   9.819   4.739 -0.1703 -0.0436 -0.1408
16164W        W31295  14.178   1.209  14.301 -0.2892  0.0426 -0.1176
16165W        W31296   7.087  15.019   3.951 -0.0013  0.0592 -0.0563
16166W        W31297   0.928  15.894  10.124  0.3948  0.0492 -0.1392
16167W        W31298  17.618  14.023  12.308 -0.1990 -0.1062  0.1425
16168W        W31299   3.167  17.488   4.200 -0.1365  0.3355 -0.0588
16169W        W31300   3.105  10.177   3.777 -0.0380  0.0682 -0.1824
16170W        W31301  14.408   0.521   3.398  0.2103  0.3693  0.0267
16171W        W31302   8.094   1.952   4.513 -0.0006 -0.2451 -0.0203
16172W        W31303  13.390  12.241  14.614  0.2379  0.0740 -0.0422
16173W        W31304   7.303   5.077   4.233 -0.1763  0.3767 -0.0705
16174W        W31305  17.049  11.851   3.791 -0.1854 -0.1334  0.0221
16175W        W31306   7.521   7.862   5.686 -0.3128 -0.2571  0.0649
16176W        W31307   3.747  12.914   1.776 -0.4332 -0.0517 -0.1291
16177W        W31308   4.126  15.049  10.664 -0.2447 -0.2862  0.0448
16178W        W31309   7.051  13.164   0.735 -0.2147  0.0542  0.1955
16179W        W31310   0.287  10.600   2.128 -0.3388 -0.0680  0.0195
16180W        W31311   8.054   9.998  12.475 -0.0100  0.1778 -0.3346
16181W        W31312   2.396   0.428  12.291 -0.2565  0.1045  0.0925
16182W        W31313  14.886   7.561  15.027  0.1938  0.3781 -0.1082
16183W        W31314   3.952   0.887   0.631 -0.0446  0.2398 -0.0469
16184W        W31315   7.359   8.214  12.728 -0.0301 -0.1719 -0.1119
16185W        W31316   4.827   8.966  13.260 -0.1915  0.0763 -0.2185
16186W        W31317   6.290  11.565  12.700  0.4156 -0.1260 -0.1397
16187W        W31318   2.392   8.625  15.147  0.5916  0.0663 -0.1788
16188W        W31319   7.562   4.461  12.191 -0.0532 -0.2220 -0.0377
16189W        W31320  16.529   3.055   3.466 -0.3290 -0.1523 -0.2114
16190W        W31321  17.543  18.289  15.080 -0.0678 -0.0072 -0.0245
16191W        W31322   5.846   7.310   5.264  0.1623  0.2169  0.1161
16192W        W31323   3.620  17.233  13.689  0.2115  0.3141  0.0263
16193W        W31324  17.922  15.846   5.069  0.1810 -0.0763  0.2495
16194W        W31325   7.763   9.835  14.579 -0.1390  0.1303 -0.0092
16195W        W31326  12.483   0.302   3.442 -0.0580 -0.0856 -0.3162
16196W        W31327   7.562   1.576   3.079 -0.1674  0.0602  0.3266
16197W        W31328  15.430   6.577   1.288  0.2524 -0.0398 -0.1692
16198W        W31329   6.958   6.415   2.287  0.2875  0.4317 -0.2278
16199W        W31330   4.971   5.530  14.304  0.2014  0.0579 -0.2350
16200W        W31331   8.338  16.610  12.614  0.1562 -0.0677 -0.1374
16201W        W31332  12.288  16.219   0.277 -0.0260 -0.0398 -0.1268
16202W        W31333   3.922  14.631  16.107 -0.2274 -0.0387 -0.0945
16203W        W31334  14.289   7.288   3.274 -0.0781  0.5956 -0.1667
16204W        W31335  17.793  10.024   5.240 -0.2543 -0.0958 -0.0282
16205W        W31336   3.264  16.776  12.272  0.0464  0.1524 -0.0893
16206W        W31337  12.828   2.985   2.507 -0.0194  0.2147  0.0312
16207W        W31338  14.709   3.228  15.950  0.2038 -0.1619  0.1067
16208W        W31339   0.007  18.280  13.451 -0.1326  0.3938  0.0307
16209W        W31340   0.124   1.657   2.736  0.0145 -0.1267  0.2783
16210W        W31341   3.357   1.249  16.034 -0.1538  0.0178  0.0946
16211W        W31342  12.656   9.656   3.220 -0.1496 -0.1329 -0.3557
16212W        W31343  10.287   9.195  14.970 -0.4864  0.0538  0.1592
16213W        W31344  14.702   9.894   3.137 -0.0181  0.3516  0.0726
16214W        W31345  13.197   5.268   2.343  0.0999 -0.3280 -0.0742
16215W        W31346   2.476  15.862   2.088  0.0532 -0.1022  0.0386
16216W        W31347  11.852  14.446  10.783 -0.0374  0.4464 -0.5518
16217W        W31348  14.970   9.672  11.244  0.1270  0.2992  0.3323
16218W        W31349  11.791   8.089  15.492  0.0043 -0.0235  0.1216
16219W        W31350  17.143  13.488   1.081  0.1066  0.1812  0.0369
16220W        W31351   4.139   6.360   4.049 -0.0923  0.0791 -0.0623
16221W        W31352  16.824  14.859   4.267 -0.0502 -0.0797 -0.4769
16222W        W31353   3.973  13.557  13.547  0.1309  0.0835  0.1666
16223W        W31354  11.875  17.257   2.163  0.2245 -0.0082 -0.1348
16224W        W31355  11.555   2.116   2.985  0.0299  0.3236  0.1668
16225W        W31356   7.567   9.879   0.720 -0.3894  0.1481 -0.0636
16226W        W31357   0.988  12.885   9.700 -0.1109 -0.2139  0.1827
16227W        W31358  14.565   9.794   4.451  0.0106 -0.0249  0.1439
16228W        W31359   0.689   1.160   0.199 -0.2453 -0.0451 -0.0742
16229W        W31360   4.159  14.923   2.802 -0.0599  0.1007 -0.1266
16230W        W31361  11.604   4.102   1.948  0.3241  0.0615  0.1322
16231W        W31362   1.555   8.403  15.731  0.0949 -0.0864  0.0489
16232W        W31363   1.909   0.869  10.317  0.1458 -0.3358 -0.1583
16233W        W31364  18.467   0.984   0.096 -0.0272 -0.1058  0.3932
16234W        W31365  14.337  16.657   3.195 -0.1327 -0.0024 -0.1060
16235W        W31366   1.131   7.340  12.364  0.2376  0.3825  0.3817
16236W        W31367   0.565  13.681   1.208  0.2533  0.2357  0.0210
16237W        W31368   4.667  11.229   5.457 -0.3678 -0.3019  0.0148
16238W        W31369   3.182  12.408  16.068  0.1979  0.0827 -0.1929
16239W        W31370  14.914   5.278   0.319 -0.1676 -0.0960  0.0545
16240W        W31371   9.540   8.591   5.328  0.0758 -0.1463  0.0005
16241W        W31372  12.659   3.729   4.990  0.1989 -0.4798  0.1985
16242W        W31373   4.010   2.304   0.958  0.1373  0.0449 -0.1728
16243W        W31374   8.561   8.942  13.708  0.0223 -0.3907  0.1920
16244W        W31375  13.308  13.039  14.166 -0.3376  0.1720 -0.0400
16245W        W31376   7.488   7.117   4.018  0.3163  0.0339 -0.3672
16246W        W31377  12.086  16.516  11.078 -0.0241  0.2787 -0.0955
16247W        W31378   7.944   7.033   3.575  0.1180 -0.2564 -0.1198
16248W        W31379   1.518  15.381  13.353 -0.2015 -0.2269 -0.1299
16249W        W31380  12.810   9.761   3.841  0.2663  0.1374  0.1274
16250W        W31381   7.733   3.736  14.496 -0.1973 -0.0533  0.2854
16251W        W31382   8.581  14.000   3.463 -0.0125 -0.1882 -0.0327
16252W        W31383  15.357   3.455   0.627 -0.1301 -0.0645  0.3103
16253W        W31384  13.867   7.067   2.990 -0.0970  0.0684 -0.0830
16254W        W31385  13.300   0.805   6.010 -0.1225  0.4621  0.3720
16255W        W31386  11.411   0.552  11.373 -0.0069 -0.1594  0.0466
16256W        W31387  17.819  16.426   2.065  0.3011  0.2777 -0.0487
16257W        W31388   0.562   4.700  12.817 -0.2751 -0.0418  0.0479
16258W        W31389  14.018   2.642  13.548  0.0207  0.0357 -0.2261
16259W        W31390  16.591   0.122   3.403  0.2348 -0.1017 -0.0940
16260W        W31391   3.057   6.374   0.494  0.0216  0.0502 -0.1548
16261W        W31392  11.629   5.761  11.879 -0.1460  0.0192 -0.1603
16262W        W31393  16.157  12.479   0.961  0.2428 -0.1092 -0.2419
16263W        W31394   7.642  12.655  12.634  0.1137 -0.2959 -0.0925
16264W        W31395   5.581   3.594   0.157 -0.2729  0.0071  0.0247
16265W        W31396   5.880   2.339   0.420 -0.0473 -0.1079 -0.1190
16266W        W31397   0.798  10.686   3.086  0.0670 -0.0127  0.0498
16267W        W31398  14.890   6.903  15.537  0.1661 -0.0067 -0.2402
16268W        W31399   7.245   3.461  12.459 -0.0624  0.1747  0.0351
16269W        W31400  11.882  11.266   4.938 -0.0242  0.0504  0.0795
16270W        W31401  11.302   2.834   5.287 -0.2321  0.0259 -0.1147
16271W        W31402   1.898  11.424  14.045  0.3609  0.1979 -0.1324
16272W        W31403  17.482  12.361  11.844  0.4059 -0.0293 -0.0204
16273W        W31404   2.297  12.650  13.033  0.1377  0.0854 -0.0519
16274W        W31405   9.690  17.525   1.378  0.1351  0.1788 -0.1761
16275W        W31406   6.439   0.346  10.092  0.1104  0.0106 -0.1283
16276W        W31407   8.403  11.369   0.804 -0.1705 -0.1182 -0.0856
16277W        W31408  12.355  16.553   5.781  0.0934 -0.0183  0.0804
16278W        W31409   2.090  12.105   0.806  0.2054  0.0311 -0.2598
16279W        W31410   3.099   4.313  14.579 -0.3761  0.1130 -0.1962
16280W        W31411  12.488  18.120   1.755 -0.3498  0.0179  0.2363
16281W        W31412   9.798  10.574  15.434  0.1809 -0.0843  0.1857
16282W        W31413  12.876   7.717  13.814 -0.1264 -0.2810 -0.1004
16283W        W31414  12.588   2.340  13.210 -0.0275 -0.0950 -0.1545
16284W        W31415   0.679   9.733   1.053 -0.3785 -0.1527 -0.2328
16285W        W31416   0.248  17.876  12.035 -0.1003  0.3064 -0.1243
16286W        W31417  16.338  15.228   3.921 -0.1266  0.0231  0.1961
16287W        W31418   5.531  11.822  15.522 -0.2082 -0.0678 -0.3607
16288W        W31419   8.787   9.349  15.052  0.2987 -0.0636  0.2102
16289W        W31420   6.903  10.338   0.985  0.1608 -0.1064  0.0007
16290W        W31421   5.314  17.781   4.934 -0.0164 -0.1535 -0.0725
16291W        W31422   6.997   7.595  15.760 -0.0419  0.2707  0.1314
16292W        W31423  17.929  16.872  11.218 -0.1758  0.0234 -0.0995
16293W        W31424  12.990  17.210  15.059  0.1546  0.1257  0.1107
16294W        W31425   9.070   4.933   3.156 -0.0051 -0.3278 -0.2080
16295W        W31426   9.608  14.222  11.421  0.0502 -0.0571  0.1193
16296W        W31427  14.982   1.799   5.594 -0.0318  0.0048  0.2167
16297W        W31428   9.119  14.223   4.496  0.1111 -0.0689  0.2388
16298W        W31429   7.485   6.125   5.763  0.1163 -0.0371  0.2224
16299W        W31430   6.365  12.215  10.830  0.0037 -0.1423  0.1533
16300W        W31431   6.981   7.384  13.274  0.0129  0.1514  0.4800
16301W        W31432   3.636  11.274   0.631  0.0065  0.0709  0.4580
16302W        W31433   9.183  11.367  15.094 -0.2489 -0.3965 -0.0209
16303W        W31434   8.133   2.806  10.814  0.1302 -0.1827  0.1734
16304W        W31435  15.730  12.624   1.776  0.3532  0.0578 -0.3696
16305W        W31436   6.226   2.316   3.159  0.1238 -0.2213 -0.2310
16306W        W31437  10.806   5.191  13.679  0.3641 -0.0644  0.2711
16307W        W31438  13.414   0.622   5.218  0.1558 -0.4121  0.0411
16308W        W31439   0.680   0.527  11.766  0.0158  0.2347  0.6167
16309W        W31440   9.577   0.570   1.958  0.1835  0.1060  0.1443
16310W        W31441   6.074   7.929  13.963 -0.2549 -0.0746 -0.1518
16311W        W31442  14.528  10.553  15.916 -0.1221  0.0728 -0.1290
16312W        W31443   0.143   1.671   2.151 -0.2428  0.3453  0.0298
16313W        W31444  13.182  18.112   0.335  0.2392  0.0625  0.0658
16314W        W31445   5.932  15.895  13.146  0.0395 -0.1900 -0.1638
16315W        W31446  11.262  16.071  14.642  0.1253  0.1932  0.1159
16316W        W31447  16.893   3.930  14.616 -0.1718 -0.1788 -0.1509
16317W        W31448  13.494   4.844  14.095 -0.3273  0.0735  0.0390
16318W        W31449   9.708  14.204  10.816  0.1472 -0.1260 -0.1589
16319W        W31450   5.060  16.167  10.607  0.0286 -0.2245  0.1844
16320W        W31451  10.652  12.477   1.015  0.2087 -0.2509 -0.2252
16321W        W31452  13.799   6.322  14.170 -0.0420  0.0294  0.0307
16322W        W31453  17.787   3.622  14.296 -0.2694 -0.1714  0.0090
16323W        W31454  17.999   3.914  16.102 -0.0536  0.0513 -0.0051
16324W        W31455   1.960   5.473   3.970 -0.0917  0.0477  0.0728
16325W        W31456  11.466   1.965   3.605 -0.0305  0.1296  0.3812
16326W        W31457  17.248   7.197   4.725  0.0651  0.0810  0.2300
16327W        W31458  16.297  17.672  11.035 -0.1174  0.4670 -0.0947
16328W        W31459   1.935   5.609  12.938 -0.0131 -0.0443  0.1598
16329W        W31460   4.909  12.767   2.159 -0.0101  0.2961  0.0668
16330W        W31461  17.080   2.548   2.410  0.1411  0.0200  0.6377
16331W        W31462  12.397   4.947   3.271 -0.1780  0.0696 -0.0852
16332W        W31463  12.729  15.135   5.305  0.0256 -0.3701  0.0020
16333W        W31464   9.440   4.559  10.748 -0.2335 -0.0044 -0.0164
16334W        W31465   4.485   2.402   1.111 -0.0045  0.1708  0.0546
16335W        W31466   1.410   8.585  15.094 -0.3167  0.2443 -0.0634
16336W        W31467   1.898  11.095  12.816  0.0480 -0.1508 -0.1199
16337W        W31468  16.215   6.915  12.185  0.1493  0.0577  0.4468
16338W        W31469   2.924   9.943  12.874 -0.0234  0.1955 -0.1656
16339W        W31470  10.572   6.476   0.573 -0.0747  0.0573  0.2483
16340W        W31471  18.006  13.198   2.287  0.2132  0.0905 -0.2371
16341W        W31472   0.697   5.669  13.219 -0.0487  0.2660  0.1305
16342W        W31473   0.600   0.507   2.626 -0.0631  0.1682  0.0712
16343W        W31474  13.255   8.529  12.462 -0.1438 -0.1093 -0.0635
16344W        W31475   4.729  10.035  14.068 -0.1051  0.0299  0.0894
16345W        W31476  15.393  17.808  12.116 -0.1762  0.1657 -0.3785
16346W        W31477  14.192  13.839   0.298 -0.0817 -0.4505 -0.1407
16347W        W31478  14.229   8.327  13.659 -0.0781 -0.1697 -0.1552
16348W        W31479  12.714   9.831   0.700 -0.2203 -0.0074 -0.0801
16349W        W31480  10.042  12.389   5.962  0.2001 -0.0634  0.2500
16350W        W31481  14.822   9.746  13.518  0.2541  0.1457  0.2208
16351W        W31482  13.983  11.832  12.549 -0.3072 -0.0667  0.1259
16352W        W31483  16.392  17.438   0.263 -0.1256 -0.3217 -0.1341
16353W        W31484  18.100  14.674  10.353 -0.0471  0.1086 -0.1097
16354W        W31485  14.523  10.486   1.595  0.1760  0.2680  0.0410
16355W        W31486   6.551  18.137  10.601 -0.2538  0.2601 -0.4031
16356W        W31487  15.237   4.241   4.888 -0.3177 -0.0662  0.0470
16357W        W31488   9.807   2.758   3.355  0.2157 -0.0279  0.4323
16358W        W31489   7.489   8.207   4.673 -0.1796 -0.0444 -0.3139
16359W        W31490   4.041   4.354   0.325 -0.0236  0.1648 -0.4180
16360W        W31491   1.293  11.637  12.157 -0.2048  0.1424  0.3805
16361W        W31492   4.473  15.322   1.818 -0.1716  0.2476 -0.1188
16362W        W31493   2.085  10.352   4.731  0.2009 -0.1312  0.1975
16363W        W31494   8.723  14.556   1.072 -0.1342 -0.1935  0.0314
16364W        W31495  14.220  12.574  11.248  0.0023  0.0595  0.0719
16365W        W31496   2.728   7.381  13.827 -0.0473  0.0932 -0.0794
16366W        W31497   3.493   1.271  13.179 -0.1422 -0.3778 -0.0037
16367W        W31498  14.085   1.430  13.870 -0.1813 -0.3688 -0.3158
16368W        W31499  13.077  10.129   0.961  0.1848  0.3426  0.3119
16369W        W31500  11.831   4.439  11.503 -0.0294  0.3409  0.0888
16370W        W31501  14.962   7.118  12.525  0.4126 -0.0042 -0.3178
16371W        W31502   3.687   5.471   2.104 -0.0744  0.1184 -0.0982
16372W        W31503   3.554   4.280  15.591 -0.0628 -0.1859 -0.3572
16373W        W31504  13.402  17.038  15.195 -0.0392  0.5334 -0.0834
16374W        W31505  16.800  13.334  14.160 -0.2542 -0.4161  0.0692
16375W        W31506  15.917   7.291  12.506  0.1947  0.1371 -0.2309
16376W        W31507   3.161   3.733   1.367 -0.1094 -0.0465 -0.2071
16377W        W31508   3.044   7.762   3.735 -0.0608 -0.1672 -0.0442
16378W        W31509  13.224   2.847   0.063  0.2142  0.0414 -0.3013
16379W        W31510  18.358  10.225   3.320  0.2223 -0.3198  0.3035
16380W        W31511   7.912  13.269   3.883  0.2063 -0.1256  0.1567
16381W        W31512  12.868   0.298  11.393 -0.3882 -0.2973 -0.2687
16382W        W31513   2.568  18.178  12.056 -0.2373 -0.0675 -0.1652
16383W        W31514   0.819   8.429  10.612 -0.0224  0.0447  0.0825
16384W        W31515   1.349   1.724   1.569 -0.2662  0.0776 -0.1103
16385W        W31516   2.415  17.155   0.766  0.0961  0.2051  0.1552
16386W        W31517   1.078   7.868  12.499  0.1799  0.0969 -0.2282
16387W        W31518  18.236  16.484  10.914  0.0843 -0.1829  0.3046
16388W        W31519  12.601   9.646  12.985 -0.0435  0.1006  0.0948
16389W        W31520  11.429   1.513  13.600 -0.2076  0.3788 -0.3860
16390W        W31521  11.005  16.682   4.656  0.1072  0.1023 -0.1138
16391W        W31522   1.285  16.147  15.420 -0.1821  0.2741  0.1321
16392W        W31523  16.519  13.846  11.794  0.0702 -0.0577 -0.3393
16393W        W31524   7.531   6.404  13.624  0.3179  0.0916 -0.0073
16394W        W31525  16.327   5.085  15.345 -0.1672 -0.1369 -0.2440
16395W        W31526   1.004  18.345  15.678 -0.0787  0.2867  0.1794
16396W        W31527  15.534   3.336  11.529  0.4293  0.2503  0.3807
16397W        W31528   0.667   2.449   2.359  0.1600 -0.0500  0.1352
16398W        W31529  16.338  16.255  14.280  0.0531  0.0141 -0.1435
16399W        W31530   0.962   1.312   2.332 -0.2662  0.0806 -0.2422
16400W        W31531  16.264  16.858   2.313  0.2024 -0.0955 -0.3281
16401W        W31532   3.261   4.876  12.149 -0.0133 -0.0349 -0.1919
16402W        W31533  14.104   0.794   4.624  0.0854  0.1439 -0.1167
16403W        W31534   5.533  14.048  14.055 -0.1935  0.0572  0.0177
16404W        W31535  14.187   8.470   3.757 -0.0540 -0.3161  0.3342
16405W        W31536   5.801  12.237  10.053 -0.2105 -0.0020  0.1232
16406W        W31537   1.027  11.304  11.851 -0.0476 -0.2356  0.2821
16407W        W31538   8.549  14.540  15.499  0.3314  0.0643  0.4652
16408W        W31539   5.120  15.998   1.056  0.2534  0.1530  0.1371
16409W        W31540  13.750   9.649  13.311 -0.0614 -0.0973  0.1123
16410W        W31541   8.930   0.187  14.561  0.1767 -0.0465  0.3426
16411W        W31542  15.978  11.304   4.539 -0.2258  0.1040  0.3007
16412W        W31543  14.681  12.965  10.451  0.1435  0.0723 -0.0004
16413W        W31544  12.801   9.160  15.079 -0.1890 -0.1263 -0.1516
16414W        W31545  12.456  17.701   1.445  0.4816  0.2561  0.2478
16415W        W31546  16.053   6.190  10.617  0.2564 -0.2645 -0.2079
16416W        W31547  11.284   7.974  11.844 -0.0947 -0.0216 -0.1910
16417W        W31548   7.462  12.275   0.844 -0.0512  0.1319 -0.0105
16418W        W31549  14.571  11.822  15.236  0.3615 -0.1357  0.4065
16419W        W31550  11.530   9.031   1.822  0.0153  0.1619  0.1246
16420W        W31551   7.072   6.975   1.361 -0.0053 -0.2056 -0.1039
16421W        W31552   9.545   6.016  12.178  0.1935 -0.0664 -0.0894
16422W        W31553   6.091  16.669   4.932 -0.3424  0.0524  0.2036
16423W        W31554   7.981   3.806  13.632  0.4401  0.0920  0.0918
16424W        W31555   6.912  17.115  14.918  0.1298 -0.1515  0.2925
16425W        W31556   8.264   8.468   3.402 -0.0091  0.0805  0.1089
16426W        W31557   2.337  16.845  13.604 -0.2639 -0.0153  0.0953
16427W        W31558   8.971  12.853   0.163  0.2004  0.0799  0.2337
16428W        W31559   3.794  13.046   9.799  0.0986 -0.1050 -0.2506
16429W        W31560   4.207   7.639   3.823 -0.0784 -0.0181  0.1889
16430W        W31561  15.199  13.336  15.241 -0.0460 -0.2339 -0.0074
16431W        W31562   4.141  15.009  10.188  0.1179  0.1846 -0.1902
16432W        W31563   2.505   8.383  14.083  0.1153 -0.0984  0.1111
16433W        W31564   0.362  15.120   4.116 -0.1954 -0.2097  0.0225
16434W        W31565   3.793  16.108  13.303  0.0959  0.2728  0.2748
16435W        W31566  13.311   5.691   0.783  0.1952 -0.3764 -0.1259
16436W        W31567   6.222  14.040  11.938 -0.1668  0.1764  0.1869
16437W        W31568  11.333   7.854  13.795 -0.1222  0.2600  0.0276
16438W        W31569  11.958   2.860  14.250 -0.0994 -0.0879  0.4051
16439W        W31570  15.318   4.209  13.898  0.3112  0.3704  0.1460
16440W        W31571  18.163   3.760  10.635  0.0253  0.1258  0.0741
16441W        W31572   5.306  12.064   3.024  0.0988  0.2221  0.1350
16442W        W31573  11.118  15.129   4.381  0.4821 -0.1076 -0.0469
16443W        W31574  11.557   9.709   4.399 -0.0726  0.0778 -0.4289
16444W        W31575  11.435   1.771  12.150  0.1911  0.3436 -0.5426
16445W        W31576   0.824  15.344   3.318 -0.1799 -0.0121 -0.0449
16446W        W31577   5.134  15.449   2.959 -0.1008  0.1614 -0.2606
16447W        W31578   7.901  10.908   4.415 -0.1813  0.0458 -0.3524
16448W        W31579  17.594   6.794  14.778  0.0469  0.0720 -0.1361
16449W        W31580  16.100  16.970  14.210 -0.0286  0.1765 -0.1078
16450W        W31581  15.684   8.406  12.763  0.2983  0.0696  0.1044
16451W        W31582   3.811  16.246  10.015  0.2242  0.0773 -0.2878
16452W        W31583  17.193   6.378  14.072  0.1273  0.4858 -0.3415
16453W        W31584  18.196   7.407  15.184  0.4791  0.0278 -0.0483
16454W        W31585  15.144  17.726   2.947  0.2474 -0.0332 -0.2478
16455W        W31586   1.892   0.777  11.173 -0.0781  0.2527 -0.0384
16456W        W31587   0.814  14.477   4.007 -0.0438 -0.1586  0.1842
16457W        W31588  16.203   9.074   3.967 -0.0405  0.0168  0.3735
16458W        W31589   3.480  17.001  13.077 -0.0793 -0.1966  0.3360
16459W        W31590   9.648  15.773  15.589  0.1825  0.0390 -0.2115
16460W        W31591  16.678   9.545   2.488  0.4628  0.1312  0.1386
16461W        W31592   1.057  13.683   4.022  0.0893  0.0720  0.1970
16462W        W31593  13.654  17.312  12.298  0.0603 -0.2492 -0.0468
16463W        W31594   0.172  15.937  15.544 -0.3540  0.0565 -0.0570
16464W        W31595  13.808   1.465  14.471 -0.1217  0.1841 -0.3316
16465W        W31596   2.732   2.636  15.647 -0.0988 -0.1424 -0.0246
16466W        W31597   0.393   7.493   3.069  0.0239 -0.0608  0.0215
16467W        W31598  12.985  16.785  15.297  0.1281  0.3419 -0.0324
16468W        W31599  16.795  11.974   2.579  0.0814  0.4102 -0.3005
16469W        W31600  18.211   1.080  11.073 -0.0600  0.2145 -0.3093
16470W        W31601   6.456  16.772  12.049  0.2751 -0.1134  0.0376
16471W        W31602  11.819  13.862   2.140  0.1363  0.1383  0.0932
16472W        W31603  11.813   7.380   3.675  0.0101  0.1305 -0.0128
16473W        W31604   2.504  18.245   1.488 -0.2537 -0.1331  0.1311
16474W        W31605  11.276   4.574  11.466 -0.0543 -0.3342  0.1928
16475W        W31606   1.428   2.197   9.447  0.0265 -0.0916 -0.3299
16476W        W31607   5.764  16.091  11.843  0.2680  0.3863  0.1671
16477W        W31608   1.458   1.280  11.699  0.0698 -0.0168  0.2977
16478W        W31609   5.007   3.418   3.686 -0.3518  0.1085  0.0218
16479W        W31610  18.189  14.618  12.761 -0.2557  0.1244  0.1321
16480W        W31611  10.764  11.733   0.696  0.2452 -0.2109  0.1283
16481W        W31612  14.402  11.903   5.535  0.3222  0.3844 -0.0130
16482W        W31613   6.057  17.543   0.941 -0.1991  0.3625 -0.0721
16483W        W31614  14.381  15.165  13.923 -0.4162  0.2061  0.2325
16484W        W31615   7.869   9.413   0.843 -0.0484  0.1792 -0.0405
16485W        W31616  11.153   0.047  12.161  0.0554 -0.0772  0.0930
16486W        W31617   7.841   6.043   0.827 -0.0947  0.0777  0.2848
16487W        W31618  12.710  16.970   4.124  0.2981  0.2961  0.2616
16488W        W31619  10.479   3.478   4.929  0.0942  0.2240  0.1163
16489W        W31620   1.097   6.668   0.258 -0.2912 -0.6623 -0.0356
16490W        W31621  17.872  10.125  14.000  0.0128  0.2480 -0.0690
16491W        W31622  12.592   6.961  14.579 -0.0003  0.0164 -0.0398
16492W        W31623  15.574   6.537  15.664 -0.2485 -0.0063  0.2599
16493W        W31624   2.971  15.122  11.806  0.1542  0.0107 -0.0875
16494W        W31625  11.837  10.916   0.597  0.0914 -0.3572 -0.3587
16495W        W31626  12.055  17.676  12.149 -0.1969 -0.1899  0.4857
16496W        W31627   8.498   8.093  14.151  0.0508  0.0443  0.2029
16497W        W31628   2.448   2.846  11.677  0.0229 -0.0538  0.1079
16498W        W31629   9.847  14.659   1.871  0.3062 -0.2414 -0.1365
16499W        W31630   9.459   2.944  12.771  0.1372  0.1745  0.0366
16500W        W31631  14.237  14.876  14.354 -0.0952 -0.1014 -0.1816
16501W        W31632  17.276   0.208  15.806  0.1454 -0.0461 -0.0043
16502W        W31633  12.944   4.867  13.664  0.0596 -0.1380 -0.3947
16503W        W31634  17.691  15.817  14.585 -0.0201  0.0565 -0.1764
16504W        W31635   0.268   3.464  14.725  0.5759 -0.1771  0.1953
16505W        W31636   8.649   2.772  13.723  0.0149 -0.0429 -0.1578
16506W        W31637   7.120  15.236   4.848  0.1845 -0.0399  0.2381
16507W        W31638   6.331  10.409   1.781  0.1537  0.2708 -0.2334
16508W        W31639   3.642  17.687   1.621  0.3664  0.0611  0.0529
16509W        W31640  17.492  13.023  11.217  0.0762  0.2431  0.2564
16510W        W31641  15.488   7.033  15.827 -0.0183  0.4022  0.1386
16511W        W31642  10.921  11.332  12.057  0.3517 -0.2451  0.0594
16512W        W31643  17.350  16.294   1.840  0.0772  0.1780 -0.0281
16513W        W31644  11.382   9.357   0.655  0.1017  0.0432  0.0035
16514W        W31645   9.260  18.232   0.167  0.1133  0.1772 -0.0086
16515W        W31646  13.266  18.005   0.845  0.1186 -0.0615  0.3006
16516W        W31647   5.947   7.052  12.690 -0.3768 -0.3265  0.1399
16517W        W31648   0.803   3.186   1.916  0.3549 -0.2736 -0.1104
16518W        W31649   4.901  13.065   5.675  0.0445  0.2988  0.2601
16519W        W31650   0.875  15.790   0.370  0.2820  0.0170 -0.0506
16520W        W31651   3.783  18.096   2.873  0.0229  0.1925  0.2574
16521W        W31652  11.350   3.746   1.334 -0.2740  0.0688  0.1848
16522W        W31653  15.127  11.266  14.738 -0.0023 -0.1687 -0.0913
16523W        W31654  10.370  13.573   0.084  0.0720  0.2425 -0.1825
16524W        W31655   8.746   3.596   2.523 -0.0885 -0.3431 -0.1538
16525W        W31656   3.043   4.765   1.954 -0.4103 -0.1343  0.1475
16526W        W31657   0.368  13.045   0.545 -0.1260  0.1352  0.0583
16527W        W31658  16.431  14.606  13.187  0.3021 -0.2399  0.0645
16528W        W31659  16.823   7.111   4.943  0.0899 -0.0093 -0.2867
16529W        W31660   1.694  16.910   1.896  0.1688 -0.0250 -0.1956
16530W        W31661   3.443   8.715  13.008 -0.0569  0.1830 -0.2558
16531W        W31662  14.101   0.807  11.544 -0.1406  0.2484 -0.1211
16532W        W31663  14.999   0.105  10.952 -0.0855 -0.2055  0.0552
16533W        W31664   5.041   6.042   4.345  0.1724 -0.0467 -0.1333
16534W        W31665  10.307   6.393   3.685 -0.2424 -0.0813  0.0557
16535W        W31666   3.620   8.139   4.346 -0.3486  0.2620  0.1546
16536W        W31667  14.351   9.796   1.599  0.1224 -0.1997  0.1576
16537W        W31668   4.141   5.812  11.949  0.0347  0.0800  0.0047
16538W        W31669  11.095   8.036   1.347 -0.1833 -0.2404  0.0859
16539W        W31670  15.898   1.825   4.352 -0.0113 -0.1844  0.2308
16540W        W31671  10.354   4.554   3.550  0.0043  0.1159 -0.1022
16541W        W31672  13.340  14.479   4.349  0.1798  0.0413 -0.2665
16542W        W31673  10.446  16.486   5.435  0.0313 -0.4440  0.2291
16543W        W31674   1.156   0.895  10.602  0.1769 -0.3529  0.4815
16544W        W31675  14.426   3.235   1.072  0.1384  0.0493 -0.0299
16545W        W31676  17.298  13.297   9.869 -0.0118  0.2260  0.0465
16546W        W31677   5.646   5.292  10.811 -0.2857  0.2703 -0.3238
16547W        W31678   1.859  11.499   4.059  0.0268  0.2184  0.2021
16548W        W31679   0.150   5.277  11.964  0.0679  0.2841  0.0587
16549W        W31680   1.215  12.333   4.065  0.1759 -0.0227 -0.0564
16550W        W31681  10.500   7.622  15.295  0.0240 -0.3661  0.1800
16551W        W31682   6.318   5.036   2.692  0.0478 -0.1570  0.1702
16552W        W31683  13.689  10.805   0.904  0.1922  0.3212  0.1089
16553W        W31684   9.421  13.100   3.954  0.1309 -0.0257 -0.1402
16554W        W31685   1.102   5.280  13.932  0.2089 -0.2426  0.0909
16555W        W31686   7.955   0.113  15.780  0.2818 -0.1996 -0.3036
16556W        W31687   4.058   5.926  13.339  0.0317 -0.2437  0.0775
16557W        W31688  13.624  12.911   4.484  0.2491  0.3766  0.2281
16558W        W31689   7.971   1.699   2.417  0.0452 -0.0275  0.2806
16559W        W31690  15.434  11.492   4.890  0.0231  0.0282  0.2862
16560W        W31691  17.277   4.539   3.888  0.3201 -0.1924 -0.2160
16561W        W31692   9.904   1.877   4.100 -0.0679 -0.1616 -0.1389
16562W        W31693   9.060  14.015  13.239 -0.1541 -0.2834 -0.4864
16563W        W31694  16.528   3.365   0.791 -0.2173  0.1248  0.0365
16564W        W31695   6.260   7.655   5.496 -0.2465  0.2628  0.1016
16565W        W31696   4.586   3.187   1.421 -0.3062  0.1153  0.3487
16566W        W31697  11.220  18.329   1.341 -0.0037  0.2355 -0.1023
16567W        W31698  17.257   8.851   6.489  0.0945  0.0284 -0.2508
16568W        W31699  10.376   3.168   5.426 -0.4449  0.2616  0.0497
16569W        W31700   9.040  14.869   1.801  0.1231  0.1485  0.2893
16570W        W31701  13.477   3.425  15.753  0.1464 -0.2447 -0.4254
16571W        W31702   9.423  13.356   2.205 -0.2025 -0.0676 -0.2404
16572W        W31703  15.021   4.902  12.075 -0.0528  0.0506  0.1586
16573W        W31704   1.479   8.515   3.962 -0.0986 -0.0436 -0.2508
16574W        W31705   4.558   5.761  12.635  0.0033  0.2445  0.1590
16575W        W31706  16.002   5.770  12.514  0.0022 -0.1734 -0.0229
16576W        W31707  12.632   8.139   2.565  0.0810  0.0379 -0.0547
16577W        W31708   5.242   9.648   2.131  0.1015 -0.2493  0.1660
16578W        W31709   0.084  18.190   0.346  0.0006 -0.4263  0.0357
16579W        W31710   9.580   9.448   0.114 -0.0094 -0.0218 -0.1578
16580W        W31711   1.689  12.523  15.564 -0.0105 -0.0379  0.0624
16581W        W31712  15.889  11.967   2.480 -0.0968  0.3214 -0.0313
16582W        W31713  16.392   0.158  14.894 -0.2860 -0.0793  0.0626
16583W        W31714  15.254   8.463   2.555 -0.1344  0.1250  0.1479
16584W        W31715  15.623  15.527   3.344 -0.2096  0.0332 -0.2100
16585W        W31716  10.286  17.993   2.668 -0.2937  0.2947 -0.0926
16586W        W31717   1.952  10.046   5.144  0.0825  0.1609  0.0289
16587W        W31718   0.646  13.495  12.250  0.2114  0.0653 -0.2041
16588W        W31719  13.727  16.234  13.167  0.4446  0.0546  0.1218
16589W        W31720  15.530  14.221  13.291  0.2739  0.1848 -0.2915
16590W        W31721  16.130  12.460   2.656 -0.1668  0.0197  0.2884
16591W        W31722   5.330   4.976  11.907  0.1142  0.2932  0.1539
16592W        W31723   7.429  13.158   3.684 -0.0408 -0.0145 -0.0885
16593W        W31724   0.772   5.421   0.645 -0.2470 -0.2602  0.0590
16594W        W31725  14.408  15.605  15.028 -0.0602 -0.2129 -0.1805
16595W        W31726   8.971   8.156  14.272  0.2984  0.1461 -0.1162
16596W        W31727   1.793  15.920  10.744  0.0135  0.2747  0.0192
16597W        W31728   6.862   2.017   9.880 -0.1122  0.1480 -0.0861
16598W        W31729   8.660   9.701  11.837  0.0757 -0.0491  0.0996
16599W        W31730   4.374   9.867   0.508  0.1640  0.0383  0.4360
16600W        W31731   3.455  16.111  11.703  0.0865  0.0890  0.1212
16601W        W31732   5.749  10.038   5.677 -0.2017  0.1679 -0.0494
16602W        W31733   4.475  18.350   3.288 -0.0407  0.0640  0.2647
16603W        W31734  12.096   6.788  12.602  0.2868 -0.1184  0.0873
16604W        W31735   1.257  13.885  11.668 -0.0309  0.1317  0.1396
16605W        W31736   4.942  16.162   5.250  0.0827 -0.0423 -0.1504
16606W        W31737   8.352  10.074   0.545  0.2414  0.0512 -0.3187
16607W        W31738   1.198   5.324   1.378  0.0892 -0.4114  0.3562
16608W        W31739   8.572  13.395   1.338 -0.3826  0.0635 -0.0134
16609W        W31740  11.963   4.024   0.911 -0.0415  0.2508  0.1313
16610W        W31741   3.180   1.526  11.255 -0.0727  0.2242 -0.1498
16611W        W31742  16.424  14.083   0.468  0.0884 -0.1405 -0.0952
16612W        W31743   8.714   2.624   2.058  0.0987 -0.1062 -0.2528
16613W        W31744   6.139   3.657  14.995 -0.2506 -0.0857  0.2893
16614W        W31745   0.906   3.896  13.114 -0.2370  0.0070  0.2446
16615W        W31746  10.889  13.039  15.693  0.2710 -0.0000  0.2784
16616W        W31747   4.593  12.191  14.313  0.0335 -0.0510  0.1159
16617W        W31748   1.344   1.292  15.406  0.0168  0.1677 -0.2956
16618W        W31749   4.611   6.991  11.322  0.0883 -0.0852 -0.1191
16619W        W31750   4.648   3.277  10.489  0.3942  0.3295 -0.0146
16620W        W31751   6.760   5.983   0.487  0.0359  0.0466  0.2963
16621W        W31752  12.969  16.595   5.098  0.2429  0.1352 -0.0231
16622W        W31753   2.963   5.976  15.856  0.1555  0.1648  0.3036
16623W        W31754  15.171   3.991   1.220  0.0968  0.0241 -0.2565
16624W        W31755  18.189   6.593  11.279  0.0141  0.0973 -0.0533
16625W        W31756   8.458  17.977   0.578  0.3323 -0.2950  0.4765
16626W        W31757  12.991  14.398   0.819  0.0150  0.3083  0.2459
16627W        W31758  17.614  16.451   5.642  0.2188  0.0402  0.0395
16628W        W31759  10.060  13.303   2.289  0.3192 -0.1758 -0.2423
16629W        W31760   0.461   7.602  13.841  0.1050  0.0021 -0.3420
16630W        W31761  14.706   2.909  13.303 -0.3444  0.0076 -0.0214
16631W        W31762  14.898  12.909   3.533  0.1129  0.0514 -0.1119
16632W        W31763  18.180   2.105   4.438  0.2950 -0.1376  0.1408
16633W        W31764  14.357   1.289  12.540  0.2504  0.0611 -0.1028
16634W        W31765   8.300   5.269   3.455  0.0954  0.1302  0.1721
16635W        W31766   7.617  11.711  12.269  0.2446 -0.0482  0.1897
16636W        W31767  14.814   0.842   4.052 -0.0831 -0.1742  0.1430
16637W        W31768   7.205  13.894   3.931  0.1867  0.1653 -0.1283
16638W        W31769  15.720   0.815   1.128 -0.0008  0.0806  0.1496
16639W        W31770  15.050  17.063   4.891  0.1282  0.0218 -0.4538
16640W        W31771   7.834  17.780   2.896  0.4083  0.1691  0.1635
16641W        W31772   3.493   3.825   2.241  0.1204  0.0910  0.1561
16642W        W31773   3.188   9.691  10.963  0.0106  0.0416  0.3256
16643W        W31774  11.659  17.520   3.035  0.0745  0.0037 -0.0388
16644W        W31775   7.147  10.400   2.939 -0.0099  0.4858  0.2649
16645W        W31776   7.202  14.057  13.515  0.3052 -0.2754 -0.5444
16646W        W31777  10.099  12.819  14.131 -0.1191  0.3056  0.1100
16647W        W31778  17.824  11.842  15.265  0.1970  0.1595  0.0400
16648W        W31779  10.850   1.602   5.578 -0.0574 -0.0718  0.0284
16649W        W31780   4.389  15.743   0.854  0.0578  0.0093  0.2002
16650W        W31781  14.597  16.230   3.276 -0.1825 -0.1534 -0.2340
16651W        W31782  16.805   6.712  14.646 -0.4028  0.1861  0.1977
16652W        W31783   4.589   5.399  13.030 -0.0003  0.0900  0.1972
16653W        W31784  13.262   1.504   3.174 -0.0899 -0.2379 -0.1352
16654W        W31785  14.189   7.034  15.698 -0.1995 -0.0906 -0.0595
16655W        W31786  17.190   3.943   4.215  0.1657 -0.2093  0.1116
16656W        W31787   6.847  10.231   0.391 -0.0382 -0.1461 -0.0738
16657W        W31788  14.971   0.955  13.705 -0.1052  0.1905  0.0626
16658W        W31789   7.090   5.197   0.523 -0.0579 -0.1489  0.0511
16659W        W31790   2.609   9.242   1.139  0.1859 -0.0168  0.1528
16660W        W31791   1.934   7.579  15.791  0.2426  0.0137 -0.0885
16661W        W31792   4.735  10.106   0.222 -0.0584  0.1223 -0.1141
16662W        W31793   1.895   9.817   2.482  0.2781  0.0889  0.0164
16663W        W31794   0.031   1.952   1.651 -0.2107  0.2756  0.0219
16664W        W31795  18.085   2.573  12.711 -0.0440 -0.1101  0.1831
16665W        W31796   8.253   9.982  14.424 -0.0399 -0.2097  0.1826
16666W        W31797  10.027  16.053  12.323 -0.2953  0.0638 -0.2177
16667W        W31798   3.760   8.839  14.993  0.0745  0.3449 -0.1828
16668W        W31799   1.276   8.352  11.671 -0.2162  0.2667  0.0040
16669W        W31800   8.878   1.925  13.530 -0.1591 -0.0511  0.2963
16670W        W31801  10.272   8.096   3.848 -0.0520 -0.4499  0.0711
16671W        W31802   7.927   4.311  14.446 -0.3649 -0.3449 -0.0807
16672W        W31803   4.491  18.015   2.926  0.2557 -0.4556  0.0414
16673W        W31804  17.389   0.718   0.379 -0.1466  0.0176 -0.0634
16674W        W31805  17.184  11.172   2.691  0.1686 -0.1550 -0.0046
16675W        W31806   9.318   3.743  11.579 -0.0897  0.0179  0.1391
16676W        W31807  10.870  11.211  12.592  0.1779 -0.0021  0.1813
16677W        W31808  14.067   3.261   3.214 -0.1234 -0.0756  0.2549
16678W        W31809   7.608  11.416   2.035  0.0010 -0.0575 -0.1717
16679W        W31810   7.742   6.381  12.460  0.0937 -0.0783  0.0662
16680W        W31811   5.134  14.580   4.124 -0.1435 -0.1131 -0.0354
16681W        W31812   5.544  16.211  10.558 -0.0777  0.3413  0.1286
16682W        W31813  15.491   4.192  11.836 -0.0554  0.1556  0.0324
16683W        W31814   9.790  12.259  12.884 -0.1416 -0.1881  0.1648
16684W        W31815  15.533   3.362   5.368 -0.0920  0.3185 -0.0247
16685W        W31816  16.655  17.685  14.650  0.3031  0.0646  0.0640
16686W        W31817  11.036   0.063   4.576  0.0667  0.2774  0.1777
16687W        W31818  11.637   8.723  14.391  0.0135  0.2594  0.2241
16688W        W31819  14.522   6.041   5.296  0.2126 -0.0663  0.1346
16689W        W31820  17.989  15.968  15.895  0.0234 -0.1792  0.0218
16690W        W31821  15.866   0.223  15.802 -0.2447  0.0444 -0.0809
16691W        W31822   3.438   7.382   3.373  0.1768  0.0783  0.3318
16692W        W31823   8.603  12.970   2.061  0.1450  0.2632 -0.0934
16693W        W31824   5.784   6.871   1.303 -0.0150  0.1487  0.0455
16694W        W31825  15.804   5.039  15.898  0.2305 -0.1008 -0.0527
16695W        W31826  15.428   1.433   1.290 -0.2214  0.2299  0.2286
16696W        W31827  15.640  14.294  14.200 -0.0556 -0.0216  0.1095
16697W        W31828  18.191   4.837  16.045  0.0102  0.1434 -0.2025
16698W        W31829  12.170   2.495  11.070 -0.0605 -0.3321 -0.0547
16699W        W31830   7.220   2.089   3.799  0.1097 -0.0663 -0.1163
16700W        W31831   6.000   5.981   3.788  0.1651  0.1575 -0.1276
16701W        W31832   1.368  15.494   1.529 -0.0528  0.0587 -0.2884
16702W        W31833   9.842  17.545  15.230 -0.0914  0.1530  0.2803
16703W        W31834   4.115  14.152   3.828  0.1517 -0.0415 -0.1415
16704W        W31835   6.063  10.575   3.170 -0.1982 -0.0953 -0.1756
16705W        W31836  10.627   1.374  15.354 -0.0110 -0.1522  0.2398
16706W        W31837   2.117  12.485  16.025 -0.2902  0.0617 -0.2067
16707W        W31838   2.287   4.098   1.424  0.1428  0.2520 -0.1365
16708W        W31839  14.414  17.665  13.369 -0.0121  0.1047 -0.1933
16709W        W31840  14.563   7.671   5.095  0.0055  0.0387 -0.2098
16710W        W31841   9.214   7.845   1.604  0.2703 -0.0932 -0.2081
16711W        W31842  16.729  11.270   2.864 -0.3962  0.1448 -0.2809
16712W        W31843   6.052  14.047  13.396  0.0883 -0.0850 -0.1526
16713W        W31844   0.882   5.918   0.535  0.3640 -0.1928 -0.0053
16714W        W31845  17.431  10.010  10.274  0.2009 -0.2440 -0.0616
16715W        W31846  10.392  17.937   5.681  0.1454  0.0207 -0.1967
16716W        W31847  15.736   2.347  12.403  0.6735 -0.2652  0.0519
16717W        W31848  14.058   5.046   0.193 -0.0753 -0.3590 -0.1768
16718W        W31849   1.404   8.945   4.305 -0.0954  0.0510 -0.1137
16719W        W31850   0.369   9.735   5.825 -0.0937 -0.2636 -0.0024
16720W        W31851   3.407   9.555  14.086 -0.0317 -0.2511 -0.0591
16721W        W31852  10.174   1.820  14.079  0.2855 -0.3590 -0.3573
16722W        W31853  11.032   7.600  14.524  0.0179 -0.1050 -0.1454
16723W        W31854   3.464  14.121   2.672  0.0094 -0.2011 -0.1501
16724W        W31855  13.140  12.258   5.907 -0.1744 -0.1381 -0.2836
16725W        W31856   6.734   4.612  14.265  0.3410 -0.0367  0.2853
16726W        W31857  15.470  11.700  12.347  0.1800 -0.0166 -0.0967
16727W        W31858   6.377  10.445  15.852 -0.1087 -0.0890  0.1445
16728W        W31859  13.321   7.116  14.637  0.0716 -0.0424 -0.0143
16729W        W31860   9.181   0.834   5.653  0.1192  0.3354 -0.1065
16730W        W31861  11.301   4.268   0.574 -0.0093  0.0802 -0.4019
16731W        W31862  11.356   1.739   5.403  0.3493  0.3402  0.1160
16732W        W31863  11.281   8.161  15.271 -0.3272 -0.2846  0.0184
16733W        W31864  10.615   4.629  13.031 -0.2363 -0.4814  0.0318
16734W        W31865  13.086  14.777  12.608 -0.2480 -0.4276 -0.2003
16735W        W31866  17.198   2.434  15.869  0.0689 -0.3627  0.1419
16736W        W31867   4.387   1.929   1.499  0.3066  0.1460 -0.2116
16737W        W31868   0.822  15.128  14.109  0.0287  0.1900 -0.0224
16738W        W31869  15.806  10.480  12.882  0.2902  0.1400  0.0785
16739W        W31870   7.164   9.698   0.097  0.1771 -0.1421 -0.0356
16740W        W31871  10.017   8.440   5.205 -0.2879  0.2522 -0.1806
16741W        W31872  13.767   5.409   3.714  0.2004 -0.0552 -0.0671
16742W        W31873   5.786  14.475   0.314 -0.0710  0.0863 -0.2504
16743W        W31874   0.702  16.565  15.604 -0.0883  0.1950  0.0994
16744W        W31875   7.854   7.177  15.796  0.1405 -0.0265  0.0832
16745W        W31876   1.730  15.442   2.872 -0.2234 -0.1322 -0.3213
16746W        W31877  11.146  18.125  13.692  0.4745 -0.0997  0.3100
16747W        W31878   9.595  16.586   0.671 -0.0842  0.2327 -0.1814
16748W        W31879   7.545   1.647   5.480  0.0474  0.3209 -0.1740
16749W        W31880   1.335  13.058  15.607 -0.1783 -0.2128  0.3112
16750W        W31881   5.824   0.595   4.659  0.0002 -0.0892 -0.0493
16751W        W31882  11.254  16.575   1.283 -0.1803  0.0539 -0.3226
16752W        W31883   1.300  16.445   1.913 -0.0598  0.1908  0.1644
16753W        W31884   5.581   5.932   4.068  0.3098  0.1229 -0.0082
16754W        W31885  15.735   6.225  11.448  0.3621  0.3991  0.1263
16755W        W31886   7.859  17.047   0.051  0.0995 -0.1494  0.0052
16756W        W31887   4.114  13.369   6.143  0.0097  0.0778  0.2467
16757W        W31888  16.515  13.290  13.551  0.1161 -0.2705  0.0388
16758W        W31889   9.469  17.596  11.613 -0.1393 -0.1786 -0.0162
16759W        W31890   0.120   9.772   3.123  0.1050  0.0110 -0.0719
16760W        W31891  12.877   7.990   4.552 -0.2052  0.1624 -0.1094
16761W        W31892   3.467  17.111   0.156 -0.0670 -0.3374 -0.3189
16762W        W31893  16.269   7.498   1.062  0.1988 -0.0858 -0.2388
16763W        W31894  10.188  14.075   4.554  0.0797 -0.4130 -0.2989
16764W        W31895   9.992   9.250  15.462 -0.1272 -0.1884  0.2131
16765W        W31896   5.414   4.569  11.292 -0.1007 -0.3277 -0.3025
16766W        W31897   9.337   8.421   5.859 -0.1469 -0.1746 -0.0450
16767W        W31898   3.175   9.679   4.317 -0.2655 -0.1755 -0.0892
16768W        W31899   5.619  12.275   3.718  0.1805  0.0619  0.0142
16769W        W31900   4.698  16.664   0.873 -0.3860 -0.1922  0.4588
16770W        W31901  16.334  16.939   5.176  0.0537 -0.2553 -0.1247
16771W        W31902  13.293  10.785   3.685  0.3404  0.2416 -0.2108
16772W        W31903   9.244  17.951   1.933  0.4743 -0.2187 -0.2537
16773W        W31904  16.523   7.374   2.399 -0.2168  0.1360  0.0851
16774W        W31905  11.633  17.415  15.121 -0.2274  0.0412 -0.1160
16775W        W31906   3.548   0.843   3.607 -0.0904 -0.0054 -0.0850
16776W        W31907   3.935  11.267   2.115 -0.2344 -0.0324  0.1643
16777W        W31908   0.643  10.079   1.470  0.1059 -0.2386  0.0905
16778W        W31909   1.573  16.950  11.152 -0.2594  0.0680 -0.2299
16779W        W31910  18.292  12.838  11.686  0.1272  0.1078 -0.1771
16780W        W31911   2.220   3.948  14.790 -0.3552 -0.1066  0.1744
16781W        W31912   1.131   9.757   6.410 -0.0942  0.1162 -0.0357
16782W        W31913   6.157   2.933   3.982 -0.2201 -0.1326 -0.1702
16783W        W31914  13.653   1.587   0.315 -0.1536 -0.3237 -0.2002
16784W        W31915   3.403  15.049  12.262  0.0076  0.0449  0.1759
16785W        W31916  13.438   4.629  12.513  0.0972  0.1118 -0.0289
16786W        W31917   6.899  10.267  13.351  0.1554  0.1508  0.3871
16787W        W31918   6.342   4.411   4.884 -0.1469  0.3913  0.1474
16788W        W31919  15.095   9.739   4.605 -0.3475 -0.0368 -0.2236
16789W        W31920   4.341   7.941   4.671  0.0329 -0.0976 -0.2933
16790W        W31921   9.377   7.588   2.468  0.1821 -0.2312  0.0975
16791W        W31922   1.966   3.604   0.639 -0.4755  0.1750 -0.0606
16792W        W31923  14.912  16.637   2.378 -0.1397 -0.0440 -0.4847
16793W        W31924  17.601  17.587   3.661 -0.0950 -0.0584 -0.1119
16794W        W31925   6.639  12.545  12.899  0.2508  0.0480  0.1427
16795W        W31926  17.404   1.447  15.026 -0.2096  0.0675 -0.0451
16796W        W31927   5.368  12.484  11.967  0.0945 -0.1448 -0.1468
16797W        W31928   0.036  13.484   3.681 -0.0388  0.1649  0.2607
16798W        W31929  14.739  11.472  12.067 -0.0802 -0.0747  0.0548
16799W        W31930   5.107  11.326   0.714 -0.0116 -0.0272 -0.0073
16800W        W31931   9.191  17.581   1.054  0.2428 -0.1032 -0.0121
16801W        W31932  18.149   0.100   1.092  0.0244 -0.1526 -0.0971
16802W        W31933   9.081   9.051   2.507  0.0178 -0.1623 -0.0058
16803W        W31934   2.637  16.749  10.082 -0.0805 -0.2064 -0.2098
16804W        W31935   3.759   5.840   0.865 -0.0182  0.5953 -0.1745
16805W        W31936  11.974  13.495   4.995 -0.2265  0.0314  0.2261
16806W        W31937  11.614  18.384   4.486  0.0478 -0.0951 -0.0798
16807W        W31938  14.387   4.381  11.674 -0.0445  0.0116 -0.2656
16808W        W31939   5.772   7.681  15.803 -0.3956 -0.0481 -0.3411
16809W        W31940   9.232   0.200  14.121  0.2591 -0.6218  0.0929
16810W        W31941   2.685  13.816   4.230  0.1310 -0.0511 -0.0670
16811W        W31942   8.629  17.655   3.563 -0.1395  0.0048  0.0086
16812W        W31943   4.531   2.124   4.301  0.1359  0.1175 -0.1554
16813W        W31944   0.552   2.797  11.485  0.1324  0.2548 -0.0439
16814W        W31945   1.155  18.149  10.609  0.0841 -0.2058  0.3077
16815W        W31946  13.831  15.698   3.269 -0.1816  0.2944  0.1565
16816W        W31947   7.763   5.159  11.560  0.0388 -0.0145  0.0524
16817W        W31948   4.107  15.019  13.530  0.1446  0.1657 -0.3055
16818W        W31949   5.996   1.272   3.161 -0.2783  0.1103  0.3277
16819W        W31950   3.495   8.164   3.829  0.1436 -0.1354 -0.0143
16820W        W31951   4.702  10.276  10.872  0.1310  0.0633 -0.3095
16821W        W31952  15.384  11.223   1.935 -0.0015  0.0737 -0.1568
16822W        W31953  16.002  10.556   1.502  0.0080 -0.1519  0.2306
16823W        W31954   9.518  16.142   3.460 -0.1532  0.3298  0.2861
16824W        W31955  11.205  11.851   5.204 -0.3849 -0.2071  0.2368
16825W        W31956   0.477  10.651  13.062 -0.1659  0.0125  0.2680
16826W        W31957   6.627   1.145  15.970 -0.0684 -0.1371  0.0682
16827W        W31958  15.963   5.253  11.288  0.0454  0.0993 -0.0649
16828W        W31959  11.323  11.456  12.334 -0.2113  0.0948 -0.2137
16829W        W31960   4.101  17.480   2.440  0.0219  0.2309 -0.0966
16830W        W31961   6.678   7.260   3.291  0.2880 -0.1305 -0.2235
16831W        W31962   9.325   9.777   1.322  0.3217 -0.1142  0.1053
16832W        W31963  14.975  12.179   1.740  0.1258 -0.3344 -0.1640
16833W        W31964   1.207   0.294   3.439  0.1779 -0.2087  0.1789
16834W        W31965   0.727  11.377   1.117  0.1308  0.0542  0.1826
16835W        W31966   0.184  13.588  10.889  0.0523  0.1025 -0.4044
16836W        W31967  12.506  10.043   3.533  0.1152 -0.1023  0.0913
16837W        W31968   1.256   3.900   2.387 -0.1739  0.1737  0.1642
16838W        W31969   5.528  17.344   2.627 -0.0347  0.0877  0.1969
16839W        W31970   2.252  16.480   4.639 -0.0511 -0.1314  0.0769
16840W        W31971   0.677   6.826   0.029 -0.0473 -0.1803  0.0254
16841W        W31972  17.435   5.701  16.046  0.1092  0.0626  0.1599
16842W        W31973   8.253   4.873   5.716  0.0305 -0.2406 -0.1213
16843W        W31974   6.158   1.989  13.038 -0.0678  0.2171  0.3116
16844W        W31975   1.981  14.794  13.770  0.2955 -0.2015 -0.0694
16845W        W31976   8.207  13.380   5.237  0.1895 -0.2979  0.1527
16846W        W31977   2.568   6.021  12.644 -0.0423  0.0061  0.0614
16847W        W31978  17.249  16.901  13.435 -0.4752  0.0772 -0.2520
16848W        W31979   5.597   9.906   4.449  0.0623  0.4551 -0.2619
16849W        W31980  13.759   0.987   4.351  0.0302  0.2164  0.0917
16850W        W31981  10.609   5.782   2.072 -0.1174  0.1551 -0.2481
16851W        W31982   8.684  10.128   4.581 -0.2263  0.1732  0.0486
16852W        W31983   9.458   8.763   2.951 -0.3699  0.1267 -0.3541
16853W        W31984  15.699  11.094   5.787 -0.0812  0.0715  0.3318
16854W        W31985   4.955  11.243   3.206  0.0085 -0.0419 -0.4204
16855W        W31986  11.248  15.503  14.581 -0.2763 -0.0813 -0.1806
16856W        W31987   3.606   7.632   2.965  0.0436 -0.2764 -0.2060
16857W        W31988  11.024   4.551  12.446 -0.2433 -0.0749 -0.2075
16858W        W31989  14.535   8.798  14.276  0.0987  0.3782  0.4830
16859W        W31990  16.933   8.024  15.357 -0.3744 -0.0084 -0.0207
16860W        W31991   0.619   3.472  13.002  0.2159  0.0389 -0.0162
16861W        W31992  11.382  11.589  10.492 -0.0104  0.1092 -0.0067
16862W        W31993  18.467  11.126  15.239 -0.2419  0.1048 -0.1002
16863W        W31994  12.579  15.360   0.626  0.2377 -0.3355  0.0495
16864W        W31995   2.335  12.802   0.226  0.0504  0.2090 -0.0638
16865W        W31996   9.667  16.922   5.169  0.1399  0.0436 -0.0834
16866W        W31997   5.404   3.867  14.403 -0.1857 -0.1165  0.3014
16867W        W31998   2.193  12.680  15.492  0.1376  0.0664 -0.1593
16868W        W31999   9.974  13.067   1.142  0.0656  0.0598 -0.2108
16869W        W32000   6.546  18.472   3.583  0.0795  0.2198  0.0519
16870W        W32001   1.427  14.187  15.458  0.1511 -0.0727 -0.3136
16871W        W32002  13.342   5.781  11.256 -0.1031 -0.0297  0.2480
16872W        W32003   1.463   3.062  11.405 -0.2785 -0.3990 -0.0023
16873W        W32004   6.707   7.321   6.617  0.1253  0.1449  0.3366
16874W        W32005  12.938   5.775  15.313 -0.1437 -0.0273  0.1692
16875W        W32006   3.496  13.910   4.169  0.1847 -0.1200 -0.0230
16876W        W32007  14.367   4.299  12.546 -0.1826  0.3021  0.0173
16877W        W32008   8.094  11.376  15.529 -0.0559 -0.0417 -0.2636
16878W        W32009   2.919  17.538  10.385 -0.1668  0.3651  0.0207
16879W        W32010   0.650  17.163  10.487 -0.1255 -0.1076 -0.1759
16880W        W32011  12.044  12.613   1.688 -0.0451  0.1124  0.4502
16881W        W32012   5.164   5.626   3.994 -0.3180  0.2021 -0.0858
16882W        W32013   3.414   2.743   4.678 -0.1848  0.0029 -0.0111
16883W        W32014   5.875  14.362   4.909 -0.0400  0.0448 -0.1434
16884W        W32015   5.578  10.451  12.502  0.1831 -0.0258 -0.0023
16885W        W32016  11.888   2.629   1.551  0.0104  0.2369 -0.1361
16886W        W32017  18.474  10.731  14.956  0.2065 -0.2240 -0.1240
16887W        W32018  11.670   1.221   5.338  0.2957 -0.0276 -0.4157
16888W        W32019  16.396  16.013   0.087 -0.1050  0.0027 -0.0576
16889W        W32020   7.586   0.562   1.293  0.1198 -0.0035  0.1470
16890W        W32021   8.782   3.093   2.324 -0.2533  0.0661 -0.2161
16891W        W32022   6.513   8.582  12.171  0.1766  0.1197  0.3741
16892W        W32023   6.226   4.305  11.537 -0.0109  0.2521  0.2710
16893W        W32024  10.040   4.114   0.027 -0.0798  0.0355  0.1564
16894W        W32025   7.288  14.192  15.856  0.2323  0.1413 -0.0817
16895W        W32026   2.983   2.098  11.227 -0.1944  0.0842  0.2930
16896W        W32027  16.060  18.156   2.467  0.0402 -0.0947 -0.0937
16897W        W32028  15.376   3.837  11.481 -0.1336  0.3017 -0.0611
16898W        W32029   7.827   8.260  12.891 -0.0248 -0.1871 -0.1747
16899W        W32030  10.192  12.072  14.781 -0.0205  0.0247 -0.2458
16900W        W32031   1.784  16.413  12.285 -0.0829  0.1400  0.0992
16901W        W32032   8.681  16.592  10.200 -0.0557 -0.0621 -0.2100
16902W        W32033   0.076   7.238   0.719  0.0522  0.1308  0.2109
16903W        W32034   9.919   2.201  15.651  0.2655  0.0264  0.2402
16904W        W32035   1.049  15.833  14.972  0.0288 -0.0039  0.0688
16905W        W32036  14.513   8.594   4.142  0.0498  0.1091  0.0525
16906W        W32037  17.034   3.313   5.318  0.0767  0.0288  0.1338
16907W        W32038   7.554   0.998   1.701 -0.2121 -0.1314 -0.3086
16908W        W32039  10.870  12.797   4.176 -0.0620  0.5979 -0.1741
16909W        W32040  14.006  10.121   2.754 -0.0136  0.0449 -0.0582
16910W        W32041  11.402  16.401   3.306 -0.0890  0.0715 -0.2321
16911W        W32042   1.913  16.333   2.641  0.2005 -0.0980 -0.1452
16912W        W32043  15.647   0.056   4.990  0.5653 -0.1415 -0.0330
16913W        W32044   9.419   6.728  13.888  0.0066  0.2740 -0.1696
16914W        W32045  16.593  17.907   3.331 -0.0911  0.0033 -0.0056
16915W        W32046   0.882  15.958  14.340  0.0546  0.0860  0.0810
16916W        W32047  17.358  12.695  13.040  0.3141 -0.0583 -0.0904
16917W        W32048   2.114   6.004  15.225  0.0159  0.1260  0.0565
16918W        W32049  15.525  11.339   0.128  0.2739 -0.2567  0.0898
16919W        W32050   3.036   1.505  13.063 -0.1447  0.0719  0.1247
16920W        W32051   6.978   9.774  13.406 -0.0542 -0.1307  0.4030
16921W        W32052   4.081  11.246  11.804  0.0802 -0.2062 -0.2650
16922W        W32053   4.743  14.506   0.390 -0.1121  0.1114  0.2151
16923W        W32054   2.021   5.756  14.786  0.1531 -0.0249  0.1531
16924W        W32055  15.093   6.217   3.509 -0.0958 -0.2540 -0.3017
16925W        W32056   1.699  11.560   9.859  0.0860 -0.1730  0.1990
16926W        W32057   6.284   0.301   3.230 -0.1173 -0.2992 -0.1411
16927W        W32058   0.272   7.329   1.355  0.0403 -0.4534 -0.0782
16928W        W32059   7.414   8.997  11.082  0.0924  0.0299 -0.0547
16929W        W32060  17.451   8.525  13.271 -0.3058  0.1616  0.1035
16930W        W32061  11.313   8.714  10.635  0.4421  0.2379  0.0971
16931W        W32062   0.751   6.853  14.527 -0.1420  0.0819 -0.0971
16932W        W32063   3.088   3.467   0.552  0.0046  0.0793  0.1671
16933W        W32064  14.513   5.635  15.418  0.4021  0.0634 -0.1831
16934W        W32065  16.611   2.158  14.673 -0.1733 -0.5158  0.0812
16935W        W32066   1.211   2.415  11.027 -0.1783  0.0186  0.2197
16936W        W32067  10.581  14.829   6.161 -0.3988 -0.1509 -0.0385
16937W        W32068  15.473   3.910   0.605 -0.2408 -0.0031  0.0711
16938W        W32069  16.758   2.003   1.953  0.4028  0.0479 -0.1759
16939W        W32070   1.988  15.637   0.908 -0.3294  0.0405 -0.0700
16940W        W32071   2.939  11.569   3.952 -0.0989  0.0203 -0.3549
16941W        W32072  14.601   7.592   6.030  0.1529  0.2263  0.1050
16942W        W32073  14.318   2.518  13.139 -0.3226 -0.1981 -0.1441
16943W        W32074   3.915   3.560   4.520  0.1181  0.0016  0.1418
16944W        W32075  11.761   7.845  14.644 -0.3868  0.2266  0.2781
16945W        W32076   8.550  14.722  11.616  0.0814  0.2488  0.1659
16946W        W32077   3.796   4.748  14.117 -0.2928 -0.1977 -0.2444
16947W        W32078  12.121   9.202  15.314  0.3738  0.1406  0.1879
16948W        W32079   8.498   6.521   1.501  0.3124  0.0039  0.1007
16949W        W32080   9.349   0.323  12.626  0.1759  0.1942  0.0473
16950W        W32081  13.011  12.637  12.091  0.2067 -0.2814 -0.1946
16951W        W32082  17.697   2.826   0.206 -0.2477  0.3386 -0.0958
16952W        W32083   0.831  13.413  12.873  0.2207  0.2660  0.1514
16953W        W32084  17.926   1.257   1.531 -0.0314  0.0767  0.3720
16954W        W32085   1.168  17.560   2.037 -0.1965  0.2048 -0.1572
16955W        W32086   7.647   8.363   4.258 -0.3089  0.2453  0.1559
16956W        W32087  18.455   1.720   4.837 -0.0264 -0.2190  0.3016
16957W        W32088   1.064   5.007  10.974  0.2449 -0.0072 -0.0373
16958W        W32089   2.979   9.018   5.593 -0.0635  0.3820 -0.3865
16959W        W32090   5.760   3.567  11.133  0.1787 -0.1001  0.2058
16960W        W32091   7.355  12.830   5.347 -0.2456 -0.3628  0.5870
16961W        W32092   6.727   4.244   5.117 -0.2608  0.0020 -0.0834
16962W        W32093  12.103   9.020  14.366 -0.0622  0.0285 -0.3243
16963W        W32094  15.504  12.795  10.669  0.2264 -0.1189  0.1443
16964W        W32095  14.937   3.708   2.730 -0.0994  0.0967 -0.2716
16965W        W32096  15.870  13.977   0.743  0.0389  0.1925  0.1600
16966W        W32097  13.653   1.255  13.962  0.0885 -0.2447 -0.2525
16967W        W32098  16.332   7.645   4.326  0.0482  0.1755  0.1268
16968W        W32099  18.276   1.043   0.592  0.0433 -0.0138 -0.0593
16969W        W32100   6.207   0.119   0.458  0.2192  0.1036  0.3860
16970W        W32101  13.823   7.290  14.248 -0.2276 -0.1320 -0.2993
16971W        W32102   1.181   3.092   3.013  0.1829 -0.2901 -0.0253
16972W        W32103  15.315  11.813   4.530  0.1883 -0.0174  0.0236
16973W        W32104   0.873  10.542  13.956  0.0279 -0.0335  0.1183
16974W        W32105  17.313   3.283   3.706 -0.0118  0.1696 -0.3688
16975W        W32106   2.314   8.030  13.093 -0.1897  0.1765 -0.1244
16976W        W32107   4.953   6.617   1.846 -0.0362  0.2850  0.1398
16977W        W32108  14.482   7.023  12.650  0.1648  0.4521 -0.2942
16978W        W32109   4.710  15.023  11.478 -0.0752 -0.2879 -0.1446
16979W        W32110   3.696  11.729   0.878 -0.0452  0.0330  0.1789
16980W        W32111  13.330   2.773   5.316 -0.0760  0.0445  0.2382
16981W        W32112  10.896   4.120  12.194  0.1522  0.0641 -0.2001
16982W        W32113   0.991  17.929   3.049  0.1857  0.0457  0.0694
16983W        W32114   2.956   7.904  11.298 -0.2493  0.2691 -0.1213
16984W        W32115   1.951   6.790   3.948 -0.0935 -0.0567  0.1680
16985W        W32116  11.757   6.437  14.230  0.1089 -0.2908 -0.0702
16986W        W32117   7.803  16.732   5.007  0.2532 -0.2809 -0.3690
16987W        W32118   4.236  14.204   1.218 -0.1444  0.2014 -0.2400
16988W        W32119  14.566   7.388   4.673  0.1108  0.1114  0.0021
16989W        W32120   0.750  11.731  11.888  0.0427 -0.0164  0.2767
16990W        W32121  17.436   1.357  10.575  0.2675  0.0991  0.3453
16991W        W32122   1.669  18.221   0.262 -0.2850  0.2383 -0.0176
16992W        W32123  10.740  13.753   4.026 -0.2730  0.1876  0.1752
16993W        W32124   6.332   7.854   0.592 -0.1279 -0.0880  0.4087
16994W        W32125   0.663  13.653  15.978  0.0369 -0.0092 -0.4807
16995W        W32126  17.837  12.605   0.688 -0.2596 -0.2567  0.2191
16996W        W32127  16.915   2.059   2.414  0.0230  0.0901 -0.1872
16997W        W32128  12.269  14.585   5.191  0.1009  0.0303  0.2679
16998W        W32129   6.221   4.490  12.029 -0.1818 -0.3153  0.2891
16999W        W32130  13.488  16.538  12.176  0.2771 -0.1631  0.0491
17000W        W32131  11.924   1.117   2.007 -0.4827 -0.0601 -0.0902
17001W        W32132   2.804   6.456   2.774  0.0200  0.0782 -0.1229
17002W        W32133  12.047  14.739   1.862  0.0665  0.2273 -0.0821
17003W        W32134  13.732  16.478  12.742 -0.3111  0.1341 -0.0312
17004W        W32135   0.261   4.022  10.101 -0.0570 -0.3482 -0.1456
17005W        W32136   5.786   9.404  11.291 -0.1660 -0.2410 -0.1274
17006W        W32137  11.425   8.563   3.619  0.3044 -0.2356  0.0984
17007W        W32138   5.902   0.617  14.958 -0.3795 -0.0656  0.0710
17008W        W32139   6.507   5.336   3.886  0.1437  0.1748 -0.1456
17009W        W32140  13.035   1.697  15.614 -0.1165 -0.0865  0.1947
17010W        W32141   1.891  11.440  14.835  0.2595  0.0303  0.1530
17011W        W32142   4.563  17.097  15.265  0.3464 -0.0297 -0.1682
17012W        W32143  17.543   3.559  11.993  0.1770  0.0010  0.1760
17013W        W32144   4.109   0.503   9.591  0.1885 -0.1479  0.1166
17014W        W32145   9.541  17.539  15.608 -0.0504 -0.1135  0.0769
17015W        W32146   2.145   2.241  12.989 -0.0151  0.2114 -0.2492
17016W        W32147  12.927   8.077  15.165 -0.0206  0.1160  0.1003
17017W        W32148  18.100   6.834   1.626 -0.1599 -0.4326  0.0110
17018W        W32149  11.690   1.138  12.783 -0.0536 -0.1687 -0.4204
17019W        W32150   5.419   5.029   1.475 -0.0248 -0.1025 -0.0847
17020W        W32151   6.997  18.292   0.363  0.1343 -0.1661  0.0136
17021W        W32152   3.807  15.397  12.077  0.0224 -0.0104  0.1806
17022W        W32153   0.455  14.982  10.663  0.1849  0.2068 -0.4478
17023W        W32154   7.876  17.842  12.732  0.0633  0.3490  0.3074
17024W        W32155   3.251  16.623   2.331  0.2212 -0.0976  0.0993
17025W        W32156  14.911  11.783  11.298 -0.0057 -0.1104  0.1831
17026W        W32157   8.956  11.055   2.019  0.2453 -0.0117  0.0207
17027W        W32158   5.295   5.711  11.457 -0.0884 -0.2327  0.1963
17028W        W32159   4.569  17.706   9.620 -0.1968  0.3884 -0.0057
17029W        W32160  12.565  10.430  15.949 -0.1644  0.1208 -0.0330
17030W        W32161   7.315  10.820   2.580 -0.1028  0.1005  0.1259
17031W        W32162  16.518  16.735  11.670  0.4081  0.1819 -0.1506
17032W        W32163  13.135  17.038  15.669 -0.0513 -0.0642 -0.2542
17033W        W32164  15.630   9.116  13.273  0.0745  0.1753  0.2035
17034W        W32165  18.136   5.164  12.216 -0.2255  0.1404 -0.0930
17035W        W32166   5.416   3.940  11.035 -0.3225  0.1416 -0.0798
17036W        W32167  15.558   8.065   1.083  0.0820  0.1686  0.1058
17037W        W32168   0.223  16.453  12.818 -0.0405 -0.1396  0.2014
17038W        W32169  14.077   8.406   2.974  0.0927 -0.1198 -0.0359
17039W        W32170   2.903   6.674   3.851  0.0887 -0.0501 -0.1981
17040W        W32171  18.446  15.302  12.167  0.0732  0.3329 -0.1231
17041W        W32172   2.932  15.394   0.903 -0.0314  0.2862 -0.2477
17042W        W32173  10.270   3.262   0.665  0.1971 -0.1254 -0.0078
17043W        W32174  12.819   3.923   0.804 -0.1665  0.0019  0.2921
17044W        W32175  14.095  15.795  12.050  0.0258 -0.1406 -0.0801
17045W        W32176  11.644   9.399   2.166 -0.1433 -0.0820 -0.0124
17046W        W32177  14.075   3.546   0.965  0.0011 -0.0515 -0.1632
17047W        W32178   8.139  10.969  11.526  0.2313  0.0401 -0.1935
17048W        W32179  18.278   1.760  13.868 -0.1737  0.0114  0.1238
17049W        W32180   3.487   5.011  13.366  0.0391 -0.1069  0.0315
17050W        W32181  18.091   5.231   2.783 -0.1517 -0.0035 -0.0410
17051W        W32182  16.210   1.984   1.630 -0.2290  0.1329 -0.1466
17052W        W32183  16.041   5.916   2.189  0.0850 -0.2130  0.1357
17053W        W32184  16.802   7.794  11.884  0.4501 -0.1463 -0.0155
17054W        W32185   4.866   9.433   3.937 -0.0852  0.0816 -0.2404
17055W        W32186  16.088   9.603   3.891 -0.2558  0.1474 -0.2602
17056W        W32187   0.636  17.580  15.232  0.1408  0.4446  0.2431
17057W        W32188  11.911   1.755   3.149 -0.1655  0.2556  0.1703
17058W        W32189  10.566   1.884  11.429 -0.0947 -0.4825 -0.1409
17059W        W32190  13.727   9.038  14.115  0.2642  0.1904  0.1417
17060W        W32191  18.143  14.512  10.921  0.3372 -0.1908  0.2507
17061W        W32192  14.170   0.586   5.128  0.0243 -0.1166  0.0050
17062W        W32193   0.265   9.395   2.791 -0.2420 -0.4987 -0.0868
17063W        W32194   1.903   9.873   4.604 -0.2383  0.2116  0.0633
17064W        W32195   8.720   0.737  12.914 -0.0187 -0.2194  0.0415
17065W        W32196   3.250  11.931   2.208 -0.2683 -0.3032  0.2525
17066W        W32197   6.581  17.435  15.091 -0.0605  0.1767  0.2074
17067W        W32198  15.344  14.296   3.760 -0.0186  0.0662  0.2586
17068W        W32199  11.065   8.730   0.022 -0.0475  0.0089  0.3998
17069W        W32200   7.988  14.521   1.444 -0.2697 -0.2562 -0.1853
17070W        W32201  17.751  17.536  13.630  0.0360 -0.3522  0.1381
17071W        W32202  10.850   9.803  15.795 -0.3384 -0.1385  0.0415
17072W        W32203  12.967   1.246   0.928  0.1188 -0.1509 -0.0920
17073W        W32204   9.507   2.471  12.985 -0.1040 -0.2251  0.0080
17074W        W32205   2.609   9.090   0.691 -0.1138 -0.1176 -0.2326
17075W        W32206   9.601  10.633  10.753 -0.2753 -0.0847  0.2076
17076W        W32207   4.317  14.782  15.071  0.1172 -0.2881 -0.1854
17077W        W32208   1.485   6.592  16.053  0.0706 -0.1426 -0.1878
17078W        W32209  18.439  16.078  11.168 -0.0977  0.1040 -0.1092
17079W        W32210  10.906   8.723   1.026 -0.0588  0.2085 -0.0349
17080W        W32211  11.928   1.867   5.108  0.0256 -0.1531  0.0558
17081W        W32212   3.391   8.878   0.119 -0.0160  0.3443  0.0372
17082W        W32213   6.825   9.003  11.271 -0.0364 -0.0546 -0.0811
17083W        W32214   4.160  16.826   3.720  0.0138  0.3360 -0.0975
17084W        W32215  12.692  18.335   4.601 -0.1196 -0.3330  0.0734
17085W        W32216  10.308   8.858  15.753 -0.1882 -0.2339  0.0015
17086W        W32217  15.980   8.752  13.099  0.2237  0.2761 -0.0527
17087W        W32218   6.489   4.355  15.615 -0.3544 -0.0453  0.0438
17088W        W32219  17.334  13.673   1.515 -0.0935 -0.2274  0.0358
17089W        W32220  10.416   6.622  13.297  0.1578  0.2192  0.2728
17090W        W32221  10.223  15.218  15.546 -0.0732 -0.1504  0.0987
17091W        W32222   0.846  11.787  12.854  0.2733  0.0309 -0.0700
17092W        W32223   1.319  16.611  12.170 -0.1220 -0.2357 -0.1217
17093W        W32224  16.039  17.399  15.863  0.0557  0.2281  0.0084
17094W        W32225   3.191  10.159   5.429  0.1663 -0.1113  0.1225
17095W        W32226  10.844  18.431  16.064 -0.3358 -0.3760  0.0680
17096W        W32227   7.451   1.490   0.902 -0.2069  0.0802  0.0818
17097W        W32228  17.161  17.520   1.932  0.2438 -0.0035 -0.1382
17098W        W32229  10.830   8.418  11.250 -0.1534 -0.2450 -0.0746
17099W        W32230   3.962  11.799   4.134  0.2076 -0.1726 -0.1899
17100W        W32231  11.736  16.869  11.026  0.1253  0.0410  0.0403
17101W        W32232   1.192   4.966   4.657  0.2789  0.1561  0.3113
17102W        W32233   1.877  10.602   1.072  0.0810 -0.0561 -0.3347
17103W        W32234  15.042   2.864  12.347  0.2385  0.0444  0.2060
17104W        W32235   9.882  15.091   0.984 -0.0358 -0.0911  0.0313
17105W        W32236  12.746   7.527   2.108  0.1429  0.0300 -0.3133
17106W        W32237   9.666   5.563   0.787  0.1695  0.0903 -0.3805
17107W        W32238  11.978   1.533   2.340  0.0069  0.1665 -0.1609
17108W        W32239   8.915   4.903  15.752  0.0193 -0.0822  0.1718
17109W        W32240   4.524   4.731   2.992 -0.0573 -0.0518 -0.2654
17110W        W32241   2.866   1.450  15.630  0.1635 -0.0261 -0.1708
17111W        W32242  13.262   5.438  12.144 -0.3866 -0.1347 -0.1725
17112W        W32243  18.351   6.047  15.583 -0.1633 -0.1787  0.0177
17113W        W32244   1.380   2.596  11.525 -0.2704 -0.0159  0.2996
17114W        W32245   0.754   2.265   2.990  0.0239 -0.0834 -0.0063
17115W        W32246   3.164  17.777   2.508 -0.0595  0.2509 -0.0464
17116W        W32247   3.777  17.622   3.274  0.2633 -0.1339 -0.2366
17117W        W32248  13.821  17.049   3.698  0.1853  0.0541 -0.3520
17118W        W32249  17.339   7.391   0.014  0.0584 -0.0071  0.0111
17119W        W32250   5.295  10.418   1.269 -0.0248  0.4609  0.0177
17120W        W32251  11.104  14.083   3.854  0.0179 -0.0756 -0.0702
17121W        W32252  13.916   5.782  12.115 -0.2541  0.0491 -0.0581
17122W        W32253   8.667   1.988   3.628 -0.2845  0.0357  0.1337
17123W        W32254   6.991   6.296   1.790  0.2844  0.0946  0.0611
17124W        W32255   1.517  15.687   2.419  0.0353  0.2626  0.1681
17125W        W32256   9.423   8.225  12.796 -0.2102  0.0921 -0.1474
17126W        W32257   7.368  10.806  12.620 -0.5565 -0.3149 -0.0561
17127W        W32258   4.334   7.041  13.954  0.0187 -0.1708 -0.2106
17128W        W32259   6.324  11.128   2.351 -0.4115  0.1892 -0.0162
17129W        W32260  15.097   7.490   3.437  0.2342 -0.0361 -0.1330
17130W        W32261   2.468   2.013   3.620 -0.1735  0.4393  0.2930
17131W        W32262   4.541   8.526   5.295  0.4278  0.1631 -0.2685
17132W        W32263  15.466   0.523  15.457 -0.0485  0.0631 -0.0984
17133W        W32264   9.387   7.449   5.567 -0.1651  0.0242 -0.0753
17134W        W32265  15.777  17.659   3.912 -0.0571 -0.2347 -0.0774
17135W        W32266  10.769   3.575   1.212 -0.2658 -0.2689 -0.1374
17136W        W32267   3.604   3.413   3.585 -0.2175  0.0372  0.0415
17137W        W32268   7.762   4.353  15.214  0.1130 -0.1367  0.3167
17138W        W32269   4.244  15.492  12.767  0.1143  0.3291 -0.3289
17139W        W32270  10.992  14.678   3.085 -0.0543  0.2221 -0.1031
17140W        W32271   1.877   4.184  13.016  0.1375 -0.2322  0.1660
17141W        W32272  15.744  15.970   4.714 -0.1302  0.1228  0.0119
17142W        W32273  16.089  16.327  14.792 -0.1431  0.0799  0.1186
17143W        W32274   9.861   3.289   3.444  0.0770  0.3874  0.0233
17144W        W32275   6.288   8.299   4.016  0.1647 -0.1296  0.3189
17145W        W32276  11.471   4.878  11.743  0.1360  0.3026  0.1866
17146W        W32277  17.784   3.070  13.168  0.2484  0.1508  0.0890
17147W        W32278  16.957  12.319  13.426 -0.2605  0.2409 -0.0625
17148W        W32279   6.063  16.421  14.721  0.0221 -0.0406 -0.2237
17149W        W32280   6.999  15.011   0.437 -0.4380 -0.0835 -0.1514
17150W        W32281  12.358  16.376   0.753  0.0219 -0.2435  0.1059
17151W        W32282  10.764  15.773   2.060  0.0329 -0.1186  0.2010
17152W        W32283   5.082  14.737   3.633  0.0909  0.2187  0.1615
17153W        W32284  11.424  12.459   3.559  0.1149 -0.0491  0.0941
17154W        W32285  17.327  14.411   0.511  0.5230 -0.0893 -0.0504
17155W        W32286   4.075  16.948  13.767 -0.0168  0.1590 -0.0781
17156W        W32287  12.373   9.700   4.736 -0.0776  0.0980  0.0933
17157W        W32288  14.231  11.906  13.031  0.0347 -0.2144 -0.0290
17158W        W32289   1.514   3.515  13.806  0.1005 -0.2705 -0.0580
17159W        W32290  14.937  12.614  15.304  0.1272  0.0940  0.0593
17160W        W32291  15.670   7.227   5.837 -0.1861  0.2691 -0.1842
17161W        W32292   8.698   3.584   1.540 -0.3741  0.0450 -0.0179
17162W        W32293   8.611  10.180   5.325  0.0055  0.0072  0.0810
17163W        W32294  18.079   4.944  13.098  0.1585 -0.0283 -0.1530
17164W        W32295  15.046   2.386   2.782 -0.2310 -0.0398  0.3261
17165W        W32296   6.635  17.293   0.566  0.2001 -0.0594  0.1260
17166W        W32297   7.952  11.450   0.370 -0.1338  0.1196  0.0860
17167W        W32298   5.513   5.215  15.622 -0.0449  0.1887  0.0368
17168W        W32299   3.089  14.043   4.381  0.0167  0.0906 -0.0377
17169W        W32300   3.508  12.512   0.996 -0.2530 -0.0405  0.4342
17170W        W32301  10.111   9.867   4.930 -0.2133  0.1173  0.4702
17171W        W32302   5.952   9.176   4.448 -0.1493  0.1166 -0.2288
17172W        W32303   4.994   6.492  15.327  0.0532 -0.1283 -0.2148
17173W        W32304   3.436  16.243  10.356 -0.0519 -0.2798 -0.0455
17174W        W32305  10.128   3.103   1.718  0.1468 -0.0972  0.3776
17175W        W32306  11.379  18.051   4.169 -0.3090 -0.4692  0.1452
17176W        W32307  11.920  11.006   2.879 -0.0194  0.0646  0.1363
17177W        W32308  17.507   6.970  12.783  0.1864  0.2935 -0.1273
17178W        W32309   4.350   9.675  12.241  0.1452  0.1863  0.0051
17179W        W32310  12.577   7.186  13.987 -0.0861  0.1405  0.0915
17180W        W32311   6.253   4.991   4.132 -0.0949  0.0493  0.0858
17181W        W32312  10.419   8.645   3.122  0.0728  0.0415 -0.2425
17182W        W32313  13.952  15.933   1.912 -0.1167  0.4801 -0.0556
17183W        W32314   5.077  15.853   4.733  0.5653  0.2078  0.0981
17184W        W32315   7.271   8.686  12.563 -0.0277 -0.0757  0.0857
17185W        W32316   3.429   4.783  11.100 -0.4191  0.1198 -0.0566
17186W        W32317  16.005  18.482   4.643  0.0969 -0.1993  0.1973
17187W        W32318   3.466  15.663  11.269  0.1667  0.0256 -0.1938
17188W        W32319  10.366  18.127  13.031  0.0917  0.2917 -0.0258
17189W        W32320   8.515  18.141  12.564  0.2505  0.0310 -0.1419
17190W        W32321   6.274  18.134   0.218  0.0228  0.1928 -0.0274
17191W        W32322  10.931  15.080  14.446 -0.0771 -0.1187  0.2108
17192W        W32323  14.919   5.648  13.384 -0.1572 -0.2451 -0.2892
17193W        W32324   3.285  11.483  14.148 -0.1194 -0.0340  0.1378
17194W        W32325   2.068   2.921   3.384 -0.0464 -0.1539 -0.1453
17195W        W32326   0.661   8.656  14.251 -0.1113 -0.0254  0.1427
17196W        W32327  15.407   9.589   2.588  0.0629 -0.2049 -0.0254
17197W        W32328   8.300  15.991  13.744 -0.2927 -0.2907  0.1796
17198W        W32329   8.766  13.888   5.655 -0.1799  0.2844 -0.3520
17199W        W32330  12.711  10.045   0.161  0.0520  0.0645 -0.2599
17200W        W32331   9.392  15.918   4.924  0.3860 -0.0194 -0.1405
17201W        W32332   4.805   6.879   3.634  0.1334  0.3994  0.2148
17202W        W32333  13.763  13.240   1.002 -0.0258  0.3015 -0.1355
17203W        W32334  12.823   7.624  15.369  0.0930 -0.2361 -0.2019
17204W        W32335  15.408  13.805   4.597  0.0309 -0.1855 -0.2687
17205W        W32336  14.221   6.783  12.230 -0.2399 -0.2200 -0.1721
17206W        W32337  15.888   6.008  13.922  0.1572  0.0736  0.0709
17207W        W32338   2.566   7.024   1.842 -0.0887 -0.2103  0.3344
17208W        W32339   0.078   6.043   1.557 -0.1064  0.4603 -0.3675
17209W        W32340   7.094  10.226  13.844  0.1184 -0.0394  0.3047
17210W        W32341  11.857   5.902  14.897  0.0661  0.2060  0.0073
17211W        W32342   3.590  12.078  14.820  0.0830 -0.0734 -0.1420
17212W        W32343   3.129   4.563   1.362  0.0869 -0.0431  0.1624
17213W        W32344   3.513   9.461  14.695  0.0018  0.0416 -0.0899
17214W        W32345   2.514  10.918  14.193 -0.3413 -0.1171 -0.0007
17215W        W32346   0.805  11.222   9.931  0.1931  0.2402  0.1225
17216W        W32347   4.134  15.711  13.359  0.3311 -0.0483 -0.0654
17217W        W32348   4.588  14.746  10.747 -0.0791 -0.0332  0.4264
17218W        W32349   2.549   0.892  12.431  0.2267 -0.0450 -0.0517
17219W        W32350  14.144   5.408   4.737 -0.0856  0.1572 -0.2206
17220W        W32351  17.916   7.082  11.782 -0.1278  0.0182 -0.0539
17221W        W32352  15.598  16.088  14.675  0.0247 -0.0790 -0.0690
17222W        W32353   1.783  11.687   2.043 -0.0284  0.2690 -0.0054
17223W        W32354  13.784  17.858  11.493  0.0488 -0.0532 -0.1736
17224W        W32355   0.976   3.853   4.174  0.4349 -0.0639 -0.2588
17225W        W32356   6.561   5.339  12.749 -0.1458  0.2306 -0.3503
17226W        W32357   6.610   8.953  13.331  0.0057  0.0438  0.1562
17227W        W32358   4.047   3.156   2.531  0.1421 -0.1851 -0.1984
17228W        W32359   6.737  16.829  11.092 -0.0750  0.1492  0.4648
17229W        W32360   2.630  17.495   3.144 -0.1260  0.2151 -0.0182
17230W        W32361   8.074  18.484  14.405 -0.1630  0.4255  0.0346
17231W        W32362   5.269   4.698   2.683  0.0731 -0.0197 -0.0169
17232W        W32363  15.362  15.446   4.270 -0.0329  0.0230  0.1473
17233W        W32364   6.050  16.816  13.650  0.0629  0.1414  0.2029
17234W        W32365   0.408   2.396   1.062 -0.2175  0.0022 -0.1762
17235W        W32366   1.786  10.684  15.357  0.2321  0.2680 -0.0647
17236W        W32367   6.821   1.021   4.230 -0.3106 -0.1150 -0.0314
17237W        W32368  14.006   0.955  10.685 -0.1627  0.2119 -0.3335
17238W        W32369   6.773  16.370  13.919 -0.3055  0.2722 -0.1006
17239W        W32370  17.755   7.284  15.944 -0.2306 -0.2064 -0.3882
17240W        W32371   6.736   1.528  14.207 -0.1275 -0.4130 -0.1180
17241W        W32372   1.157   9.625  11.871  0.1583  0.6049  0.1133
17242W        W32373  15.369   6.753  13.541 -0.0857 -0.1971 -0.1718
17243W        W32374   6.575   9.538   3.271  0.0127 -0.1903 -0.3743
17244W        W32375  18.430   0.571  11.326  0.0604 -0.0396 -0.3657
17245W        W32376  11.084  16.403  10.070 -0.1746  0.2888  0.1209
17246W        W32377  16.489  14.188  12.199  0.0447  0.1016  0.0914
17247W        W32378   5.515   0.437  11.494  0.0975  0.1474 -0.2977
17248W        W32379  14.117   4.336   1.056 -0.0861  0.2011 -0.2300
17249W        W32380  11.028   5.703   6.193 -0.1649 -0.1099 -0.0784
17250W        W32381   5.075   6.467  15.943 -0.2422  0.0512  0.1923
17251W        W32382  10.101   6.314   6.222 -0.1142 -0.1543  0.2977
17252W        W32383   8.708  10.518  15.458 -0.0296  0.1475  0.0883
17253W        W32384  14.678   0.852  15.409  0.0353 -0.0483  0.0117
17254W        W32385  13.838  16.138  10.694 -0.0662 -0.0279  0.0577
17255W        W32386  10.661   6.890  12.886 -0.2385  0.2772 -0.1792
17256W        W32387   5.699   5.394   5.635  0.0606  0.2790  0.4333
17257W        W32388   9.846  15.994  15.976  0.1682 -0.2112  0.0270
17258W        W32389  13.608   7.018   1.700 -0.1048 -0.3103  0.1992
17259W        W32390  17.648  10.706  13.878  0.2674 -0.2278 -0.1773
17260W        W32391   9.712   3.654   0.721 -0.0482  0.1565  0.0062
17261W        W32392   6.814   1.675  13.133  0.0871 -0.4140 -0.1494
17262W        W32393   0.755  11.336   4.009  0.1107 -0.0442  0.1439
17263W        W32394   5.802  12.768  11.904  0.0005  0.3618 -0.0350
17264W        W32395  11.294  11.377  11.442 -0.0759 -0.1405  0.2661
17265W        W32396   5.572   4.340   3.110  0.1024 -0.0829  0.0388
17266W        W32397   2.229  17.355  11.733 -0.2569  0.1467  0.0907
17267W        W32398   6.999  10.320  10.721 -0.0624  0.0564 -0.5532
17268W        W32399  14.635  11.568  12.923  0.2441  0.0283 -0.1392
17269W        W32400  12.345   2.570   4.518  0.1254 -0.1457 -0.0814
17270W        W32401   5.572  12.429   3.267  0.1487 -0.0649  0.5086
17271W        W32402  10.007   5.077   1.796 -0.2268 -0.3027 -0.2777
17272W        W32403   6.502  13.534   3.746 -0.0242  0.0772 -0.1932
17273W        W32404  10.620   8.534   4.075  0.0143 -0.0264  0.0668
17274W        W32405  16.486   4.209   6.224  0.0195  0.1134  0.1806
17275W        W32406   1.387   5.111  13.115  0.1145 -0.0376  0.3778
17276W        W32407  12.037   5.246  15.682 -0.1078 -0.2162 -0.0948
17277W        W32408  10.780   8.786  12.622  0.1112 -0.3055  0.0297
17278W        W32409  17.266  13.165  12.821 -0.0707  0.1911 -0.1334
17279W        W32410   6.314  10.142   4.001  0.2202 -0.0368 -0.1325
17280W        W32411  11.542   9.447  11.789 -0.0071  0.2214  0.1032
17281W        W32412  13.646   0.887   2.361  0.3170 -0.3021  0.0349
17282W        W32413   4.148  14.163  11.418 -0.2790 -0.2373 -0.0208
17283W        W32414  14.518   3.472   2.857  0.1733 -0.4377  0.3414
17284W        W32415   7.030  12.627   0.945 -0.2406  0.0032 -0.0516
17285W        W32416   9.414  10.666   4.101  0.1322 -0.1227 -0.2488
17286W        W32417   6.144  16.898  12.878 -0.4625  0.0523 -0.0888
17287W        W32418   3.214   0.965  10.643 -0.1152 -0.1631 -0.1661
17288W        W32419  17.891   1.050   2.538  0.1202 -0.1736  0.2860
17289W        W32420   7.904   7.403   3.979 -0.2286  0.0849 -0.0648
17290W        W32421   6.801   1.606   0.111 -0.1000 -0.0476  0.1630
17291W        W32422   5.176   0.430   2.494 -0.0564 -0.0884 -0.0217
17292W        W32423  16.220  10.520   4.560  0.2081 -0.1229 -0.0552
17293W        W32424  17.773   1.489  13.755 -0.3676 -0.2095  0.0796
17294W        W32425  16.699   1.799  10.834  0.0120 -0.0328  0.0142
17295W        W32426   3.381   8.825   3.093 -0.0094 -0.0497 -0.1046
17296W        W32427  15.268  15.636   2.525  0.0953  0.0581  0.2744
17297W        W32428   6.683   2.815   1.137  0.2867 -0.1700  0.2233
17298W        W32429  13.825   5.710   2.703  0.1119 -0.0268 -0.0090
17299W        W32430   4.791   5.333   2.176 -0.3451 -0.1973  0.0731
17300W        W32431   5.832  17.284  10.979  0.1258  0.0482 -0.5023
17301W        W32432   3.906   2.867  14.832  0.1343  0.0149  0.1947
17302W        W32433   4.719  12.446  14.706 -0.0279  0.2933 -0.2295
17303W        W32434   5.798  15.087   5.329  0.0611  0.1221  0.2366
17304W        W32435  14.349  16.617  11.964  0.0702 -0.1381 -0.0110
17305W        W32436  14.587  17.103   5.886 -0.0584 -0.2176 -0.0218
17306W        W32437  11.719  15.178   1.171  0.0164 -0.1211 -0.1818
17307W        W32438   4.590  13.961  15.809  0.2270 -0.1082  0.2096
17308W        W32439   4.076   0.241  14.323 -0.0131  0.1434 -0.0726
17309W        W32440   1.485   8.438  14.627  0.0461  0.2194  0.1582
17310W        W32441  15.054   8.308  11.831  0.0074 -0.4544 -0.0352
17311W        W32442  16.948  16.491  14.969 -0.0282  0.0952  0.1842
17312W        W32443  17.156  14.747  12.603  0.1391  0.0121  0.0303
17313W        W32444   8.426   9.494   0.996 -0.0649  0.0026  0.0884
17314W        W32445   0.504   3.320  12.496 -0.5244  0.1145 -0.1908
17315W        W32446   9.690  17.366  11.214 -0.1520 -0.2399 -0.0053
17316W        W32447   5.569   8.471   4.384  0.0298 -0.2882 -0.3700
17317W        W32448   3.259   7.152  12.486  0.2491  0.2321  0.3496
17318W        W32449   9.920  13.559   3.478  0.1387  0.0443  0.0128
17319W        W32450   4.820   2.667  13.215 -0.0646  0.2675  0.0509
17320W        W32451   4.078  11.969  12.831 -0.1240 -0.1359  0.0340
17321W        W32452   5.628  15.789  13.542 -0.0220 -0.0952  0.0866
17322W        W32453   7.457   5.453  14.294  0.0178  0.1748 -0.0446
17323W        W32454  14.640  14.421   3.252 -0.2168  0.0555 -0.0643
17324W        W32455  17.270   4.318  12.139 -0.3560 -0.1720 -0.0544
17325W        W32456  14.864   6.344   0.523 -0.0805  0.1343 -0.0049
17326W        W32457   5.528   1.668  15.278 -0.2693  0.1050 -0.2715
17327W        W32458   5.354  16.377  10.067 -0.1908  0.0614 -0.1050
17328W        W32459   1.221   8.047   4.096 -0.3202  0.3033 -0.0635
17329W        W32460  10.311  17.498  13.384 -0.1022  0.2369 -0.0386
17330W        W32461   0.180   9.532   5.399  0.0957 -0.0587 -0.0005
17331W        W32462   1.202   7.196  15.214 -0.0448  0.1634 -0.1872
17332W        W32463   9.714   6.526   2.303 -0.1356  0.0167  0.0720
17333W        W32464   4.887  11.622  14.934 -0.1093 -0.0937 -0.1094
17334W        W32465  12.674  12.495  11.726 -0.1802  0.1924  0.0355
17335W        W32466  11.976   8.882   0.120 -0.0678  0.0136 -0.1084
17336W        W32467   0.556  14.903   4.489  0.1972 -0.2041  0.1589
17337W        W32468  14.232   0.310  12.461 -0.3835  0.3503 -0.2467
17338W        W32469  10.555   6.925   2.592 -0.0334  0.1025 -0.1253
17339W        W32470  12.145   8.977   4.273 -0.1517  0.1387  0.3256
17340W        W32471  15.152   0.050   3.689 -0.0534  0.1953  0.1945
17341W        W32472  10.961   7.916  12.210  0.3709  0.2056 -0.0917
17342W        W32473  12.199   7.842  12.696 -0.2230  0.3468 -0.3284
17343W        W32474   7.092   3.721   4.923 -0.1934  0.0019  0.2051
17344W        W32475   9.515   3.798   2.296 -0.0606  0.2609  0.0701
17345W        W32476   3.627  10.499  13.341  0.0640  0.0347  0.1984
17346W        W32477  13.515  17.033  14.583  0.1225  0.1239 -0.3117
17347W        W32478  11.044  10.640  13.587 -0.2112  0.1149  0.1618
17348W        W32479  14.295   0.679  14.147  0.2060 -0.3385  0.5472
17349W        W32480  15.842   2.459  14.036  0.1951 -0.2091  0.2066
17350W        W32481  16.397   3.784   5.939 -0.2770 -0.0449 -0.1190
17351W        W32482   9.128   2.902   1.995  0.4752 -0.1037  0.0814
17352W        W32483  14.382  17.684   2.025  0.1659 -0.0310 -0.1564
17353W        W32484  16.573  17.103  15.883  0.2435  0.0595 -0.0950
17354W        W32485   2.679  13.507  14.515 -0.0180 -0.1073 -0.1284
17355W        W32486  13.190   6.579   1.097  0.0830 -0.1750  0.0323
17356W        W32487   7.303   5.005  11.367  0.0880  0.1233  0.2177
17357W        W32488   8.915  13.989  14.202 -0.2841  0.0942 -0.2073
17358W        W32489   9.744  13.493   0.075  0.0004  0.0332 -0.1944
17359W        W32490  17.555   3.189  12.699 -0.0413 -0.0848  0.4078
17360W        W32491  11.648   9.122   2.648  0.0000 -0.1828 -0.1417
17361W        W32492   6.987   5.065   6.161  0.0077 -0.0718 -0.2759
17362W        W32493  16.494   8.408   0.819 -0.1287 -0.0055 -0.1480
17363W        W32494   0.468  14.645   1.578 -0.2268  0.1125  0.0827
17364W        W32495   8.057   4.708   4.191 -0.3144 -0.0804  0.4214
17365W        W32496   9.659   1.682   1.313  0.1331  0.0049  0.0115
17366W        W32497   6.700  12.132  14.632  0.0807 -0.0406 -0.0680
17367W        W32498   1.807   0.129  13.747 -0.0047  0.0718  0.0189
17368W        W32499  14.609  10.805  10.899 -0.2247  0.0235  0.2764
17369W        W32500   4.493   6.278  12.823 -0.0724  0.0287  0.0904
17370W        W32501   4.037   3.698   3.458  0.0065 -0.1416 -0.1038
17371W        W32502   1.869  15.676  12.517  0.2647  0.1111 -0.1291
17372W        W32503  17.659   3.088  10.118  0.2409  0.0305 -0.1249
17373W        W32504  16.678  17.291   2.713 -0.0417 -0.2625  0.0257
17374W        W32505   2.174   3.940   5.125  0.0149  0.1649 -0.2973
17375W        W32506   0.186  12.201   0.152  0.0406 -0.2928  0.2085
17376W        W32507   0.777  10.593   4.065 -0.0609 -0.0827 -0.3836
17377W        W32508  14.290   2.644  15.161 -0.0449  0.0441  0.1096
17378W        W32509  10.241   2.895  11.136  0.2971 -0.3199  0.0519
17379W        W32510  13.385  18.445   2.113  0.0941  0.0827 -0.3379
17380W        W32511  13.744  13.691  12.748  0.0648  0.2736  0.0630
17381W        W32512   0.540   0.815   3.223  0.5588  0.4116  0.0306
17382W        W32513   7.063   3.660  13.401 -0.1118 -0.0476 -0.0744
17383W        W32514   2.088   3.132   2.715 -0.0713  0.1708 -0.1666
17384W        W32515   0.834   0.419  15.664 -0.0150  0.2802  0.0670
17385W        W32516   7.350   3.980  10.260  0.1966 -0.0608  0.0652
17386W        W32517   2.714   4.214   1.147 -0.0860 -0.3599 -0.1448
17387W        W32518  10.879  17.841   3.908 -0.1010  0.1717 -0.1601
17388W        W32519  17.429   6.831   3.855  0.0709  0.1041  0.1065
17389W        W32520   4.835   0.817  13.154  0.0616 -0.5140  0.0008
17390W        W32521   4.394  11.957   3.125 -0.1567 -0.0421  0.1485
17391W        W32522  13.321   8.762   5.712 -0.0949  0.0049 -0.0648
17392W        W32523   9.786  14.552   3.774 -0.0495  0.2005 -0.3528
17393W        W32524   2.890  15.672   4.020  0.2631 -0.0128  0.5087
17394W        W32525   4.842  15.274   1.497  0.0340  0.1320  0.1959
17395W        W32526   9.090   7.491  10.728 -0.2710 -0.1232  0.0241
17396W        W32527   7.993   6.884   0.974 -0.1235 -0.0858 -0.0927
17397W        W32528   1.997   2.641   0.735 -0.0088  0.1583 -0.0518
17398W        W32529   1.477  12.631  13.142 -0.2772 -0.3816 -0.0421
17399W        W32530  16.255   9.782   1.520  0.0231  0.3953 -0.3581
17400W        W32531   7.179   7.589   2.465  0.1508 -0.2353  0.0963
17401W        W32532  12.654   3.741  12.104 -0.1837 -0.2762 -0.1948
17402W        W32533   5.097   6.195  11.104  0.0180 -0.1531  0.0530
17403W        W32534   1.495  16.866  14.304  0.0799  0.1182  0.4269
17404W        W32535  11.849  15.569  13.855 -0.1896 -0.0935  0.2507
17405W        W32536  16.583  14.804   2.493 -0.2839  0.1323  0.0103
17406W        W32537  12.393  13.302  13.654  0.4162  0.0535  0.3679
17407W        W32538   6.394   3.059   1.434 -0.0448 -0.1299 -0.1892
17408W        W32539   8.524   8.564   5.252  0.2690  0.1079 -0.2407
17409W        W32540  15.587   7.931  12.565 -0.1191  0.2099  0.0324
17410W        W32541  18.415  12.700   0.838  0.0298 -0.1143  0.0363
17411W        W32542   9.999   2.885  13.649  0.3238  0.1036 -0.0753
17412W        W32543  14.807  10.260   4.450 -0.1804  0.1221 -0.0176
17413W        W32544   9.903  14.676   4.227 -0.2449 -0.4407  0.1407
17414W        W32545  14.566   6.452   3.006  0.0701 -0.0481 -0.1778
17415W        W32546   5.596   5.368   0.610 -0.0305 -0.1683 -0.0097
17416W        W32547   1.319   8.025   2.726 -0.1101 -0.2746  0.1182
17417W        W32548   4.284  11.005  11.425 -0.1772 -0.3830  0.0089
17418W        W32549  16.917  17.379   3.280 -0.1490 -0.1858  0.1936
17419W        W32550   3.962   6.498   1.972  0.2056  0.1854 -0.1781
17420W        W32551  15.913  11.481   1.678  0.0367 -0.1811 -0.0180
17421W        W32552  15.661   8.570   1.809  0.2217 -0.0800 -0.1061
17422W        W32553   1.310   7.893   0.540 -0.1071 -0.3010  0.1655
17423W        W32554  11.108  13.031   2.811 -0.2092 -0.0916 -0.3168
17424W        W32555   0.502  10.928   3.784 -0.1324 -0.1383 -0.1269
17425W        W32556   3.547   4.817   2.144  0.2604 -0.0531 -0.0525
17426W        W32557  16.021   2.765  12.654  0.3474  0.2202 -0.0070
17427W        W32558   2.213  15.051  11.958 -0.1441  0.1621  0.0841
17428W        W32559   1.359   5.717  14.036  0.4150 -0.0284 -0.1934
17429W        W32560   9.552  10.550   6.388 -0.0007  0.1450  0.2421
17430W        W32561   2.021  14.505  14.203 -0.0992  0.2004 -0.1246
17431W        W32562   6.922  15.554  10.815  0.1652 -0.0137 -0.0970
17432W        W32563   6.116  14.356  15.888 -0.1140  0.0022 -0.0722
17433W        W32564  10.122   4.883  13.047  0.2524 -0.0198  0.1891
17434W        W32565  11.731   2.437   1.976 -0.0504 -0.1663  0.1385
17435W        W32566  10.375   9.101   1.929 -0.0551 -0.0574 -0.2344
17436W        W32567   9.428  12.017  13.644  0.1488 -0.1682 -0.2001
17437W        W32568   9.515  11.336   1.681  0.1405 -0.1787 -0.1742
17438W        W32569   9.698  16.927  13.391  0.1100 -0.0539 -0.0490
17439W        W32570  13.732  16.522  13.582 -0.2271  0.2904 -0.0245
17440W        W32571   4.917  14.731   2.198 -0.2079  0.1482  0.2017
17441W        W32572   9.611  15.903  10.985  0.4172 -0.0925  0.1296
17442W        W32573   6.491   5.932   3.869 -0.2634  0.2934  0.0697
17443W        W32574   8.046   1.928  13.999  0.1282  0.1030  0.2396
17444W        W32575   1.831  11.642  13.574 -0.0295 -0.0844  0.3154
17445W        W32576  10.425   8.792   4.711 -0.3010  0.0452  0.1625
17446W        W32577   6.733   2.973   4.564  0.4529 -0.0387  0.1837
17447W        W32578   5.270  14.186  13.687  0.1208 -0.2137  0.0005
17448W        W32579   5.842  17.142  11.518  0.0695  0.1760  0.2062
17449W        W32580   5.193  18.480   4.072  0.2447  0.1667 -0.1778
17450W        W32581  10.303  12.189  13.006 -0.2805  0.2467 -0.0458
17451W        W32582   7.162  11.380   1.763  0.0007 -0.1685 -0.1351
17452W        W32583  17.219   2.764  15.444 -0.2213  0.4649  0.2318
17453W        W32584  14.606  12.328  14.264  0.3007 -0.2187  0.2743
17454W        W32585   2.100   8.818  12.099 -0.1162 -0.0885  0.0636
17455W        W32586   9.981  15.086   1.918 -0.0978  0.2545 -0.1772
17456W        W32587   9.158   6.407  14.556 -0.1013  0.0350  0.0495
17457W        W32588   8.394   3.782  13.953  0.0194  0.0213  0.3011
17458W        W32589  12.229   7.389   0.463  0.2607  0.0226 -0.1535
17459W        W32590   9.142  12.419  13.652 -0.0178  0.1218  0.0918
17460W        W32591   6.917   8.202  14.076 -0.1734 -0.0030 -0.0878
17461W        W32592   4.964   3.929   0.788  0.0084  0.0618  0.0513
17462W        W32593  17.030  16.286  14.455  0.0181  0.2302  0.1058
17463W        W32594   2.977   2.415  12.486 -0.2093 -0.0204  0.0558
17464W        W32595  15.903  10.431   1.933 -0.2970  0.1679 -0.3229
17465W        W32596   6.989   5.104  12.010 -0.0451 -0.1731  0.0540
17466W        W32597   2.394   5.353  11.651 -0.0504 -0.1896 -0.1540
17467W        W32598   1.014  14.286  15.203 -0.2709  0.1116  0.3038
17468W        W32599  15.972  15.466  15.264 -0.0552  0.1113 -0.2306
17469W        W32600  17.578   2.656   1.454  0.1957 -0.0178  0.0427
17470W        W32601   0.353  11.694   1.044 -0.1871  0.2268 -0.3629
17471W        W32602   6.686   7.984  14.567  0.1811 -0.1287 -0.0111
17472W        W32603  12.906   5.335   5.086  0.1252  0.2409 -0.0851
17473W        W32604  17.674  14.967  14.512 -0.2635  0.2187 -0.0009
17474W        W32605   0.414  12.887  15.522 -0.0148 -0.0773 -0.2428
17475W        W32606  13.251  14.239   3.616 -0.2148  0.0509 -0.2520
17476W        W32607   2.733  17.188  15.340 -0.1335 -0.1783  0.1603
17477W        W32608   8.177   6.328  14.451 -0.1976  0.0381  0.0792
17478W        W32609  12.109   2.733  12.570 -0.3157 -0.1182  0.2055
17479W        W32610  15.991  18.253  15.460 -0.1574  0.0391  0.1647
17480W        W32611   3.481  18.072   3.399  0.2819  0.3226 -0.2029
17481W        W32612  18.064   5.424  16.097  0.2368  0.0225 -0.2168
17482W        W32613  10.214  13.207  13.292  0.2112 -0.0805 -0.0295
17483W        W32614  16.340   9.518   4.300 -0.1077 -0.2714  0.0449
17484W        W32615  16.326  17.945  13.142 -0.1385  0.1516 -0.0488
17485W        W32616   2.889  13.573  13.701  0.3286 -0.0905  0.1447
17486W        W32617   0.562   1.624  10.898  0.1265  0.0848  0.0467
17487W        W32618  16.977   3.450  12.631 -0.2705 -0.0676 -0.0555
17488W        W32619  11.782  15.926  12.364 -0.2220  0.0682 -0.0818
17489W        W32620  14.645   0.082  14.748  0.2581 -0.0644  0.0867
17490W        W32621   6.945   8.339  15.708 -0.0720  0.2402 -0.3385
17491W        W32622  10.808   4.842  15.141 -0.2362  0.4793  0.2566
17492W        W32623   3.840   3.396  10.785  0.1480  0.0277  0.0214
17493W        W32624  12.197  12.527  12.547 -0.1525 -0.1282 -0.1593
17494W        W32625  16.377  12.097   3.460 -0.2522 -0.0519  0.2198
17495W        W32626   9.161   3.815  14.944 -0.2698 -0.2216  0.3778
17496W        W32627  12.160  12.872   5.306  0.0829  0.0525 -0.1612
17497W        W32628   1.480   4.502   3.779 -0.0560  0.4397 -0.3094
17498W        W32629  17.023  17.632  11.956 -0.2391  0.2340 -0.0849
17499W        W32630   2.705  10.321  11.386 -0.0995  0.3978 -0.1225
17500W        W32631   9.536  11.176  14.126 -0.2736 -0.1878  0.1607
17501W        W32632   8.362   7.382   3.659 -0.4148 -0.0292  0.0112
17502W        W32633  10.061   5.617   1.467 -0.2118 -0.0481  0.1078
17503W        W32634  13.244  12.767  14.684 -0.0926  0.2128  0.2014
17504W        W32635   0.367   7.303   4.592  0.2471 -0.0448  0.2133
17505W        W32636   7.044   6.499   5.105 -0.3124 -0.0654  0.0765
17506W        W32637  11.235   9.067  12.612  0.1994  0.0553  0.1235
17507W        W32638   0.164  14.579   4.705 -0.1574 -0.1614 -0.0544
17508W        W32639   7.759  12.098   2.687  0.0077  0.2433 -0.1290
17509W        W32640   6.540  13.986  15.244 -0.1561 -0.3485 -0.2819
17510W        W32641   2.836  15.051  13.657 -0.1746  0.0274 -0.1996
17511W        W32642   8.542  10.104  12.222  0.0797  0.4003 -0.0425
17512W        W32643   6.614   9.885  12.911  0.3671 -0.1502 -0.1509
17513W        W32644   1.718  14.255  13.237  0.0017  0.3426 -0.1100
17514W        W32645  18.318  10.662   4.973 -0.1100  0.1800  0.0718
17515W        W32646  13.248  12.986   3.921 -0.3185 -0.1154  0.0471
17516W        W32647  16.608   1.575   2.473 -0.0395 -0.2310  0.3337
17517W        W32648  15.138   5.445   4.514 -0.1441 -0.0904 -0.3236
17518W        W32649   5.721   9.818  13.706  0.3103  0.1061 -0.0015
17519W        W32650  10.590   8.981  13.420 -0.2312 -0.1796 -0.0529
17520W        W32651  10.679  11.771  13.019 -0.0665 -0.1354 -0.0356
17521W        W32652   9.984   9.546  12.540  0.0086  0.0690  0.2615
17522W        W32653  10.048  13.391  10.845 -0.1896 -0.3533 -0.1772
17523W        W32654  10.558   2.906   1.814 -0.1899  0.2903  0.2164
17524W        W32655  16.040  11.095  11.540 -0.0676 -0.0131 -0.2313
17525W        W32656   8.734  15.798  15.769  0.2033 -0.2637 -0.1999
17526W        W32657   7.470   0.682   3.768 -0.1229 -0.0106  0.6321
17527W        W32658  15.859  17.053   0.467 -0.3873 -0.1864  0.0078
17528W        W32659   8.198  14.039  11.017 -0.1764  0.1770  0.2679
17529W        W32660   4.546  14.683  14.657 -0.1409 -0.0500 -0.0543
17530W        W32661  17.618   9.058  13.157 -0.1464  0.1334 -0.0519
17531W        W32662   9.784   9.503   5.063  0.1889 -0.2498 -0.0478
17532W        W32663   2.481   6.838  10.307  0.0772  0.1301  0.2799
17533W        W32664   7.970   8.102   4.820  0.0541  0.1074 -0.0288
17534W        W32665   6.671  11.702  13.434  0.0516  0.3562  0.2697
17535W        W32666  15.664   1.055   5.114  0.0712 -0.1608 -0.0134
17536W        W32667  11.935   6.730  11.832 -0.0555  0.0010 -0.0870
17537W        W32668   7.235   4.169   5.203  0.0247  0.0212  0.1284
17538W        W32669   8.889  13.257   4.270  0.0725  0.3970 -0.2101
17539W        W32670  16.389  17.516  15.048  0.0991 -0.2273  0.0222
17540W        W32671   3.858  10.926  15.828  0.3973 -0.1339 -0.4294
17541W        W32672   3.779  14.590  15.093 -0.1396 -0.0679  0.0596
17542W        W32673  11.754   0.697   3.855 -0.0524  0.1110  0.1902
17543W        W32674   0.510  12.996  10.960 -0.3012  0.2004  0.3315
17544W        W32675  10.939   9.827   1.922 -0.1906 -0.2318 -0.2193
17545W        W32676  16.667  16.858  14.220 -0.1134 -0.2659 -0.0686
17546W        W32677  11.021   5.411   0.913 -0.0933  0.1805  0.0564
17547W        W32678  14.392   5.955   3.796  0.1152 -0.0599 -0.2859
17548W        W32679   6.857   0.797   0.068  0.0378  0.0231 -0.2176
17549W        W32680  17.142   6.705   5.803  0.0090 -0.2626 -0.1034
17550W        W32681  10.921   4.948  11.716 -0.2089  0.0089  0.1057
17551W        W32682  16.050   0.781   4.429 -0.0656  0.2666 -0.2673
17552W        W32683  14.644   1.015  14.402  0.0848 -0.0043  0.1262
17553W        W32684   1.572   8.989   2.448  0.0023 -0.2130  0.0174
17554W        W32685  15.146  15.815  14.643 -0.0835  0.1046  0.3056
17555W        W32686  13.964   4.954   4.363  0.0138  0.2836 -0.2675
17556W        W32687   6.671   3.047  14.099  0.3347 -0.3104  0.2101
17557W        W32688  15.023   4.690  13.013  0.1651 -0.0676  0.0921
17558W        W32689   9.102   1.791  12.364  0.0574 -0.0292 -0.1999
17559W        W32690  15.686   9.739  12.169  0.2171 -0.1563  0.3943
17560W        W32691   3.258  11.622  15.630 -0.0229  0.1861 -0.0009
17561W        W32692  12.457   1.653  11.532  0.1271  0.0065 -0.0095
17562W        W32693   9.374   9.222   0.979  0.0255 -0.0372  0.0912
17563W        W32694   1.295  13.335  11.023 -0.0899  0.0426 -0.1393
17564W        W32695  12.005  14.757  12.572 -0.3091  0.0165  0.0282
17565W        W32696   0.882  12.614  14.825 -0.1658 -0.3053  0.0424
17566W        W32697  17.424  17.484   5.006 -0.1533 -0.1202 -0.0407
17567W        W32698   9.636   6.977   5.927 -0.1695  0.1665  0.3598
17568W        W32699   5.432   6.299  15.652  0.2565  0.2219  0.1828
17569W        W32700  18.261  18.450  11.514  0.0802  0.0135  0.3247
17570W        W32701  17.338   0.220   0.992  0.0767 -0.3983 -0.1577
17571W        W32702  11.179   9.236   3.884 -0.0049 -0.2133 -0.0194
17572W        W32703   0.634  14.019  14.734  0.2746  0.0016  0.2813
17573W        W32704  12.275   5.503   2.424 -0.3630  0.1331 -0.2905
17574W        W32705  16.518  16.127   3.016 -0.3364  0.0570 -0.3241
17575W        W32706   5.859  18.099   4.707 -0.1707 -0.1300 -0.1370
17576W        W32707  12.931   5.678   3.986  0.1560  0.1297  0.0672
17577W        W32708   3.965  11.642  11.151  0.3038  0.4429 -0.0868
17578W        W32709  10.204   0.564  13.027  0.1232  0.0389 -0.1566
17579W        W32710  15.183   6.715   4.195  0.0659 -0.3259  0.1104
17580W        W32711  13.269   4.017  13.834 -0.0059  0.0740 -0.2354
17581W        W32712   9.092  18.460   0.863  0.2808  0.2183  0.0777
17582W        W32713   2.308  18.482   4.166 -0.0551 -0.0828  0.1737
17583W        W32714   5.305   5.761  12.575  0.0455 -0.1790 -0.1044
17584W        W32715  13.427  11.177  10.794  0.2997 -0.1315  0.0765
17585W        W32716   8.372  12.902  13.252  0.1887  0.0595 -0.0214
17586W        W32717   5.004   5.130  12.973  0.2133  0.2951  0.2529
17587W        W32718  18.167  18.273  12.370 -0.2536 -0.0521  0.2715
17588W        W32719  14.732  12.266  13.659  0.0124 -0.1625 -0.0145
17589W        W32720   1.240  15.179  11.134  0.1947 -0.1089  0.5354
17590W        W32721  18.046   6.286  11.857 -0.3990  0.1719  0.1995
17591W        W32722   0.420   6.047   3.323  0.0510 -0.4559 -0.1416
17592W        W32723   7.365  17.410  14.531 -0.2084 -0.2361 -0.1362
17593W        W32724   3.555   0.763   0.943  0.3198 -0.0412 -0.0795
17594W        W32725   8.174  15.135   2.301 -0.1197  0.3576 -0.0465
17595W        W32726   0.309  13.994   0.789 -0.1392  0.1881 -0.0011
17596W        W32727  12.807   8.780   4.825 -0.2561  0.0496  0.2882
17597W        W32728  15.166   3.905   0.133 -0.1469 -0.2513 -0.0555
17598W        W32729   9.026  11.005  14.204 -0.2452 -0.1314 -0.3152
17599W        W32730   6.811   9.406   1.086  0.2022 -0.1866  0.0168
17600W        W32731  12.637  15.335  14.214  0.2916 -0.2610  0.1190
17601W        W32732   2.505  17.845   3.521 -0.0796  0.0630  0.0695
17602W        W32733  12.635   8.111   0.756  0.0038 -0.1006 -0.3009
17603W        W32734   8.117  11.257   2.593 -0.3493  0.1704 -0.1225
17604W        W32735  14.107  14.036  12.673 -0.0676 -0.2921 -0.0677
17605W        W32736  13.044   1.610  13.403 -0.0087  0.4175 -0.0944
17606W        W32737  15.327   2.425  13.656 -0.0066 -0.2887 -0.2293
17607W        W32738  17.406   8.323   1.327  0.0055 -0.1789  0.4639
17608W        W32739  11.866  14.300  16.045 -0.1267 -0.2027 -0.0369
17609W        W32740  13.197   5.368  14.945 -0.0766 -0.0802  0.0631
17610W        W32741   2.287   1.397  11.203 -0.1370 -0.2116 -0.0879
17611W        W32742  11.850  11.457  12.221 -0.1045 -0.0352  0.2871
17612W        W32743   4.007   2.306  14.561 -0.0654 -0.0640  0.0610
17613W        W32744   7.997  18.282  14.855 -0.0229 -0.4061 -0.0620
17614W        W32745   8.797  15.028   1.277 -0.1600 -0.3585 -0.2450
17615W        W32746  18.194   5.560  15.626 -0.0405 -0.2827  0.0565
17616W        W32747  15.745   2.027   2.450  0.0553 -0.0148 -0.0096
17617W        W32748   1.236   4.157  15.735 -0.1495 -0.0126  0.0512
17618W        W32749  16.721   1.573   1.642 -0.1274  0.0951 -0.1025
17619W        W32750   7.376   1.647  14.176  0.0085  0.0429 -0.0921
17620W        W32751   8.157   9.312   2.222 -0.0835  0.0594 -0.3290
17621W        W32752  10.438   7.055   4.253 -0.0808  0.0927 -0.0315
17622W        W32753  12.258  14.454   4.708  0.3311 -0.1858 -0.1186
17623W        W32754  12.679  11.976   5.196 -0.0623 -0.0208  0.4485
17624W        W32755   3.544  15.862   0.156 -0.1077 -0.0039 -0.1897
17625W        W32756   9.974  16.399   3.593  0.2295 -0.0163  0.0614
17626W        W32757  14.249  18.239  14.837 -0.1102  0.2382 -0.0104
17627W        W32758  18.110  10.222  12.738  0.1145 -0.0905 -0.1509
17628W        W32759   2.421  15.674   3.800  0.0499  0.1432  0.4185
17629W        W32760  12.457   1.012  15.779  0.0819  0.0012 -0.1206
17630W        W32761  17.262   1.409  12.389 -0.1508  0.0474 -0.0267
17631W        W32762   4.457  17.753   2.114  0.0364  0.2274  0.0604
17632W        W32763  13.901   7.414  11.915  0.1582 -0.0920  0.3124
17633W        W32764  10.515   9.344  15.803 -0.0810 -0.1617 -0.1187
17634W        W32765  10.935  10.589   0.887  0.0572 -0.1160  0.4873
17635W        W32766  14.001  17.007  11.235 -0.1044  0.2100 -0.0867
17636W        W32767   2.946  13.892   1.861 -0.1772 -0.1234  0.0608
17637W        W32768   1.655  11.541   1.234 -0.1481  0.2032  0.0106
17638W        W32769  17.438  10.037  14.247  0.0817  0.0678 -0.0810
17639W        W32770  11.397  16.518   2.195 -0.1911  0.2745  0.0310
17640W        W32771  14.201  13.576  12.464 -0.0295 -0.0853 -0.0380
17641W        W32772   5.606   8.885   2.548  0.0183  0.1185 -0.1636
17642W        W32773   8.001   9.272   0.131  0.2233  0.0110  0.2076
17643W        W32774  17.196   1.200   2.339  0.1323 -0.0190 -0.0147
17644W        W32775   4.307   1.489  13.527 -0.2240  0.3709  0.1837
17645W        W32776   9.716  11.632   2.125  0.0208  0.2465  0.0552
17646W        W32777  10.776  14.425  14.533  0.0395  0.2300  0.0796
17647W        W32778   3.237   6.912   6.022  0.1530 -0.2568  0.2429
17648W        W32779  18.134  12.936  12.509  0.0773  0.2822  0.2612
17649W        W32780  17.914   2.402   1.098 -0.2663  0.3177 -0.0499
17650W        W32781   4.371   7.473  12.163 -0.2699 -0.0238 -0.0968
17651W        W32782  12.510   5.544   4.212  0.0375  0.0795 -0.0534
17652W        W32783  10.926   8.570   1.487  0.3623  0.0101  0.0572
17653W        W32784   5.455   3.519  12.046  0.0087  0.1972 -0.0089
17654W        W32785  13.635   8.091  15.883 -0.2365 -0.2541 -0.1035
17655W        W32786   3.235  16.695  15.923 -0.1604  0.1191  0.0086
17656W        W32787  18.220   1.998  10.331 -0.0536  0.1583 -0.4853
17657W        W32788   1.480  15.525  15.812  0.3363 -0.0382 -0.1363
17658W        W32789   6.798  11.645  15.204 -0.1954  0.2349 -0.0534
17659W        W32790   4.712  11.583  14.404  0.0254 -0.3383 -0.2505
17660W        W32791   8.662   6.685  14.633 -0.2507  0.0221 -0.1444
17661W        W32792   4.529  13.418  15.697 -0.0981  0.3083 -0.2215
17662W        W32793   8.743   6.936  13.161  0.2766 -0.1016 -0.1038
17663W        W32794   5.018   4.870   1.894  0.0756 -0.1427 -0.1243
17664W        W32795   8.418   6.959   3.433 -0.1055 -0.0978  0.0057
17665W        W32796   8.642   5.957  15.265 -0.1885 -0.1028 -0.1297
17666W        W32797   8.405   5.509  15.397  0.0886 -0.0246 -0.1691
17667W        W32798   6.287   6.546   5.597  0.1677  0.0430  0.0758
17668W        W32799   6.961   4.885  13.838 -0.0491 -0.2514 -0.1169
17669W        W32800  13.914   8.490  13.218  0.3109 -0.4182  0.3901
17670W        W32801  13.055   2.504   3.573 -0.0333  0.1275  0.2640
17671W        W32802  14.169   8.028  13.249  0.0382 -0.2340 -0.0970
17672W        W32803  12.679  16.521   4.316 -0.0398  0.3112 -0.1798
17673W        W32804  10.982  17.008   1.506 -0.0095 -0.1647 -0.0082
17674W        W32805   9.113   7.875   5.514 -0.0310 -0.1578 -0.0335
17675W        W32806  14.634  10.447  13.751  0.0262 -0.1344 -0.0109
17676W        W32807   7.694  14.263   4.503 -0.2073 -0.2203  0.0509
17677W        W32808   0.062  15.204   1.311 -0.2048 -0.3711  0.3347
17678W        W32809  11.817   7.008  15.755  0.1458 -0.0844 -0.0481
17679W        W32810   1.797   1.815  14.710  0.1657 -0.1153 -0.0018
17680W        W32811   2.971  15.388   3.518  0.1389  0.3066 -0.2238
17681W        W32812   8.873   3.300   1.183  0.0937 -0.1314  0.1670
17682W        W32813  10.175   2.118   2.054  0.1472  0.0531 -0.0189
17683W        W32814   4.908   9.802  14.490  0.0906  0.1649  0.3804
17684W        W32815   8.414   7.972   3.181 -0.2125  0.3191 -0.0314
17685W        W32816   2.287  13.795   2.772 -0.1064  0.0136  0.1951
17686W        W32817   9.481   6.966  12.323 -0.1436  0.1657 -0.4346
17687W        W32818   0.984   8.104   3.117 -0.0679  0.1536  0.0763
17688W        W32819   2.983  15.936  14.387 -0.0473 -0.1458 -0.2552
17689W        W32820   7.879   5.512  15.181  0.0810 -0.1110  0.2582
17690W        W32821   3.730  10.859   0.934  0.0559 -0.0570  0.1655
17691W        W32822  10.959  15.985  10.392 -0.2893  0.2921  0.1882
17692W        W32823   5.747   0.844  11.712  0.2409 -0.1024 -0.1662
17693W        W32824   8.287  16.900   1.761 -0.1576 -0.2475 -0.3555
17694W        W32825  16.617   2.606   3.303 -0.0197  0.1306 -0.1909
17695W        W32826   9.030   4.375  13.948  0.1890  0.1086 -0.0129
17696W        W32827  16.542   0.744  12.512  0.0784  0.3004  0.2258
17697W        W32828   8.316  13.195  14.576 -0.1182 -0.3029  0.2597
17698W        W32829  13.960  18.487  10.656  0.0405 -0.1530 -0.5239
17699W        W32830   6.547   3.663  13.769 -0.2326 -0.1431 -0.0648
17700W        W32831  15.905   7.246   0.804  0.4769  0.2103 -0.2638
17701W        W32832   9.023  14.469  11.670 -0.0800  0.0170 -0.0579
17702W        W32833   2.354   9.842  11.194 -0.2790  0.1589  0.0411
17703W        W32834   1.641   5.779  13.313  0.1632 -0.3670 -0.0908
17704W        W32835   2.306   1.144   2.743 -0.1307  0.2455 -0.1538
17705W        W32836   7.978   7.718  15.884  0.2073 -0.3125  0.0416
17706W        W32837   5.682   3.882   3.476  0.1672  0.2392  0.2362
17707W        W32838   8.969  13.080   1.765 -0.2583 -0.0309  0.2272
17708W        W32839  12.387  12.994  11.803  0.0219 -0.1362  0.0570
17709W        W32840  14.200   9.293   3.515  0.1805  0.1583  0.0699
17710W        W32841  13.365   2.546  12.655 -0.2269 -0.0949 -0.2457
17711W        W32842   7.947  12.687   1.951 -0.0810  0.0413  0.0821
17712W        W32843  18.329   5.332  15.033  0.0429  0.0646  0.1774
17713W        W32844   4.596  18.478   0.635 -0.0996  0.2981  0.0466
17714W        W32845  17.295  12.964  15.562 -0.1129 -0.0452  0.1654
17715W        W32846  12.712   0.569   1.722  0.0564  0.1080 -0.0848
17716W        W32847  12.431   3.621  14.609 -0.3731  0.0463  0.1615
17717W        W32848   9.620  17.341   4.590  0.0605 -0.1214  0.1497
17718W        W32849  16.759  10.507  12.921 -0.3832  0.0739 -0.0407
17719W        W32850   3.944   7.729   5.108 -0.3629  0.2347 -0.0742
17720W        W32851   2.556   0.963   2.315 -0.0507 -0.2207 -0.1797
17721W        W32852  13.449   9.364   0.626  0.0647 -0.1513 -0.3875
17722W        W32853  12.826   9.839  13.486  0.1003 -0.0019  0.0498
17723W        W32854   3.288  10.903   5.608  0.0060 -0.1943  0.2236
17724W        W32855  13.284   1.394  12.550  0.1953 -0.2640  0.0897
17725W        W32856  12.150  12.033  11.278  0.2747 -0.0385  0.1896
17726W        W32857   4.923  15.150   1.948  0.1293  0.0843 -0.1277
17727W        W32858  15.208   4.517   2.142 -0.1800 -0.0475 -0.2729
17728W        W32859  15.176   6.265   2.981  0.1218  0.1254  0.1246
17729W        W32860   5.701   5.160   4.961 -0.1717  0.0064 -0.1021
17730W        W32861  16.094   9.005   2.183  0.2143 -0.0185 -0.0926
17731W        W32862  15.554  11.465  14.929  0.1202  0.1658  0.1565
17732W        W32863   5.061  16.504   2.997  0.1614  0.0409  0.3023
17733W        W32864   3.461  16.335   0.654  0.1097  0.2820 -0.1403
17734W        W32865   4.988   5.511  11.812  0.1433  0.2396 -0.1444
17735W        W32866   6.354   1.727   3.272  0.3183  0.1915  0.3946
17736W        W32867  15.961  13.899   5.219 -0.3457 -0.3049  0.0159
17737W        W32868  14.430   6.572  11.815 -0.0092  0.1659  0.2146
17738W        W32869   9.653   2.598  13.989  0.0474 -0.0688  0.1342
17739W        W32870   8.299  10.118   3.895 -0.1115 -0.1725 -0.2802
17740W        W32871   3.363   6.333   4.618  0.1249  0.0838  0.0662
17741W        W32872  15.544  17.999  11.302  0.2464  0.1975  0.2013
17742W        W32873   8.633   1.492  13.458  0.0290 -0.0172 -0.0294
17743W        W32874  17.831   1.529  11.957  0.1291 -0.2225 -0.0285
17744W        W32875   2.652   9.941  15.033 -0.0075  0.1582  0.3732
17745W        W32876   5.230   4.921  15.903  0.2046 -0.4639 -0.1412
17746W        W32877  11.550   3.127  16.043  0.1387 -0.0680 -0.3681
17747W        W32878  17.115   3.392  15.014  0.2829  0.3749  0.0636
17748W        W32879  12.741   0.846   0.670  0.1160  0.1084 -0.1647
17749W        W32880  16.439  12.339   4.398  0.0121  0.0922  0.1864
17750W        W32881   8.800  18.284   0.359  0.1104  0.0404  0.0461
17751W        W32882  10.236  17.292  12.024 -0.0633 -0.2192 -0.2500
17752W        W32883  14.276   8.882   2.980 -0.1239 -0.0574  0.1316
17753W        W32884   4.400   3.488  15.762  0.1887 -0.0404  0.0195
17754W        W32885  16.688  18.044   4.675  0.1407  0.0517 -0.1214
17755W        W32886  11.941   7.626   1.954 -0.2220  0.0318  0.0862
17756W        W32887  12.027   3.093   2.939 -0.3072 -0.4538 -0.1858
17757W        W32888  15.204  11.143  13.634 -0.0785 -0.0018 -0.0690
17758W        W32889   2.025   3.901  13.896  0.0008 -0.2249  0.1515
17759W        W32890  11.537   6.389  13.664 -0.1306 -0.2706  0.1930
17760W        W32891   4.520   4.991   1.760 -0.1039 -0.0135  0.2127
17761W        W32892   5.285  10.278   1.753  0.2135  0.1289 -0.1512
17762W        W32893  16.522   3.540   4.365 -0.1545 -0.1513  0.1772
17763W        W32894   6.877   7.204  14.244  0.2515 -0.1009 -0.0266
17764W        W32895  17.738   5.020  12.598 -0.1077 -0.0733  0.0821
17765W        W32896  15.667   2.272   1.223  0.2882 -0.2613 -0.1308
17766W        W32897   0.430   6.851   2.012 -0.4858 -0.0516 -0.0858
17767W        W32898  17.837  17.908  12.277  0.0532 -0.2846 -0.1513
17768W        W32899  17.412   4.827  15.153  0.0621  0.3792 -0.0229
17769W        W32900   5.917   6.297  14.295  0.1726  0.0324 -0.2211
17770W        W32901   5.854  16.115  15.556 -0.1738 -0.0633  0.2829
17771W        W32902  11.338   4.703   1.388  0.0511  0.1383  0.3924
17772W        W32903  17.371   1.289  14.089  0.0533 -0.2065  0.1663
17773W        W32904  11.422   4.155  11.709  0.2834  0.0245  0.2589
17774W        W32905   2.155  16.914  13.104 -0.0211  0.0366  0.1107
17775W        W32906  18.127  18.281   0.128 -0.2619  0.0215  0.1170
17776W        W32907   2.677  11.503   5.704  0.3742 -0.0491  0.2404
17777W        W32908  16.858  13.823  13.409  0.1972 -0.0486  0.1885
17778W        W32909   7.890   1.529  14.260 -0.0972  0.1229 -0.0184
17779W        W32910  11.738  15.615  14.692  0.1418 -0.0995 -0.2431
17780W        W32911  15.075   6.786   0.688 -0.2158 -0.0249 -0.1998
17781W        W32912  13.862   5.516   0.025  0.2674  0.0639 -0.3311
17782W        W32913   9.091   8.166   0.352  0.1639 -0.1411  0.0850
17783W        W32914   3.873   1.963   3.028 -0.2052 -0.0623 -0.2969
17784W        W32915  15.127   8.648  16.062 -0.2922 -0.2931 -0.3298
17785W        W32916  14.214   9.746   0.206  0.2740 -0.3239 -0.0784
17786W        W32917   8.549  15.517   4.756  0.0536  0.1494 -0.0391
17787W        W32918  11.871   8.594   4.364 -0.0548  0.0829  0.1167
17788W        W32919  13.339  12.715  11.026 -0.2205 -0.3454  0.1499
17789W        W32920  13.495   9.845   5.424 -0.1147 -0.4273 -0.2477
17790W        W32921   0.560   4.878   5.021 -0.0542  0.5184  0.2049
17791W        W32922   7.992   6.198   4.969 -0.2521 -0.1923  0.3646
17792W        W32923   2.434  13.341   1.905  0.1757 -0.3775 -0.1059
17793W        W32924   4.665   0.324  10.986  0.0976 -0.0507 -0.2292
17794W        W32925  15.513   5.127   4.710 -0.1607  0.2120 -0.0225
17795W        W32926   6.040  15.383  13.153  0.2688  0.0110  0.3884
17796W        W32927  13.106   5.569  16.063 -0.0772 -0.1314 -0.1314
17797W        W32928  13.163   0.765   3.269 -0.0476  0.1363 -0.0892
17798W        W32929  14.247  15.458   1.784 -0.3031 -0.0661 -0.3515
17799W        W32930   8.368  12.618   1.242 -0.2511 -0.0954 -0.1245
17800W        W32931   8.283   0.028  15.317 -0.1128  0.1886  0.2483
17801W        W32932   8.749  12.463   0.497 -0.4200 -0.3855 -0.0765
17802W        W32933  12.634   6.129  15.539 -0.0534  0.0248  0.2302
17803W        W32934  10.496   4.361  12.006 -0.1906  0.0542 -0.0361
17804W        W32935   4.915  11.269   1.350  0.0830  0.1495 -0.1383
17805W        W32936   6.463  13.056  14.585 -0.1141 -0.0623  0.0245
17806W        W32937  12.677   2.334   3.790 -0.0592 -0.3642  0.1698
17807W        W32938  17.602   4.178   0.811 -0.2581 -0.2705  0.1678
17808W        W32939   0.998   0.251  12.085 -0.1487 -0.2727  0.0244
17809W        W32940  13.341   7.340  11.512 -0.1211 -0.4957 -0.2999
17810W        W32941  15.853   7.439  15.549 -0.3271 -0.1412 -0.2943
17811W        W32942   3.450  16.588   3.701 -0.1044  0.0803 -0.1373
17812W        W32943   4.123   2.517   4.167 -0.2012  0.1738 -0.0674
17813W        W32944   1.143   1.333  13.689  0.1974 -0.2816  0.0471
17814W        W32945  18.077   5.085  15.654  0.1952  0.0803  0.1192
17815W        W32946   6.942   3.374   5.795  0.2679 -0.0380 -0.3562
17816W        W32947   6.512  12.309   4.079 -0.3689 -0.0383  0.5413
17817W        W32948  12.978   7.656   1.445  0.1168  0.0894 -0.0843
17818W        W32949   3.510  15.866  14.363  0.0534 -0.0308  0.2881
17819W        W32950  12.079   5.677  13.283 -0.3063  0.2709 -0.0380
17820W        W32951  16.059   3.883  13.589  0.2855  0.3329  0.2355
17821W        W32952   3.882   7.345  12.305 -0.1858 -0.1568  0.2599
17822W        W32953   1.796  16.021   3.283  0.0073 -0.1367 -0.1250
17823W        W32954  10.840   4.394   2.234  0.3347 -0.0969 -0.1591
17824W        W32955  18.108   6.215  14.282  0.1178 -0.4293  0.3168
17825W        W32956  17.463   2.632  10.742 -0.0010 -0.0646  0.0078
17826W        W32957   8.907   0.755   0.265  0.0152  0.2113  0.3020
17827W        W32958   8.697   0.784   3.932  0.0639  0.2624 -0.0368
17828W        W32959  13.546   7.760   4.039  0.3399  0.0867  0.0787
17829W        W32960   8.790  14.529   4.839  0.0030 -0.1241 -0.3145
17830W        W32961   9.481   4.184   2.731  0.3406 -0.1144  0.1106
17831W        W32962   9.530   6.772  15.641 -0.0519 -0.1651 -0.1499
17832W        W32963   8.364  12.448   3.453 -0.1470 -0.1942  0.2918
17833W        W32964  15.483  12.868  15.195 -0.1587  0.1651  0.1167
17834W        W32965  10.101   6.020  12.181 -0.1439 -0.1623 -0.2983
17835W        W32966  17.408  11.504   5.072 -0.1860 -0.0624  0.1547
17836W        W32967   9.995   6.422   3.241 -0.2481  0.2093 -0.0587
17837W        W32968   2.361   4.055   3.513  0.0563  0.0145  0.2756
17838W        W32969  10.159  11.218   4.012 -0.0688  0.3752 -0.0617
17839W        W32970   2.459  12.891   5.126  0.1797 -0.0046 -0.0576
17840W        W32971   6.625   3.805   0.358  0.0100  0.0617  0.0106
17841W        W32972   7.026   2.138   2.483 -0.1059  0.1321 -0.0838
17842W        W32973  15.363   2.805   2.825 -0.0106  0.0061  0.1638
17843W        W32974  13.547  17.155  10.840 -0.0245 -0.0326 -0.0368
17844W        W32975   8.771   9.229   3.717 -0.1304 -0.0718 -0.0698
17845W        W32976  14.228  17.075   1.912  0.1995  0.0505  0.0716
17846W        W32977  14.047  18.083   5.126  0.0215 -0.2287  0.0218
17847W        W32978   6.688  15.114   2.020  0.3391  0.1445  0.1190
17848W        W32979   2.893  11.313  15.375 -0.0950 -0.2947 -0.2941
17849W        W32980  15.057   8.849  14.297  0.0346 -0.0261  0.0992
17850W        W32981   3.273  10.210  12.090  0.1662 -0.0056 -0.0109
17851W        W32982   7.720   9.193  14.235  0.3104  0.0470  0.2078
17852W        W32983  12.620  16.201  15.488  0.0218 -0.1032 -0.0893
17853W        W32984  16.973  16.477  10.476 -0.1453 -0.2195 -0.2044
17854W        W32985  16.910   8.945  15.267 -0.0591 -0.1276  0.0260
17855W        W32986  16.287   0.255  10.616 -0.0878 -0.4149  0.0053
17856W        W32987  17.478  18.480   2.777 -0.1056  0.1335 -0.2424
17857W        W32988   7.921   7.463   1.727  0.3296 -0.4624 -0.0478
17858W        W32989   9.658   6.443  14.327 -0.0534 -0.1584 -0.0886
17859W        W32990   0.181  13.785   4.134  0.2774  0.1072 -0.0871
17860W        W32991   5.286   1.744   2.333  0.0336 -0.0866  0.2727
17861W        W32992   9.730   2.666  15.291 -0.0392  0.1892  0.0772
17862W        W32993  15.019  11.308  15.896  0.5530 -0.0841  0.5638
17863W        W32994  11.111   3.227   5.691 -0.4650  0.2233  0.3446
17864W        W32995   3.785  12.787   2.285 -0.5408 -0.4552  0.0793
17865W        W32996  16.409  14.437   5.458  0.1668 -0.0159  0.1760
17866W        W32997   2.901   4.039   2.869  0.1269  0.4452  0.0651
17867W        W32998  18.344   6.261   0.411  0.0534  0.1382  0.0106
17868W        W32999   0.270  15.773  10.665  0.1952 -0.0159  0.0845
17869W        W33000   1.560  10.136   3.680  0.3982  0.2659  0.1001
17870W        W33001  14.753   3.603   1.191 -0.3198 -0.1937 -0.0737
17871W        W33002  16.106   0.974   4.936  0.0772  0.1134  0.1817
17872W        W33003   7.845   0.390   0.455  0.1777 -0.1010 -0.1356
17873W        W33004  16.973  12.238   3.514 -0.1961  0.2156 -0.3130
17874W        W33005   7.459   4.593  13.568 -0.1073  0.1822  0.1646
17875W        W33006   5.505  10.595   3.422 -0.0418  0.1397 -0.2339
17876W        W33007   1.911  10.145   3.243  0.0045  0.0933 -0.1943
17877W        W33008  12.818  11.768   3.070 -0.1084 -0.1285 -0.0205
17878W        W33009   1.244  16.331  13.114 -0.0703 -0.2046 -0.2920
17879W        W33010   2.017  15.468  10.556  0.4546  0.1756  0.0668
17880W        W33011   3.389  12.514  15.069  0.0101  0.2621 -0.0585
17881W        W33012  18.089   5.001  11.768  0.2404 -0.4020 -0.2088
17882W        W33013   1.132   4.139  11.746  0.0439 -0.3188 -0.1832
17883W        W33014   1.183  16.094  12.066  0.1208  0.2051  0.0695
17884W        W33015   7.548   5.797   5.170 -0.1304 -0.2610  0.1188
17885W        W33016   9.176  12.115   2.250  0.2721  0.5734 -0.1326
17886W        W33017   0.608  17.745  11.357 -0.1214 -0.0139 -0.1221
17887W        W33018  12.047  13.621  11.992  0.0460  0.0693  0.4110
17888W        W33019   5.782  18.419   0.653  0.1426  0.1997 -0.0453
17889W        W33020   4.197   8.265  12.722  0.2983 -0.0425 -0.3829
17890W        W33021  16.774   6.534  11.214  0.0853 -0.2147 -0.0740
17891W        W33022   2.056   4.879   0.957  0.2034  0.0458 -0.0989
17892W        W33023  11.244  10.033  15.688 -0.0372 -0.0407  0.1787
17893W        W33024   4.169  17.020   0.692 -0.1980 -0.0326 -0.0659
17894W        W33025  15.931   2.573  13.464  0.0193  0.0872  0.1649
17895W        W33026   2.396  13.723  15.439  0.1583 -0.0320  0.1465
17896W        W33027  10.315   8.787  11.257  0.1852  0.2308  0.0293
17897W        W33028   7.530   9.110   1.877  0.0700  0.1568  0.0969
17898W        W33029  14.309   5.536  12.366 -0.0589  0.2182  0.1570
17899W        W33030  17.981  14.946   2.415  0.1754  0.1254 -0.2664
17900W        W33031   6.508  14.363   2.246  0.2113  0.1114  0.0504
17901W        W33032   9.288  16.025  13.837  0.0033 -0.1948 -0.1155
17902W        W33033   5.728  12.998   3.247  0.2545  0.1572  0.2392
17903W        W33034   8.841   7.741  13.251 -0.1094 -0.0000  0.1697
17904W        W33035   7.887   3.135  11.873 -0.4274  0.0732  0.3080
17905W        W33036  17.914   3.639  13.315  0.0334  0.0089 -0.0738
17906W        W33037   0.807   8.897  12.229  0.1441 -0.0854  0.2481
17907W        W33038   5.408  10.104   3.231  0.0488  0.0510  0.5311
17908W        W33039   0.465  14.416  12.132 -0.1640  0.1205  0.1138
17909W        W33040  10.404  16.051   5.864 -0.1237  0.4619 -0.2623
17910W        W33041  11.675   7.064  15.251 -0.0415  0.1842 -0.1536
17911W        W33042   6.607   4.407   0.668 -0.0906 -0.4937  0.0441
17912W        W33043  10.989   0.064  12.691 -0.0986 -0.0970 -0.2039
17913W        W33044   0.394  12.390   5.333 -0.5141 -0.1196  0.0721
17914W        W33045   5.769   4.486  11.732 -0.1133 -0.1186 -0.1327
17915W        W33046   4.148   4.642  11.292 -0.2626 -0.1014 -0.2728
17916W        W33047  16.936   2.140   3.237 -0.2806  0.0497  0.0767
17917W        W33048  15.934   5.938   1.682 -0.1407  0.0261  0.0161
17918W        W33049   9.518  16.474  10.689 -0.5126  0.0602  0.3096
17919W        W33050   2.219   4.423  14.994 -0.0598  0.0898 -0.0236
17920W        W33051   3.292  13.953  15.927 -0.2115 -0.0784  0.3898
17921W        W33052  12.505  16.568  11.717 -0.1278 -0.1536  0.0930
17922W        W33053  12.147  16.958  14.530  0.0757 -0.1263  0.0276
17923W        W33054  10.964   0.391  14.040  0.1928 -0.1397 -0.1929
17924W        W33055   5.024   2.909  12.799  0.0447  0.0942  0.0650
17925W        W33056  16.632  16.643   4.360  0.2608 -0.1093 -0.3946
17926W        W33057  13.092   2.693   0.893 -0.3311  0.1370 -0.0538
17927W        W33058   8.488  13.502  12.382 -0.1834 -0.2055  0.1146
17928W        W33059   8.632  15.982   3.225 -0.1813 -0.1850  0.1125
17929W        W33060  14.583   7.076   1.871  0.0804  0.2020  0.0462
17930W        W33061   8.999   1.804   5.460  0.1216  0.0747 -0.1753
17931W        W33062  11.022  13.887  11.172  0.0754  0.1290  0.0891
17932W        W33063  15.909  17.992   1.661  0.0184 -0.6177  0.2716
17933W        W33064  14.964   6.097   6.110 -0.2693 -0.0965  0.0591
17934W        W33065   0.219   3.000   5.612 -0.3659  0.2283  0.2036
17935W        W33066   2.310  12.268  14.427  0.0964  0.2035  0.0009
17936W        W33067  11.306   5.899  10.660 -0.1149  0.1029 -0.2514
17937W        W33068   2.589   3.736  11.096 -0.2024  0.4125 -0.1710
17938W        W33069   8.317  12.353  15.263 -0.0570 -0.0114 -0.3305
17939W        W33070  17.932  11.512  14.064  0.1158 -0.0994 -0.0905
17940W        W33071   6.093  11.163  13.220  0.0880 -0.1156 -0.0362
17941W        W33072  14.548  16.980   2.459 -0.3212  0.0486  0.1321
17942W        W33073   4.705   7.177  12.355 -0.0562 -0.0019  0.1874
17943W        W33074   0.800   7.857  13.447  0.1884  0.2679 -0.2012
17944W        W33075   5.493   4.313  14.624  0.0486  0.2287 -0.0181
17945W        W33076   8.998   2.525   4.546 -0.0568 -0.1179  0.2663
17946W        W33077   3.054  16.134   3.879 -0.0757 -0.0285  0.2308
17947W        W33078  17.126   4.724   1.130 -0.3613 -0.1446 -0.0031
17948W        W33079  18.184  11.727   1.609 -0.1923  0.0163  0.1448
17949W        W33080   1.006  11.914   4.157  0.2794  0.1043 -0.1774
17950W        W33081  15.636   8.916  11.719 -0.0084  0.1453  0.1620
17951W        W33082  14.003   1.999   2.766 -0.0786 -0.1831  0.1727
17952W        W33083   1.989  12.876  10.528  0.3266 -0.1301 -0.0001
17953W        W33084   5.606  15.055   0.930  0.3138 -0.0331  0.0145
17954W        W33085  14.288   2.981  11.200 -0.0745 -0.0092 -0.1389
17955W        W33086  15.669   9.984  14.386  0.0243 -0.2499  0.3133
17956W        W33087   0.905   6.824  15.026  0.1142  0.0163  0.2781
17957W        W33088   3.397  14.550   2.455  0.2387  0.1576 -0.0185
17958W        W33089   2.263  15.157  15.196  0.1577  0.1373 -0.2468
17959W        W33090   1.644   7.635  15.168  0.1115  0.2693  0.1861
17960W        W33091   6.012   2.158   1.168 -0.3467 -0.0464 -0.0855
17961W        W33092   4.744   6.677   2.558  0.0745  0.0157  0.1939
17962W        W33093   6.801   9.915  14.901 -0.0532 -0.0238  0.1532
17963W        W33094   2.537   5.072  10.780 -0.1553 -0.1165  0.2590
17964W        W33095   9.720   4.074  14.796 -0.2954  0.0888  0.0710
17965W        W33096   0.893   8.624   3.217 -0.1263  0.1883  0.0565
17966W        W33097  12.866   3.681   1.235 -0.2043 -0.2555  0.0298
17967W        W33098   4.240   3.327   2.943 -0.1088  0.1076 -0.2704
17968W        W33099  12.543   2.989   0.919 -0.0079 -0.2354 -0.0646
17969W        W33100  10.599  11.913   1.938  0.1808  0.0251 -0.1254
17970W        W33101  13.385   0.218  11.220 -0.2278  0.2099  0.2105
17971W        W33102   7.996  15.088  11.009 -0.2064  0.1067 -0.3301
17972W        W33103  14.375   5.148   1.094 -0.2342  0.2850 -0.1308
17973W        W33104  11.640  13.360   2.000 -0.1827 -0.1554 -0.1221
17974W        W33105  16.328   8.080  15.076 -0.1582 -0.1961  0.0449
17975W        W33106   7.396   5.513  13.297 -0.0477 -0.0053  0.1507
17976W        W33107  18.422  17.343  14.349 -0.2260 -0.2320 -0.2251
17977W        W33108  16.436   4.645  15.124 -0.1204 -0.1256 -0.1582
17978W        W33109  10.787  11.287  15.331  0.2327  0.2463 -0.1541
17979W        W33110  11.136  15.643  11.865 -0.3298  0.2898  0.0256
17980W        W33111  12.820  17.868   3.253 -0.3133  0.0129  0.1104
17981W        W33112  17.239   4.329  13.795  0.1185 -0.0630  0.2406
17982W        W33113   3.582  14.589   2.008 -0.0455 -0.2531  0.2600
17983W        W33114   2.082   2.397  11.836 -0.0241 -0.2608 -0.3675
17984W        W33115   3.426  10.448   4.090  0.0226 -0.0678 -0.1929
17985W        W33116   5.611  17.164  12.447 -0.3543  0.1182  0.1763
17986W        W33117   8.061   4.794  14.200 -0.1125 -0.1619  0.0499
17987W        W33118  14.995  11.553   0.942 -0.0625  0.0945 -0.1118
17988W        W33119   0.437  14.757   9.418 -0.0975  0.0920  0.0163
17989W        W33120  17.542  17.302   2.588  0.1875  0.3633  0.1492
17990W        W33121   0.850   0.912  10.174  0.1157  0.1246  0.0624
17991W        W33122  18.404   3.353  11.913 -0.1645 -0.0956 -0.3166
17992W        W33123  15.835   6.052   4.868 -0.0906  0.0860  0.4017
17993W        W33124  16.952   3.853  14.087  0.0173 -0.2326 -0.1617
17994W        W33125   6.176   2.665  15.377  0.0540 -0.6072  0.2708
17995W        W33126   8.064   6.373   1.065 -0.1499 -0.2208  0.2130
17996W        W33127   7.288   7.625   0.664 -0.5111  0.1456  0.2406
17997W        W33128   9.797  11.703   5.237 -0.1916 -0.0379  0.2901
17998W        W33129  11.695   4.340  14.310 -0.0957  0.0404  0.0001
17999W        W33130   0.873  10.919  10.409 -0.1136 -0.0221  0.4384
18000W        W33131   7.106   5.901   2.020  0.1051 -0.2824  0.1677
18001W        W33132  16.996   8.143   3.044 -0.0062  0.1654 -0.0129
18002W        W33133  10.297  16.186   3.090  0.0287 -0.0315 -0.3302
18003W        W33134  17.071   1.271   3.239  0.0371 -0.0989  0.2539
18004W        W33135   5.104  10.773   3.174  0.0502  0.0435 -0.2319
18005W        W33136   3.898   1.852   1.268  0.1545  0.1482 -0.4625
18006W        W33137   5.199   6.272  11.570  0.0100  0.1322  0.2469
18007W        W33138   7.309  17.662   1.168  0.1100 -0.2977  0.0785
18008W        W33139   0.859  16.528  14.676  0.1938  0.2651 -0.1140
18009W        W33140   0.841   7.838   2.734 -0.1139  0.0838 -0.2753
18010W        W33141   3.045  17.013  10.052  0.3415  0.0358  0.1568
18011W        W33142   6.162  14.406  11.584 -0.1205  0.2773 -0.3849
18012W        W33143  18.330  15.790  13.283 -0.4016 -0.0901 -0.1178
18013W        W33144   5.235   6.870   2.297  0.3078  0.3434  0.3920
18014W        W33145   4.452  14.590  15.545 -0.2850  0.2541 -0.1249
18015W        W33146  12.646   2.483   2.346 -0.0849 -0.0166 -0.0594
18016W        W33147  12.434   2.340   6.010  0.1690 -0.1947 -0.2300
18017W        W33148   1.130  14.131   4.240  0.1589  0.0000 -0.0123
18018W        W33149  18.119  10.556  14.051 -0.1221  0.1061 -0.1412
18019W        W33150  13.012  13.392   2.498 -0.0005 -0.1289 -0.0435
18020W        W33151  12.803  18.145   2.807 -0.3987  0.1421 -0.0282
18021W        W33152   5.631   3.660  13.753  0.0285  0.0696  0.1388
18022W        W33153   8.772  10.518   4.941  0.2890 -0.1230  0.1732
18023W        W33154  16.219  10.765   0.320 -0.0659 -0.0075  0.2183
18024W        W33155   1.727  14.532   4.622 -0.1586 -0.0225 -0.1785
18025W        W33156  11.208   9.047   1.446 -0.0684  0.0321  0.0817
18026W        W33157   2.687   4.679   5.666 -0.0198 -0.2072 -0.1388
18027W        W33158  17.639   3.629   3.610  0.1491  0.0708  0.0682
18028W        W33159  12.651   3.723   6.184  0.1131  0.0809 -0.0966
18029W        W33160   4.347  14.266   4.263  0.5126  0.2737 -0.0135
18030W        W33161   4.283   4.633   0.897  0.1677  0.3159  0.1124
18031W        W33162  17.978   0.699   0.255  0.2558  0.3059  0.1527
18032W        W33163   0.104   3.306   0.092  0.1450  0.3002  0.0447
18033W        W33164   1.718  10.756   0.210  0.1323  0.1200  0.1194
18034W        W33165   2.518   7.273   2.949  0.1045 -0.4618 -0.0198
18035W        W33166  18.377  10.537  11.866  0.0952  0.3479 -0.1331
18036W        W33167  15.609   5.571   1.430 -0.2025 -0.0694  0.2337
18037W        W33168  11.041  11.726   4.774 -0.4179  0.0268  0.2348
18038W        W33169  10.216   8.163   1.654 -0.1176  0.2164  0.2758
18039W        W33170  14.805  14.698  13.251  0.0624  0.2736  0.2331
18040W        W33171  12.863  15.601  13.288  0.0691 -0.2211  0.1104
18041W        W33172   8.360  11.991   3.949  0.4623 -0.1383  0.1533
18042W        W33173  14.908  10.450  12.341 -0.0935  0.2282 -0.1221
18043W        W33174   2.054  11.324   2.289 -0.2384 -0.3915  0.0932
18044W        W33175  16.440  16.242   3.851  0.0365  0.1694  0.0248
18045W        W33176  14.534   8.793   1.652  0.0227 -0.2091  0.2888
18046W        W33177  18.473  14.356  11.931 -0.0330 -0.1196  0.2384
18047W        W33178  14.742  10.054   1.362 -0.0940  0.3109  0.1221
18048W        W33179   9.546  17.854   5.367  0.1393 -0.1855  0.0236
18049W        W33180  17.652  11.856  12.499 -0.0723 -0.0824  0.2187
18050W        W33181   9.355  16.202  14.991  0.2086  0.4914  0.4032
18051W        W33182   6.267   8.038  15.633 -0.0309  0.0286  0.2036
18052W        W33183  11.082  12.079   1.018 -0.1946  0.1914  0.1984
18053W        W33184   5.584  16.526   1.203  0.0257 -0.2721 -0.2463
18054W        W33185  14.334  10.550  13.333  0.1516 -0.3123 -0.0425
18055W        W33186   8.463   2.264   1.123  0.1085  0.0107  0.0269
18056W        W33187   9.690   3.230   4.713 -0.1206 -0.1264 -0.1209
18057W        W33188   5.640   7.988  13.056  0.0500  0.0570 -0.0933
18058W        W33189   6.825  14.108   1.935 -0.3058 -0.0846  0.1814
18059W        W33190  15.723   1.213   0.750  0.2294 -0.4074  0.4553
18060W        W33191   8.475   3.848  14.997  0.1407  0.1043 -0.2731
18061W        W33192  14.422  16.186  11.734  0.1040  0.2110  0.1612
18062W        W33193  11.889  13.809  11.404  0.2883  0.1652 -0.0368
18063W        W33194  11.460  15.061  11.908  0.0467  0.4573  0.1057
18064W        W33195  12.096   3.620   3.971  0.0175 -0.1320 -0.3478
18065W        W33196  15.162  11.360   3.205  0.0523 -0.0444 -0.1600
18066W        W33197  10.744  14.230  13.215  0.4450  0.0555 -0.0740
18067W        W33198   4.341  13.141  13.524 -0.3523 -0.0849  0.2829
18068W        W33199   0.193   7.274  12.094 -0.1989  0.1227 -0.2560
18069W        W33200   3.263   3.197   3.840 -0.1309 -0.1635 -0.1979
18070W        W33201  14.441   1.637   6.254  0.0114  0.0732 -0.1392
18071W        W33202  17.676  17.293   0.430  0.1718 -0.1098 -0.0036
18072W        W33203   4.826   3.136   4.445 -0.2244 -0.0190  0.3814
18073W        W33204   3.072  17.235  13.001 -0.1372 -0.1101 -0.0286
18074W        W33205  15.624  12.195  13.544  0.0019  0.0426 -0.4477
18075W        W33206   1.728  13.489  14.154 -0.2083 -0.0898  0.0748
18076W        W33207  13.080  12.609  15.151 -0.0991  0.4387  0.0634
18077W        W33208  15.181  16.766   3.088  0.1453 -0.1331  0.4304
18078W        W33209   0.601  18.210  12.239 -0.0086  0.0034  0.2237
18079W        W33210   4.002   5.734  16.055  0.2613 -0.2594  0.1927
18080W        W33211   5.084  12.144   5.899  0.1361 -0.2912 -0.0829
18081W        W33212  17.752  11.564   3.930 -0.0849 -0.1721 -0.0393
18082W        W33213   4.902  12.629  14.172  0.3426 -0.1265 -0.2271
18083W        W33214   5.129  16.115  13.924 -0.0640  0.1074  0.0844
18084W        W33215   0.439   5.486   1.802 -0.4313  0.1275  0.2767
18085W        W33216   6.347   0.723   4.607 -0.0516  0.1395 -0.0893
18086W        W33217  15.163   9.771   2.175 -0.0761 -0.0251  0.0585
18087W        W33218   0.936  14.887  10.832 -0.4576 -0.0087  0.2104
18088W        W33219   4.239   9.278  15.662 -0.1016 -0.1304  0.5561
18089W        W33220   3.129   1.427   3.026 -0.3422  0.2309  0.2622
18090W        W33221   7.585  15.426   4.683 -0.1527 -0.2262 -0.1339
18091W        W33222  11.184   5.657   0.516 -0.1396 -0.2986  0.0871
18092W        W33223   3.251  14.476   2.974 -0.3769  0.0703 -0.0515
18093W        W33224  12.247   7.353   4.005  0.0412 -0.0636 -0.1139
18094W        W33225  16.117  17.507  12.994  0.3841 -0.1433  0.2554
18095W        W33226   5.117   7.858   3.259 -0.2295  0.1057 -0.1247
18096W        W33227   8.145   3.051  14.955 -0.2018  0.2394 -0.1371
18097W        W33228   0.914   9.532   2.095  0.2728  0.2508 -0.0417
18098W        W33229  11.634  12.103   5.223 -0.3439  0.2484 -0.1280
18099W        W33230  10.519  12.155  14.417 -0.1834  0.0255  0.2558
18100W        W33231  17.452   7.733  13.938  0.3141 -0.2944  0.0417
18101W        W33232   2.283   3.197   2.250 -0.0775  0.1397  0.2633
18102W        W33233   0.258   3.478  13.397  0.5092 -0.1274  0.4239
18103W        W33234   6.000   9.843  13.241  0.1823  0.0230  0.3029
18104W        W33235  17.554   1.218  14.605  0.0776  0.2921  0.2693
18105W        W33236  13.206   7.047  13.196  0.0874 -0.1472  0.0850
18106W        W33237  14.946   0.942   2.919 -0.0766 -0.3329  0.0642
18107W        W33238  11.687   2.675  12.930 -0.1053  0.2923  0.2621
18108W        W33239  18.059  13.530  14.657  0.0661 -0.1924 -0.3391
18109W        W33240   5.170  13.483  11.934  0.2376  0.2014 -0.2255
18110W        W33241   5.977  10.227   3.551 -0.0986  0.0547  0.1735
18111W        W33242  11.685   0.145   6.310  0.0928  0.1104  0.0593
18112W        W33243  13.382   9.786  14.677 -0.1404 -0.2513  0.1050
18113W        W33244  16.541   3.761  13.720 -0.3555  0.0724 -0.0507
18114W        W33245   6.214  14.853   1.879  0.3217  0.1562 -0.0364
18115W        W33246   5.321  13.069  16.067  0.2210 -0.0971 -0.0454
18116W        W33247  13.225  11.879  14.315 -0.2681  0.0363  0.1922
18117W        W33248   1.886   6.802  13.722  0.2592 -0.1301  0.1910
18118W        W33249   5.233   4.496   2.221  0.0598 -0.0114 -0.1327
18119W        W33250  17.822   9.609   4.261  0.0101 -0.1610 -0.0472
18120W        W33251   4.998   4.185  14.365  0.0673  0.0297 -0.2242
18121W        W33252  16.766   6.698  13.397  0.0075 -0.0281 -0.1304
18122W        W33253   7.287   4.200   4.718  0.1159 -0.0757  0.0581
18123W        W33254  11.407   2.244  12.855 -0.2367  0.0762 -0.1407
18124W        W33255  16.487   8.596  12.930 -0.1536  0.0517  0.4088
18125W        W33256  14.464  13.670  14.682  0.1654 -0.1894  0.2921
18126W        W33257   4.331  17.483   0.611 -0.2998  0.0353  0.1008
18127W        W33258   6.967  11.648   2.653  0.0910 -0.0067  0.1195
18128W        W33259  17.892   9.839   5.721 -0.3654  0.0349  0.1757
18129W        W33260   0.984  18.237   0.993  0.0799 -0.1738  0.1523
18130W        W33261   5.978   5.334  11.617 -0.2488  0.0285 -0.0699
18131W        W33262  15.991  14.421   2.168  0.1157 -0.0255 -0.1704
18132W        W33263   4.121   5.463   3.394  0.0955  0.1722 -0.3314
18133W        W33264  15.341  16.440   5.499  0.2590  0.0185  0.0516
18134W        W33265  15.875  16.693   1.397 -0.0565 -0.0752 -0.0466
18135W        W33266   9.607  16.109   5.329  0.1184 -0.1474  0.0227
18136W        W33267   0.447  17.689  10.606 -0.0356 -0.0497 -0.2287
18137W        W33268   2.183   4.620   5.510  0.2395 -0.1183 -0.4013
18138W        W33269  17.919   3.579   2.418 -0.2212 -0.2016 -0.2595
18139W        W33270  10.559  13.362  12.154  0.3178 -0.0709  0.1361
18140W        W33271  15.843  16.580   2.463 -0.0282 -0.1931 -0.0494
18141W        W33272  11.557   8.794   5.762 -0.0280 -0.1932 -0.2809
18142W        W33273   4.237   3.639  10.383  0.0073 -0.3812  0.1061
18143W        W33274   8.506   9.618   4.285  0.3196 -0.0277  0.2211
18144W        W33275   2.362   9.685   5.753 -0.1390  0.1440  0.3753
18145W        W33276   6.182   4.709   3.367  0.2007 -0.1409 -0.1101
18146W        W33277   1.077  12.582  11.882 -0.0538 -0.0011 -0.0750
18147W        W33278   5.015   6.233   3.871  0.0506  0.3014  0.0406
18148W        W33279   0.758  14.973   9.733 -0.0618  0.0541 -0.1065
18149W        W33280   2.651   4.281   3.882  0.0020  0.0743  0.1340
18150W        W33281   6.940  13.297  15.364  0.1612  0.1876 -0.0377
18151W        W33282  11.180  13.107  12.788 -0.1532 -0.0094  0.3790
18152W        W33283   1.719  10.277  14.257  0.2842  0.0158 -0.0281
18153W        W33284   8.592   5.569  11.386  0.0675  0.2516 -0.0739
18154W        W33285   3.318  16.723  10.966 -0.2472  0.0183 -0.0704
18155W        W33286  11.070  11.198   1.584  0.0672  0.5618  0.2750
18156W        W33287   3.347   9.645   2.440 -0.0831 -0.3227  0.3710
18157W        W33288  14.481   8.453  13.239  0.0932 -0.0501  0.1830
18158W        W33289  10.231   8.381  11.696  0.0501 -0.3772 -0.3300
18159W        W33290  12.898  15.085   4.584  0.0887 -0.1208  0.3035
18160W        W33291  18.368   4.922   2.457  0.2896  0.0096 -0.1399
18161W        W33292  14.856  10.009   5.877 -0.0452  0.0876  0.0626
18162W        W33293  13.519   8.289   0.860  0.1741 -0.3806  0.2084
18163W        W33294  15.377  12.221   0.377 -0.2012 -0.1172 -0.0752
18164W        W33295   7.424  15.801  14.324 -0.0908  0.2604 -0.2329
18165W        W33296  10.110  13.896  15.227  0.0495  0.0578  0.1463
18166W        W33297  16.330  11.345   0.004  0.3556  0.4016  0.1513
18167W        W33298   9.424  11.422  12.891 -0.1345 -0.0951 -0.1518
18168W        W33299   1.695   4.716   5.396  0.3247  0.0438 -0.2112
18169W        W33300   5.219  16.780  12.167  0.1897  0.0167 -0.1619
18170W        W33301  16.132   0.691  14.993 -0.0137  0.0850  0.0205
18171W        W33302   4.469   9.994   3.334 -0.0177 -0.0703 -0.3144
18172W        W33303   8.401  12.173  13.685 -0.1323 -0.1737  0.2928
18173W        W33304   2.075  13.980   5.426  0.1772 -0.1329  0.1055
18174W        W33305  10.029   9.183  14.299 -0.0985  0.3757  0.1353
18175W        W33306   7.070  10.486   5.788 -0.1715 -0.1860  0.2852
18176W        W33307  11.690   5.252   0.498 -0.2972  0.0254 -0.3031
18177W        W33308  15.180   2.950  15.902  0.0111 -0.0530  0.0747
18178W        W33309   7.060   5.056  15.674 -0.0987  0.0376  0.1706
18179W        W33310   1.356   5.311  10.714 -0.0916  0.2877 -0.1864
18180W        W33311  11.613   9.207  14.470  0.2724  0.1167 -0.1618
18181W        W33312  10.942  15.908  14.254 -0.1289  0.0656  0.0179
18182W        W33313  11.361  12.931   4.261 -0.1405 -0.2880  0.1540
18183W        W33314   5.685   8.455  14.916  0.0071 -0.0026  0.0276
18184W        W33315   4.584   6.373   2.950 -0.1850 -0.4584  0.1843
18185W        W33316   6.904   7.512   1.278  0.3063  0.1994  0.2259
18186W        W33317   4.289  11.570  12.579 -0.0029  0.0993  0.0322
18187W        W33318  13.638  17.355  11.266 -0.0376  0.0009 -0.0643
18188W        W33319  14.975   7.625  12.807 -0.0301  0.0331  0.1808
18189W        W33320  11.085   7.296   2.997 -0.4442  0.3719  0.1759
18190W        W33321  15.420  16.955   0.767  0.1588 -0.2085 -0.0142
18191W        W33322   3.439   8.359  13.690  0.4333 -0.2745  0.2362
18192W        W33323  10.892   3.695   2.917 -0.1468  0.2859 -0.1592
18193W        W33324   4.882   4.376  11.973 -0.1457 -0.4793 -0.1658
18194W        W33325  10.016  10.558   4.714  0.1711  0.2275  0.3121
18195W        W33326   5.156  12.585   1.507 -0.0850  0.1727 -0.0494
18196W        W33327   7.771  14.302  15.653  0.0405 -0.0879  0.1501
18197W        W33328   7.110   7.948   2.792 -0.0797 -0.0334  0.0295
18198W        W33329   5.202  11.820   0.609  0.2458  0.0721  0.0697
18199W        W33330  18.051  11.354   3.008 -0.1533 -0.5723 -0.1854
18200W        W33331  14.500   1.747  13.747 -0.2124  0.3813  0.2328
18201W        W33332   8.711   4.046   2.216  0.1596 -0.0164 -0.0151
18202W        W33333  15.768  11.557   6.012 -0.0130  0.0952  0.0433
18203W        W33334   9.128   0.740   1.881 -0.0284  0.1984 -0.0981
18204W        W33335  12.244   3.417   2.059  0.0865 -0.1224 -0.0777
18205W        W33336   5.735   5.989   2.799  0.4807 -0.0090  0.1605
18206W        W33337  11.909   0.705  14.880 -0.3765 -0.3240 -0.1088
18207W        W33338  13.876   4.046   2.729 -0.0319  0.0751  0.1493
18208W        W33339  11.708  13.838   3.023  0.0485 -0.0557  0.1948
18209W        W33340   1.618  18.017  15.089  0.0383 -0.0712  0.0381
18210W        W33341   7.482   0.032  10.885 -0.2227 -0.0165 -0.0027
18211W        W33342   9.182   2.782  13.206  0.1269  0.0096  0.2149
18212W        W33343  12.263  12.231   3.409  0.0309  0.0847 -0.0275
18213W        W33344  11.773  18.438   2.465 -0.0710  0.0232  0.0755
18214W        W33345   1.999   7.112   2.926  0.1700 -0.0182  0.1518
18215W        W33346  11.255   7.287   4.043 -0.0829 -0.0712 -0.0563
18216W        W33347  16.894  16.627   0.027 -0.2116 -0.0137 -0.3200
18217W        W33348  13.541  18.188  13.787  0.1404  0.1490  0.1401
18218W        W33349   3.248  12.891  13.775  0.2301  0.0868 -0.2423
18219W        W33350   3.425  12.847   4.044  0.1120  0.3095 -0.1346
18220W        W33351  15.091  13.375   2.726 -0.1817  0.3307  0.3002
18221W        W33352  12.653   2.909   1.996 -0.1872  0.0179  0.5764
18222W        W33353  12.071   6.034  12.087  0.0136  0.2899  0.2709
18223W        W33354   3.841   5.317   1.505  0.3449  0.1691 -0.2691
18224W        W33355  13.909   7.398  15.880 -0.2304  0.0932 -0.0000
18225W        W33356   2.975  11.600  14.984 -0.0365 -0.1073  0.1207
18226W        W33357   7.033  16.842  13.994 -0.1240 -0.3685 -0.2432
18227W        W33358   9.018   4.048   2.558 -0.2198  0.0562  0.1668
18228W        W33359   5.247   5.073   0.931 -0.0926  0.0051 -0.1761
18229W        W33360  16.048  16.375  15.388 -0.0251  0.3068 -0.4455
18230W        W33361   1.113   0.952  12.002  0.2629  0.0002 -0.0092
18231W        W33362  12.135  14.412   3.155 -0.1642  0.0358  0.1963
18232W        W33363  17.415  12.396  15.923 -0.0475  0.1958  0.2567
18233W        W33364  13.644   3.977  13.123 -0.2887 -0.1927  0.1062
18234W        W33365  10.756  18.359   3.900  0.1329 -0.0994 -0.1756
18235W        W33366   7.883   9.335   5.553  0.4150  0.0634 -0.1923
18236W        W33367  13.395  12.659  13.730  0.4594  0.0203 -0.6080
18237W        W33368   5.223  17.178   0.659  0.0823 -0.2077 -0.0713
18238W        W33369   4.355   6.806   2.820 -0.1504 -0.0264 -0.1107
18239W        W33370   8.666  13.590   0.076  0.0702 -0.2029  0.4493
18240W        W33371  18.341  14.380   4.408 -0.0502  0.0694  0.0478
18241W        W33372  11.209  16.497  13.865  0.1677 -0.0981  0.0798
18242W        W33373   4.138   5.093  12.078 -0.0423  0.0749 -0.1660
18243W        W33374   5.386   3.407  14.095 -0.2212 -0.0102 -0.0498
18244W        W33375   5.880   7.777   5.101  0.2198 -0.0218 -0.0852
18245W        W33376   3.132  17.804  11.234 -0.0368 -0.0869 -0.1438
18246W        W33377  10.610   2.901  16.026 -0.0797  0.2005 -0.0510
18247W        W33378  13.008  11.095  11.050  0.0912  0.0331  0.0805
18248W        W33379   1.161   6.080   0.012 -0.0988  0.3188  0.3554
18249W        W33380  14.066   3.084  15.126  0.1213  0.1027 -0.0463
18250W        W33381  18.384  13.597  10.373 -0.2525 -0.0950  0.2107
18251W        W33382  15.557  14.577  12.345 -0.1457  0.1610  0.1502
18252W        W33383   0.081  13.276  11.266  0.0798 -0.0165  0.1501
18253W        W33384   5.350   0.201   0.727 -0.1752  0.2172  0.3971
18254W        W33385  17.422   5.230   2.131 -0.2208  0.0469  0.1721
18255W        W33386  10.375   0.851   4.056  0.3337 -0.2991  0.0893
18256W        W33387   6.624  16.244   3.706 -0.3232 -0.0055 -0.0260
18257W        W33388   5.800  16.054   1.225  0.1836  0.0808  0.3754
18258W        W33389  12.375  15.289   2.450  0.0330 -0.0786  0.0042
18259W        W33390   4.354  13.642   0.017 -0.0347 -0.0884  0.0815
18260W        W33391  15.706   9.306   3.853 -0.2255  0.2966  0.0193
18261W        W33392   3.357   1.735   3.285  0.2565 -0.1211  0.2488
18262W        W33393   9.737   0.313  13.123 -0.1229  0.0710 -0.0733
18263W        W33394   4.279   3.163  14.719 -0.1280 -0.6044  0.0437
18264W        W33395  18.416   0.578  10.812 -0.1856 -0.0945 -0.1860
18265W        W33396   1.754  12.262   1.185  0.1354 -0.3490  0.0396
18266W        W33397   2.369   1.075  10.341  0.1771  0.2859 -0.1348
18267W        W33398  12.414   9.676  14.730 -0.0234  0.1173  0.0278
18268W        W33399   4.886   4.026  15.184 -0.1529  0.1807 -0.2753
18269W        W33400  17.463   4.670   0.696  0.1794  0.3202 -0.0813
18270W        W33401  11.874   6.137   0.816  0.0425 -0.3177 -0.2157
18271W        W33402   7.219   2.242   2.888  0.0527 -0.2236  0.1136
18272W        W33403  11.413   0.219   5.918 -0.0989  0.2190  0.3224
18273W        W33404  13.094  12.584  11.414 -0.2951  0.3862  0.0480
18274W        W33405   2.889  10.472  12.610 -0.0774 -0.3039 -0.1477
18275W        W33406   5.147   6.039   0.981  0.1549 -0.0746  0.1423
18276W        W33407   4.889   5.458   3.110 -0.1402 -0.0589  0.1326
18277W        W33408   5.320  13.526   3.437  0.0369 -0.2348  0.0093
18278W        W33409   7.343   2.921   1.792  0.1764  0.2546  0.1106
18279W        W33410   3.573  17.571   2.715 -0.2190 -0.0572  0.3396
18280W        W33411   2.480  11.533  15.166 -0.1039  0.5561  0.1492
18281W        W33412  17.978  10.925   2.695  0.1671 -0.0933  0.3534
18282W        W33413  16.982  17.467  15.797  0.7249 -0.0122  0.0745
18283W        W33414  12.479  15.461  15.067 -0.0240  0.3585 -0.0877
18284W        W33415  11.930  12.107   1.184  0.0739 -0.1967 -0.2018
18285W        W33416  14.098   6.501   5.340 -0.0656  0.0174 -0.3661
18286W        W33417   4.483   9.263   2.262 -0.1946 -0.2811  0.2536
18287W        W33418  11.359   4.351   4.205 -0.1396  0.0847 -0.2756
18288W        W33419  14.879   1.986  15.518 -0.0051  0.0869 -0.1162
18289W        W33420  15.281   8.502  11.351 -0.0565  0.3889  0.0566
18290W        W33421   2.910   9.367   4.615 -0.0009  0.0124  0.2413
18291W        W33422  12.641  13.316   2.061  0.2897 -0.0211  0.2374
18292W        W33423  17.757   2.806  11.517  0.3102 -0.0128 -0.0287
18293W        W33424  15.181   1.902  12.498  0.0050  0.0283 -0.1391
18294W        W33425  11.817  16.608  12.116  0.1322 -0.0564  0.0948
18295W        W33426   7.062  16.677  10.702  0.1668  0.2659 -0.1733
18296W        W33427  11.119  13.146   5.161  0.1970 -0.2359  0.1672
18297W        W33428  15.893  13.687   1.453  0.1027 -0.0769 -0.0402
18298W        W33429  14.258   2.113  10.490 -0.1028 -0.0880 -0.0255
18299W        W33430   9.197   3.341   1.612  0.0852 -0.1366 -0.0447
18300W        W33431   7.662  17.655  11.587  0.2999 -0.0679 -0.2079
18301W        W33432   5.087  18.192   0.688  0.4742 -0.1160  0.2354
18302W        W33433   6.274   9.056  11.004  0.1578  0.3900  0.1101
18303W        W33434   1.501   0.997  14.988 -0.1511  0.1258 -0.1702
18304W        W33435   2.284  12.810  13.592  0.0541  0.0748  0.1301
18305W        W33436   5.125   9.582   5.201  0.0231  0.0689  0.1485
18306W        W33437   3.551   4.088  11.238 -0.0678 -0.0398 -0.5909
18307W        W33438  15.463   1.612  12.843 -0.1660  0.2856 -0.4821
18308W        W33439  13.831   6.903   0.647 -0.2453  0.0686 -0.0741
18309W        W33440   5.811   1.518  15.727  0.2596 -0.1127 -0.0865
18310W        W33441   5.622   8.256   2.794  0.0416  0.0353  0.1208
18311W        W33442   7.882  16.798  13.607 -0.1146  0.1937 -0.2343
18312W        W33443  16.922   7.208   5.430  0.1205 -0.0410  0.2719
18313W        W33444   5.210   3.317  11.649 -0.2340  0.1729  0.2407
18314W        W33445  17.153   2.652   3.107  0.3018  0.0733  0.3431
18315W        W33446  11.687  15.992   1.322 -0.0986  0.3036  0.0566
18316W        W33447   6.944  10.398  11.586  0.3255 -0.0214  0.5919
18317W        W33448  18.278   9.159   2.693  0.3194 -0.0170 -0.3055
18318W        W33449  14.142  14.556   1.051 -0.1142  0.1270 -0.1019
18319W        W33450   1.975  15.064  14.228 -0.0971 -0.1636 -0.1918
18320W        W33451  14.538   1.727  12.429  0.0150  0.0941  0.1153
18321W        W33452   0.936  11.811   1.355  0.0090  0.2209  0.2073
18322W        W33453   2.203  17.309  12.373 -0.0249  0.1130  0.3245
18323W        W33454  18.305  13.072  14.495 -0.0938  0.2247 -0.0140
18324W        W33455  12.950  10.961   2.368 -0.3178 -0.0388 -0.1476
18325W        W33456   1.470   0.892  15.724  0.0118 -0.0289  0.2224
18326W        W33457   9.503   1.188   3.824  0.1966 -0.2219  0.0164
18327W        W33458  12.583  16.712  15.585 -0.2010 -0.3048 -0.3294
18328W        W33459   6.039  16.006   0.728 -0.0297 -0.2902  0.2796
18329W        W33460  17.724  15.434  10.239  0.4858  0.4761  0.0370
18330W        W33461  15.538  13.589   2.655  0.0253  0.0876 -0.1300
18331W        W33462  18.088  17.964  12.715 -0.3305  0.0825  0.1755
18332W        W33463  10.646   8.149   2.471  0.2342 -0.1273 -0.1254
18333W        W33464  18.292   1.604  11.210  0.0018  0.3837 -0.1197
18334W        W33465  15.556  18.188   2.580 -0.0274 -0.1089 -0.1016
18335W        W33466   4.514   4.138  12.323 -0.1322  0.0558  0.1906
18336W        W33467   1.345   2.110  14.757 -0.1164 -0.4403  0.1079
18337W        W33468  14.472   9.415   2.969 -0.2081 -0.0775 -0.0429
18338W        W33469   9.749   4.348   2.264  0.3320  0.0835  0.1209
18339W        W33470  15.500   2.481   1.645  0.2768  0.2911  0.0203
18340W        W33471   0.749  10.337  12.116  0.3025 -0.2575 -0.2014
18341W        W33472   0.476   4.889  11.977 -0.4495 -0.3464  0.1170
18342W        W33473   8.502  16.269  14.867  0.1593 -0.0482  0.1933
18343W        W33474   6.173   6.901  14.875  0.1556  0.0290  0.0712
18344W        W33475  16.855  12.982  13.028  0.2348 -0.0502 -0.0796
18345W        W33476   8.934   1.008  12.262 -0.0566 -0.0003  0.0348
18346W        W33477  14.774   6.149   2.569 -0.0239  0.0773 -0.2162
18347W        W33478  12.022   3.283  14.525  0.0651  0.1046  0.1209
18348W        W33479  14.223   0.808  14.611  0.0573 -0.0878  0.4933
18349W        W33480  12.833   3.742   4.516  0.0090 -0.1567  0.4106
18350W        W33481  13.072   3.443  11.416  0.1630  0.1716 -0.1045
18351W        W33482   9.000   7.021   1.312 -0.0604  0.1952 -0.1774
18352W        W33483   7.856   7.856  14.369  0.3983  0.0700  0.1805
18353W        W33484  11.354   1.883  15.434  0.0071 -0.0037 -0.0800
18354W        W33485  16.518   7.801   3.312 -0.1742 -0.0139  0.0247
18355W        W33486  17.130   0.518  12.379  0.0829 -0.2994  0.1564
18356W        W33487  18.398  18.287   2.570 -0.0709 -0.2090 -0.2336
18357W        W33488  10.440   0.602  12.614 -0.2652 -0.0494  0.1641
18358W        W33489  16.690   8.584  11.477  0.1855  0.0013 -0.3295
18359W        W33490   9.335  18.112   2.852  0.0347 -0.1440  0.2696
18360W        W33491  14.922   4.783  15.338 -0.1785  0.1954 -0.0871
18361W        W33492   7.828   3.728   0.264 -0.2283 -0.2266  0.2876
18362W        W33493   4.553  14.873   4.831 -0.1067 -0.0877 -0.0132
18363W        W33494   4.559  17.153  12.598  0.0590  0.1381  0.1653
18364W        W33495  17.101  17.997   4.437  0.0095  0.1584  0.0703
18365W        W33496  17.710   5.863  12.069 -0.3545  0.2202  0.1036
18366W        W33497   8.111   1.378   3.338 -0.2783 -0.0793  0.2788
18367W        W33498  10.685  15.228   0.731  0.0501 -0.0258  0.1791
18368W        W33499  14.476   6.094   2.142  0.2852  0.1472  0.4196
18369W        W33500  14.237   0.284   3.836 -0.3625  0.0240 -0.1095
18370W        W33501   1.415   3.207  15.038 -0.1184  0.1999  0.1250
18371W        W33502  16.214   7.628  15.821  0.0689 -0.0103  0.0366
18372W        W33503  11.176  17.164  14.957 -0.3114 -0.1450  0.0119
18373W        W33504   0.556  16.687   4.308 -0.0259  0.0057  0.3797
18374W        W33505   5.041  18.041   4.678  0.3297 -0.2396  0.1535
18375W        W33506  12.668  15.814   0.229 -0.0239 -0.1043  0.1724
18376W        W33507  11.774   2.730   5.368  0.0481 -0.1161 -0.0004
18377W        W33508  10.424  16.407  11.428 -0.1254  0.0318  0.1121
18378W        W33509   0.905   6.509  11.192 -0.0281  0.3463 -0.3120
18379W        W33510   6.354  11.791   1.205  0.0598 -0.0009  0.1733
18380W        W33511  11.142  12.969  14.417 -0.2001 -0.1170 -0.0782
18381W        W33512  12.574   3.187  15.972 -0.0645  0.0825 -0.0579
18382W        W33513   1.323   0.283  15.715 -0.0615  0.1562  0.2217
18383W        W33514   3.220   2.712   2.010 -0.0080  0.3352 -0.3856
18384W        W33515   4.812  11.020  11.572 -0.2280 -0.2516  0.2252
18385W        W33516   5.234   9.743   2.949  0.1774 -0.0757  0.3920
18386W        W33517   4.605   4.193  14.016  0.1313 -0.1222  0.3078
18387W        W33518   8.547  12.720   4.846  0.0381  0.3253  0.0518
18388W        W33519   6.444   4.900   2.195  0.1130 -0.1391 -0.2317
18389W        W33520   4.328   5.443   1.995 -0.2767  0.0218  0.2860
18390W        W33521  12.114  18.352  10.491  0.1848  0.0282  0.1934
18391W        W33522  11.968  11.885   4.226 -0.2565 -0.3853  0.1271
18392W        W33523  14.651  13.392  12.619  0.1132  0.1759  0.1296
18393W        W33524   8.342  11.481  12.008 -0.2873  0.0967 -0.0824
18394W        W33525  12.950  15.563   4.615 -0.0925 -0.0221 -0.0655
18395W        W33526  16.002  13.917   0.173 -0.4585  0.1765 -0.2428
18396W        W33527   9.309  12.211  15.675 -0.4108  0.0233 -0.0374
18397W        W33528  10.693   3.940   4.255  0.1517  0.2522 -0.0797
18398W        W33529  10.980  17.020  15.389 -0.0490  0.0809 -0.0776
18399W        W33530   2.630   3.626  13.408  0.1221  0.0837 -0.1961
18400W        W33531  13.186   6.797   5.523 -0.3160 -0.3071  0.1997
18401W        W33532   1.271  15.623  14.070 -0.2855 -0.0908  0.0492
18402W        W33533   8.986   9.324  14.161  0.0219 -0.1564 -0.1605
18403W        W33534  13.459  17.486  11.862  0.3392 -0.1371  0.0540
18404W        W33535   1.557   7.577  13.093  0.0298  0.3612  0.0562
18405W        W33536  16.658  16.279  12.639  0.2553 -0.1605 -0.5311
18406W        W33537   7.458   1.644  11.683 -0.0792 -0.1472  0.5540
18407W        W33538  18.326   3.345   1.751  0.0599 -0.0544 -0.1859
18408W        W33539   5.243  18.092   1.578 -0.1977  0.1006 -0.0754
18409W        W33540   7.862  12.269  10.358 -0.0897  0.2349  0.1616
18410W        W33541   9.322  10.172  11.561  0.0042  0.0510  0.3155
18411W        W33542   8.514  11.695   5.150 -0.0649 -0.1237  0.1219
18412W        W33543  15.844  11.851   4.634  0.0302  0.4572 -0.2425
18413W        W33544   2.780   3.413   3.608 -0.2372  0.4868  0.3995
18414W        W33545   3.488  17.741  11.797  0.1430  0.3944  0.0237
18415W        W33546   2.609  15.371   9.096 -0.3047 -0.0110 -0.0600
18416W        W33547   0.839  12.410   4.584  0.2463  0.0613  0.1817
18417W        W33548  12.982   6.712  13.682  0.1370 -0.0544 -0.0730
18418W        W33549   9.579  15.449   4.994 -0.1597 -0.1110 -0.0022
18419W        W33550  16.523   2.666  14.843  0.1701  0.0798  0.1523
18420W        W33551   5.194  13.438   0.315  0.0763  0.1344 -0.0466
18421W        W33552  11.828  12.160  12.797  0.2594 -0.2138 -0.0081
18422W        W33553   2.725   5.940  13.803  0.1299 -0.2514  0.0164
18423W        W33554   8.351  18.399  13.930  0.2294  0.2274  0.1413
18424W        W33555   0.319   2.219  13.687  0.1034 -0.2612  0.2085
18425W        W33556  13.683   6.171  13.370 -0.1664  0.0526  0.1423
18426W        W33557   0.870  15.869   4.077 -0.3441 -0.5177 -0.2263
18427W        W33558  10.103   0.624   0.865  0.3133 -0.0647  0.1830
18428W        W33559  10.988   8.176  12.777 -0.0239 -0.3507  0.2615
18429W        W33560  11.729  17.149   4.854  0.0103  0.1811 -0.1213
18430W        W33561  10.453   7.991  15.852  0.0948 -0.0939  0.1662
18431W        W33562   5.021  17.949  11.482 -0.0918 -0.1098 -0.1014
18432W        W33563   3.259  15.114   2.375 -0.0034  0.1790  0.4976
18433W        W33564   4.400   9.674  14.692 -0.1694 -0.5649 -0.2589
18434W        W33565  11.329  13.628   0.179  0.0656  0.0185 -0.1156
18435W        W33566   4.837  18.003   0.348 -0.1373  0.3018  0.2305
18436W        W33567  12.778  17.438   5.503 -0.0717  0.0811 -0.1255
18437W        W33568   6.375   2.585  12.405  0.0994 -0.0180  0.0745
18438W        W33569   0.488   1.709   1.546  0.1186  0.1195 -0.2501
18439W        W33570  11.425  10.120   2.583 -0.1993  0.0462 -0.2691
18440W        W33571  12.568  15.707  12.813  0.1564  0.1243 -0.0859
18441W        W33572   6.872   0.408  10.603  0.1902 -0.0409  0.1170
18442W        W33573   2.010  16.985  11.325 -0.0601  0.1339 -0.1023
18443W        W33574   0.068  15.586  11.317  0.2439  0.2341  0.2133
18444W        W33575   0.202   4.617   2.198 -0.0634 -0.0421 -0.2060
18445W        W33576  12.650  13.734  13.305  0.0346  0.2040  0.0306
18446W        W33577  18.084  10.401   2.909  0.0091  0.3379  0.0671
18447W        W33578   2.893  17.050   3.103  0.2219 -0.0447 -0.2190
18448W        W33579  14.880   9.159  13.931  0.0620 -0.0418 -0.0407
18449W        W33580   6.166   5.839  13.399  0.0351 -0.2319  0.1677
18450W        W33581   7.177  16.188   2.222  0.1364 -0.1804 -0.1348
18451W        W33582   8.102  18.191   1.076 -0.3677  0.1443  0.2180
18452W        W33583   4.692  18.024  12.190 -0.0113  0.2022  0.0944
18453W        W33584   0.504  15.554  15.732 -0.3818  0.1942 -0.2031
18454W        W33585   3.736   2.554   3.745 -0.0879  0.0558 -0.1215
18455W        W33586  11.971  13.596   3.492 -0.2631  0.1920 -0.1693
18456W        W33587  14.633   6.946   4.916  0.0700  0.1356  0.3826
18457W        W33588  18.282  12.445   0.335 -0.4107  0.2375 -0.2928
18458W        W33589   6.165  17.552  13.297  0.2990  0.0961 -0.2722
18459W        W33590   9.623   4.349  14.122 -0.3568  0.0799  0.0082
18460W        W33591   1.737  15.983  12.077 -0.1533  0.2598  0.3467
18461W        W33592   3.534   8.500  15.646  0.0197 -0.1086  0.0265
18462W        W33593  18.403  15.924   4.237 -0.0721 -0.0934 -0.0274
18463W        W33594   4.122  18.164  10.413 -0.1463 -0.1078 -0.0187
18464W        W33595  13.322  14.885  12.152  0.2765 -0.1905 -0.0796
18465W        W33596   4.512   9.692  12.705 -0.0079 -0.0416  0.2198
18466W        W33597  13.136  10.648  12.370  0.0170 -0.1757  0.2409
18467W        W33598   0.143   3.792  14.346 -0.1093  0.0711 -0.0046
18468W        W33599   4.081  11.537   1.693  0.0816  0.1505 -0.4129
18469W        W33600  12.195  18.388   4.888 -0.1807  0.2814 -0.3023
18470W        W33601  15.796   7.083   4.893  0.1554 -0.3438  0.1005
18471W        W33602   4.945  17.630   2.011 -0.1956  0.0204  0.3870
18472W        W33603  13.329   1.205  13.454  0.0106  0.2087  0.0455
18473W        W33604   4.821   1.889  15.668  0.1045  0.1553  0.0454
18474W        W33605   1.056  13.255  12.464 -0.0284 -0.5325  0.2305
18475W        W33606  14.693   1.209   4.539  0.0921 -0.0124 -0.1139
18476W        W33607   8.672   9.737  15.881  0.4402 -0.0815  0.0586
18477W        W33608   7.848  10.864  12.454  0.0444  0.0039 -0.0518
18478W        W33609  15.133   7.086  11.976  0.0116 -0.0953 -0.1414
18479W        W33610   6.623  11.428  15.926  0.0271  0.0203 -0.1318
18480W        W33611   2.900  11.133  13.986 -0.1546  0.0182  0.1549
18481W        W33612   4.980   6.517   1.253  0.0792  0.0299 -0.1078
18482W        W33613   2.941   1.948  13.501 -0.3835 -0.1278 -0.2184
18483W        W33614  18.186  13.023   0.516  0.1701 -0.1180 -0.3899
18484W        W33615   1.083  10.276  11.783 -0.1519  0.0262 -0.0206
18485W        W33616  10.763   9.341  12.619 -0.2916 -0.0627 -0.1327
18486W        W33617   1.699  10.755   4.739 -0.1009  0.2707  0.0084
18487W        W33618  12.138  10.233  15.556 -0.0311  0.0509 -0.1765
18488W        W33619  17.373  16.492   3.784 -0.0051  0.0456 -0.1161
18489W        W33620  15.355   8.536   1.060  0.3883  0.2790 -0.1416
18490W        W33621   8.126   8.497   0.945 -0.1141 -0.2043 -0.0634
18491W        W33622  11.169  14.928  15.297  0.1400  0.5344  0.1527
18492W        W33623  13.460   3.061   4.981 -0.2636 -0.1230  0.0646
18493W        W33624  13.882   7.012   5.421  0.3698  0.0486 -0.0319
18494W        W33625  16.821   2.450  15.527  0.1185  0.3963  0.0063
18495W        W33626  17.109  16.224   4.223 -0.2959  0.2346 -0.3305
18496W        W33627   7.269   4.415   3.410 -0.2593 -0.0057 -0.0285
18497W        W33628   3.867  14.282  11.813 -0.1793  0.5145  0.1194
18498W        W33629   5.488   7.185  11.104  0.1216 -0.4170 -0.0702
18499W        W33630   8.053  14.115  14.166 -0.2157 -0.3458  0.1694
18500W        W33631  16.670  12.692   1.785  0.0897  0.0427 -0.1203
18501W        W33632   9.420   8.078   2.259  0.0551  0.0317 -0.0754
18502W        W33633   7.484   2.991  12.178  0.0316 -0.0856  0.0296
18503W        W33634   2.696   6.227   4.366  0.1173  0.0838  0.2400
18504W        W33635  14.934  17.031  13.331 -0.0754  0.2004 -0.0407
18505W        W33636  12.189   4.769   4.655  0.2551 -0.1556 -0.0331
18506W        W33637  15.059  11.701  15.138 -0.2209 -0.0711  0.2015
18507W        W33638   5.541  16.184  12.266 -0.2272 -0.0846  0.0542
18508W        W33639  18.303  10.489   2.501 -0.1227  0.0977  0.4168
18509W        W33640   4.765   1.995   0.254  0.1056  0.0601  0.1692
18510W        W33641  17.453  11.411  13.302  0.0677 -0.1702 -0.1673
18511W        W33642  14.213  11.150  14.603 -0.2773 -0.0579  0.1225
18512W        W33643  13.032  16.058   5.375 -0.3721 -0.0070  0.2928
18513W        W33644  13.526   4.882   2.576 -0.2949  0.3111 -0.3981
18514W        W33645   0.363   2.032   0.180 -0.0241  0.2924  0.0076
18515W        W33646   0.185   8.512   3.860  0.0249  0.2540  0.1714
18516W        W33647  12.406  14.900   0.465  0.0245  0.2304 -0.2774
18517W        W33648   1.701   7.253  13.421 -0.4339  0.4617 -0.3225
18518W        W33649   8.559   4.591  13.991 -0.4741  0.0326  0.0923
18519W        W33650   1.004   3.300  12.534 -0.0915 -0.0608 -0.0802
18520W        W33651   1.669   4.702  12.814 -0.0799  0.1182 -0.0909
18521W        W33652   2.979  13.513  15.753 -0.0499 -0.1316 -0.0858
18522W        W33653   0.596   3.514  15.196  0.2684 -0.0037 -0.0674
18523W        W33654  13.791   5.770  12.993  0.2153  0.0066  0.2261
18524W        W33655  15.978  15.542  13.939  0.3799 -0.1962  0.2212
18525W        W33656   9.681   0.748   3.482 -0.1720 -0.0751 -0.0343
18526W        W33657   7.482   5.476   0.407  0.0625 -0.1857 -0.1405
18527W        W33658   4.309   2.543   5.601 -0.3865 -0.0886 -0.3539
18528W        W33659   5.654   6.609   3.443  0.3167  0.1454  0.0218
18529W        W33660   4.465   0.548   3.439  0.0350 -0.0658 -0.0035
18530W        W33661   3.777  18.341  14.140  0.0102 -0.1080 -0.2220
18531W        W33662  13.862  13.974  11.893  0.0755  0.0785  0.0641
18532W        W33663  17.113   7.655   3.939 -0.3144  0.2976  0.0394
18533W        W33664  12.434   7.007  12.238  0.1906  0.3477  0.3697
18534W        W33665   5.131  11.196  11.086  0.1906 -0.0961  0.2169
18535W        W33666   1.772  10.236   5.619 -0.0613 -0.0370  0.1520
18536W        W33667  11.981  10.213  13.197 -0.1375 -0.0085  0.4365
18537W        W33668  11.570  18.048   2.869  0.1491  0.1036 -0.0219
18538W        W33669   1.531   1.328  10.391 -0.0497  0.1884 -0.2843
18539W        W33670   6.973   6.914  13.423 -0.0010 -0.1794  0.3951
18540W        W33671  11.689   7.254   2.164 -0.2053  0.3052 -0.0166
18541W        W33672  14.353   5.514   0.307  0.1179  0.0970 -0.1836
18542W        W33673   6.538  10.657   0.246 -0.3745 -0.0691 -0.0002
18543W        W33674  14.291  12.925   1.233 -0.0342  0.2216 -0.1283
18544W        W33675  12.368   7.716   0.091  0.1689  0.2764 -0.1145
18545W        W33676  14.060  10.765   4.174 -0.0703  0.1263  0.1220
18546W        W33677   2.850   5.931   0.399 -0.2762 -0.0436 -0.1362
18547W        W33678  16.619  15.713   2.084 -0.0083 -0.0335  0.1036
18548W        W33679  15.900   3.115   4.993 -0.1864  0.2414 -0.0250
18549W        W33680   3.668  14.109  14.899  0.2259 -0.2017 -0.1339
18550W        W33681   9.005   0.282  15.555  0.2472  0.0498 -0.1117
18551W        W33682   8.802   2.484  14.940  0.1372  0.0439  0.0041
18552W        W33683  16.739  17.587   2.258 -0.0435 -0.0668  0.0456
18553W        W33684   7.572   9.018   0.763  0.1162 -0.4608 -0.1607
18554W        W33685   9.393   7.323   1.621  0.2426 -0.0248 -0.0560
18555W        W33686   7.007  13.530   3.153  0.1053  0.0175  0.0787
18556W        W33687  15.038  11.084   4.011  0.2369  0.2175  0.1113
18557W        W33688   9.011   6.859  11.986 -0.1752 -0.1069  0.1041
18558W        W33689  17.241   0.010  12.197  0.1907 -0.2363 -0.1455
18559W        W33690  14.708   0.551  14.573  0.0672  0.3979  0.0065
18560W        W33691   9.087  13.347   1.338  0.1653  0.0767  0.1504
18561W        W33692  16.639  18.124  15.749  0.3792 -0.0153  0.2002
18562W        W33693   6.823  11.084  12.489  0.3080  0.0505 -0.0134
18563W        W33694   0.727   4.784   0.762 -0.3538 -0.0664  0.0692
18564W        W33695   1.503  13.674   1.548  0.2400  0.1194 -0.2265
18565W        W33696  14.421  11.556   2.566  0.3863  0.1154 -0.0793
18566W        W33697  12.352  17.787  14.835  0.0999  0.3045 -0.1146
18567W        W33698   6.576  10.162   2.260 -0.2466 -0.1003 -0.0539
18568W        W33699   3.008  11.526   2.084 -0.0461  0.2418  0.1083
18569W        W33700   5.098  16.898  13.264  0.0492 -0.0776 -0.1486
18570W        W33701   4.359  16.586   0.359 -0.1546 -0.0622 -0.0493
18571W        W33702  10.109   7.774  15.504 -0.1278 -0.2254 -0.1752
18572W        W33703  11.740   9.290  13.299  0.1055  0.0786 -0.1280
18573W        W33704   8.307   5.135  11.615  0.0493  0.0295 -0.1123
18574W        W33705   6.068  15.565   3.190  0.0620 -0.0610 -0.0418
18575W        W33706   6.775  14.466   0.535  0.2661  0.1632  0.3583
18576W        W33707   4.269   7.003  12.449 -0.0925  0.0792  0.0808
18577W        W33708   2.186   7.813   4.633 -0.0427 -0.2930 -0.0859
18578W        W33709   9.345   3.313   0.565 -0.1984 -0.2338  0.2434
18579W        W33710   6.627   9.038  12.129  0.1674 -0.0998  0.0827
18580W        W33711  14.792  16.703   1.805  0.6924  0.0386  0.1796
18581W        W33712  14.429  15.805  11.458  0.1936  0.0365 -0.2712
18582W        W33713  10.183  14.488  14.584 -0.0870  0.0445 -0.1564
18583W        W33714   7.321  11.553  14.143  0.0278  0.1038 -0.0415
18584W        W33715  13.493   8.354   1.389  0.0897  0.0136  0.1085
18585W        W33716  10.097   6.447   1.348  0.0842  0.0926  0.2515
18586W        W33717  14.680   2.484   2.480 -0.2590 -0.1073 -0.0085
18587W        W33718   6.508   7.654   1.599  0.1979 -0.2302  0.0911
18588W        W33719   9.407   0.424  13.588 -0.0466 -0.1775 -0.2373
18589W        W33720  18.028  15.408   5.402 -0.0456 -0.2702 -0.1754
18590W        W33721   1.699   4.584   2.398  0.1919 -0.3017  0.3052
18591W        W33722  10.366  12.586  12.760  0.0611  0.1451 -0.4273
18592W        W33723  17.277   8.685  12.380  0.0177 -0.3042  0.0551
18593W        W33724  15.001   4.357  12.068  0.1156 -0.0683  0.1292
18594W        W33725  14.178  18.422   0.298  0.0644  0.0764  0.1226
18595W        W33726  11.516  17.627  12.235 -0.0769  0.1121 -0.0789
18596W        W33727  11.999  11.769  13.625  0.2161  0.3229  0.1277
18597W        W33728   2.041  12.464  11.698  0.0283  0.0807  0.1131
18598W        W33729  12.775   0.495  15.167  0.1259 -0.1319 -0.1633
18599W        W33730   9.514  14.433   0.023 -0.1660  0.0685  0.2264
18600W        W33731  12.532   9.352   2.882  0.0177  0.1672 -0.0796
18601W        W33732   0.400  10.642  15.334 -0.0992  0.3189 -0.2723
18602W        W33733  13.656  15.627  14.044  0.0410  0.0830  0.1156
18603W        W33734   2.567  13.119  13.278  0.3476  0.1696 -0.3711
18604W        W33735   4.392  14.617  11.210 -0.0332 -0.1877  0.0860
18605W        W33736  15.748  11.452  11.903 -0.1405  0.1581 -0.0941
18606W        W33737   9.698   4.990  15.407  0.0916 -0.2616 -0.1608
18607W        W33738   4.939   3.716  15.577  0.1148  0.0528  0.1044
18608W        W33739  11.483   8.146   5.134  0.1844 -0.0079  0.2046
18609W        W33740  11.819  12.937   2.105  0.2663  0.1283 -0.0392
18610W        W33741  11.764  15.843  15.968  0.3350  0.1039 -0.0164
18611W        W33742   9.405   6.293   4.555  0.2116 -0.3141  0.2192
18612W        W33743  15.952   1.562  12.713  0.0206  0.0975  0.0355
18613W        W33744  16.740  17.676   1.369 -0.0558  0.1282  0.0331
18614W        W33745  16.964   8.724  13.610 -0.1905 -0.1923  0.0424
18615W        W33746   5.958  13.643  12.495 -0.1007 -0.2090 -0.0639
18616W        W33747   9.621   0.762   1.458 -0.0326  0.0186 -0.1087
18617W        W33748  18.218  16.164   1.974 -0.0175 -0.0070 -0.1970
18618W        W33749   2.092  11.047  16.089  0.0910  0.0679 -0.1341
18619W        W33750   4.925   0.836   0.265 -0.0561  0.0295 -0.2403
18620W        W33751   2.173   6.162  10.937 -0.2334 -0.4795  0.0635
18621W        W33752  12.323   2.525  14.138  0.1946  0.0667  0.1129
18622W        W33753  15.493  13.386   4.302  0.0865  0.2574 -0.0626
18623W        W33754  15.603  13.221   2.996  0.1814  0.0104 -0.2020
18624W        W33755  10.265   6.030  13.511 -0.1810 -0.0452 -0.0684
18625W        W33756   6.113  12.923  11.277 -0.1442 -0.0739 -0.0513
18626W        W33757  15.309   5.958  15.176 -0.1554 -0.0264 -0.0606
18627W        W33758   2.556  14.703  15.829 -0.2530 -0.0029  0.2421
18628W        W33759   9.672  16.036  10.524  0.1065  0.3156  0.1708
18629W        W33760  12.791  11.303  15.437  0.1937 -0.2805  0.0170
18630W        W33761   2.930  14.868   2.727  0.0408 -0.0924 -0.3185
18631W        W33762   0.918   8.411  12.425  0.1792 -0.1020 -0.0251
18632W        W33763  10.161   9.148  11.798 -0.1977  0.1550 -0.0330
18633W        W33764  17.437  13.453  14.241 -0.0070 -0.2035  0.1334
18634W        W33765   7.785   8.698  14.508  0.1011 -0.0844  0.0302
18635W        W33766   7.375   4.424   0.297  0.0732  0.2537 -0.1546
18636W        W33767  16.051   1.248   3.730  0.3870 -0.0900  0.2418
18637W        W33768  11.802  13.479   0.294 -0.0278 -0.0407 -0.3212
18638W        W33769  14.760   0.455   5.080 -0.0267  0.0266 -0.2091
18639W        W33770   7.253  11.219   2.812 -0.0943  0.1820 -0.1666
18640W        W33771  11.545   6.872   1.690  0.1435 -0.0897 -0.0367
18641W        W33772   8.399  15.219  12.423  0.2563  0.0039 -0.0833
18642W        W33773  16.231   9.265   1.699 -0.1119  0.3090  0.0842
18643W        W33774  10.587  13.319   5.039  0.2429  0.3788 -0.0780
18644W        W33775  11.961   1.270  14.760  0.3962 -0.1032  0.1148
18645W        W33776  13.900   5.290   1.281  0.1888 -0.1294 -0.1842
18646W        W33777   2.538  12.997  15.887  0.1432  0.2704  0.1655
18647W        W33778   6.854  15.165  11.859 -0.1244 -0.1104  0.1442
18648W        W33779  16.047   3.652   3.913  0.2624  0.2685  0.2679
18649W        W33780  16.449  12.623  12.928 -0.3930 -0.1969  0.1782
18650W        W33781   2.491   2.518   4.849 -0.2304 -0.2095  0.1976
18651W        W33782   0.067  11.032   2.917 -0.2017 -0.0110 -0.3053
18652W        W33783  12.510   9.194   2.376  0.0112 -0.1366  0.0057
18653W        W33784   2.977   5.409   4.305 -0.3905 -0.4072 -0.1595
18654W        W33785  16.792  11.409  14.179  0.2029  0.3326 -0.1278
18655W        W33786   9.979  10.710   0.976 -0.3612 -0.1086 -0.0505
18656W        W33787   0.143  18.053   3.554  0.3239  0.0237  0.0654
18657W        W33788  10.612  16.932   3.967 -0.0245 -0.3875  0.1796
18658W        W33789  11.991   5.571   0.958  0.1470 -0.3776  0.2130
18659W        W33790  15.897   4.809  15.290  0.1388  0.0594 -0.0216
18660W        W33791   8.900  11.893   4.593 -0.0661 -0.1288  0.2297
18661W        W33792   9.541   3.263   3.841 -0.2918 -0.2065 -0.1674
18662W        W33793  16.763  16.037  11.288 -0.0342  0.2219  0.1940
18663W        W33794  11.217   2.756   0.068  0.2309 -0.0898  0.1000
18664W        W33795   7.893  17.554   4.079 -0.0346 -0.0174 -0.1273
18665W        W33796   1.648  12.003   4.123 -0.1817 -0.1281 -0.0482
18666W        W33797   8.310  16.277   0.173  0.1231 -0.3106  0.0307
18667W        W33798  16.882   8.000   4.907 -0.3023 -0.1352  0.0542
18668W        W33799   2.149   7.464   3.253  0.2358 -0.4659 -0.0709
18669W        W33800  18.124  12.244   2.122 -0.1370 -0.0682  0.1555
18670W        W33801   9.404   2.105   5.393 -0.2889 -0.1326 -0.0868
18671W        W33802  17.371  11.361  11.255 -0.3505  0.4756 -0.0170
18672W        W33803   9.131  17.082  10.168  0.1390 -0.0883 -0.0360
18673W        W33804  16.708   0.119  15.864  0.0679  0.1154 -0.2109
18674W        W33805  11.078   3.421   3.420  0.0860  0.0076 -0.2264
18675W        W33806   3.363  10.632  11.064 -0.0620 -0.2758 -0.2538
18676W        W33807  14.017  10.019   0.876 -0.3870  0.1455  0.2806
18677W        W33808   1.309  17.855  14.779  0.3008 -0.2812  0.0104
18678W        W33809  15.076   7.792   1.026 -0.0378  0.1400 -0.0198
18679W        W33810   4.685   9.850   1.146  0.3195  0.0638 -0.0247
18680W        W33811  15.006  17.998   1.635  0.1639 -0.2401  0.0063
18681W        W33812   6.938   2.027  14.349 -0.2021 -0.0186 -0.0393
18682W        W33813   5.828  17.361   0.138 -0.1933 -0.4146 -0.0424
18683W        W33814   2.924  10.094   1.737 -0.1767 -0.0630  0.1061
18684W        W33815  17.380  14.223  12.731  0.1244  0.0925 -0.0648
18685W        W33816  11.920  11.270  13.199 -0.2311  0.1225  0.1683
18686W        W33817   6.603  10.463   2.762 -0.1083  0.0545  0.2238
18687W        W33818  10.095  11.857  14.355  0.1554  0.1838  0.1843
18688W        W33819   6.719   7.568   2.700  0.1724  0.1151  0.3585
18689W        W33820   4.712  16.324   3.281 -0.2742  0.0607 -0.0496
18690W        W33821  12.093   6.199  11.581  0.0613  0.2624  0.2226
18691W        W33822  11.343   0.474   2.086  0.2909  0.1041  0.0752
18692W        W33823  13.022  18.238  13.585 -0.2210  0.0103  0.1175
18693W        W33824  14.841  12.830   2.992  0.0471  0.1523 -0.0209
18694W        W33825  10.012  15.574   2.077 -0.0956 -0.1483  0.0541
18695W        W33826   0.178   6.568  15.037 -0.1801  0.1739  0.1799
18696W        W33827  15.015   9.628  12.172 -0.0920  0.1560 -0.2775
18697W        W33828  16.168   5.792   6.128  0.0677 -0.1240  0.2198
18698W        W33829  11.134   5.774   2.423 -0.1864 -0.0175  0.2121
18699W        W33830   9.438   6.296   3.224  0.6575  0.2681  0.1907
18700W        W33831  11.533   0.937  12.319 -0.3311 -0.0642 -0.3687
18701W        W33832   9.201  18.395   3.219 -0.1589 -0.0110 -0.0293
18702W        W33833   9.769   0.190   1.018  0.1732 -0.1715  0.2012
18703W        W33834   3.096   6.543  13.322  0.0051 -0.0384 -0.1465
18704W        W33835   0.210  16.059  11.630 -0.2356 -0.0451 -0.1575
18705W        W33836   8.600  15.600   9.989 -0.1037 -0.1548  0.0433
18706W        W33837  15.201  17.540   0.769 -0.1905 -0.0394  0.0830
18707W        W33838   4.633  15.787   3.318 -0.1730 -0.0653  0.2050
18708W        W33839   6.249   7.035   5.680 -0.0135 -0.0438 -0.1339
18709W        W33840   8.323  18.141   2.973 -0.0493  0.2239  0.0555
18710W        W33841   7.181  16.151   0.830 -0.0884  0.1574  0.0094
18711W        W33842   8.635   9.654  14.207  0.2140  0.2650 -0.1529
18712W        W33843  16.937  11.858  12.928 -0.2194  0.2360  0.2596
18713W        W33844  11.852  17.508  12.609 -0.0204 -0.0761  0.0371
18714W        W33845  17.642   6.014   0.694  0.0758 -0.0654 -0.2019
18715W        W33846   5.923  10.413   5.133 -0.0148  0.1993 -0.1684
18716W        W33847  17.194   9.923   1.857 -0.1757 -0.0834 -0.2581
18717W        W33848  16.815   0.450  14.881 -0.0503  0.2864  0.1708
18718W        W33849  12.217   0.382  15.104 -0.1242  0.1443 -0.0039
18719W        W33850  15.938   2.074  11.439 -0.0369 -0.3022 -0.2063
18720W        W33851   9.897  15.285  11.937 -0.3370  0.1629  0.1927
18721W        W33852   1.964   8.472  13.891 -0.0729 -0.1413 -0.1172
18722W        W33853   1.447   7.881  11.679  0.0430  0.0398  0.2209
18723W        W33854  17.663  11.942  14.277  0.1205 -0.1895 -0.2862
18724W        W33855   1.885   8.053  12.389  0.0784  0.2711  0.2229
18725W        W33856  15.220   5.162   2.469  0.0452  0.1597 -0.0202
18726W        W33857  17.001   3.023   3.295  0.1367 -0.2103 -0.1398
18727W        W33858  16.538   6.358   3.393  0.1170 -0.1042  0.1649
18728W        W33859   8.792   2.666   0.123 -0.2685  0.0905 -0.2374
18729W        W33860  17.076   0.396   4.448 -0.2025 -0.0020  0.0569
18730W        W33861   0.104   7.462   0.174 -0.1057 -0.0350  0.3023
18731W        W33862  14.975   0.266  12.933  0.0058 -0.1676  0.0953
18732W        W33863  10.054   5.329   5.904  0.2814 -0.1047 -0.0688
18733W        W33864   4.621   2.983  11.543  0.4345  0.0055 -0.3087
18734W        W33865   0.738   8.943   4.668 -0.2292  0.1286 -0.2055
18735W        W33866   3.457  14.073  11.734  0.3246 -0.1247 -0.1318
18736W        W33867  17.746   3.329   4.681  0.2144  0.1000  0.0915
18737W        W33868   8.703   0.806  11.858 -0.0142 -0.1390  0.1866
18738W        W33869  16.111  12.019   0.701  0.4158  0.1414  0.2309
18739W        W33870   2.982   3.870  13.158  0.1094 -0.0523  0.0727
18740W        W33871  11.103  16.808  11.756  0.1557  0.1156  0.0036
18741W        W33872   3.898  12.516   2.684  0.0035 -0.0734  0.1385
18742W        W33873  10.920  14.338  10.757 -0.3774 -0.0695  0.0193
18743W        W33874  13.753  11.962   5.403 -0.0560 -0.1318  0.0412
18744W        W33875   3.908   3.033  11.758  0.0087 -0.2526  0.0796
18745W        W33876  17.927   4.911   3.299  0.2141  0.0372  0.1486
18746W        W33877  10.386   3.105  12.643  0.2029  0.1568 -0.0963
18747W        W33878   9.351   7.798   5.031 -0.0731 -0.1917  0.0542
18748W        W33879   6.463   2.829  11.913 -0.5464  0.2837 -0.0633
18749W        W33880   7.911  17.785  12.014  0.1982  0.1088 -0.0358
18750W        W33881  16.206   5.102   0.769  0.1983  0.1007  0.2662
18751W        W33882   2.033  16.025   1.883 -0.0118  0.2160  0.1276
18752W        W33883  10.864   9.654  14.013  0.1558 -0.1863 -0.0864
18753W        W33884  14.366   0.163   5.853  0.3655  0.0971  0.0147
18754W        W33885   6.424  16.194   0.500  0.2983  0.3746 -0.1833
18755W        W33886  16.164  18.353  14.417 -0.1110  0.0077  0.0375
18756W        W33887   0.781  11.699  10.068 -0.0029  0.1637  0.1054
18757W        W33888  12.539   0.159  14.777 -0.1411  0.1236 -0.2559
18758W        W33889  10.936   4.346  15.066 -0.0453  0.0481  0.4155
18759W        W33890   8.327   7.290  13.048 -0.0476 -0.3612 -0.1680
18760W        W33891  14.739   8.404  11.476 -0.3252 -0.0499  0.0796
18761W        W33892   5.089  15.006   0.174 -0.0393  0.1283 -0.1902
18762W        W33893   2.142  11.392  13.186 -0.0202 -0.0206  0.5292
18763W        W33894  15.207   2.504   3.645  0.3108  0.1356  0.3595
18764W        W33895   0.946  17.136   3.605  0.0669  0.1862  0.1057
18765W        W33896  11.976   9.832   3.433 -0.1214 -0.1923 -0.1935
18766W        W33897  13.318  18.236  12.709  0.1579  0.0186 -0.2284
18767W        W33898   0.277  10.952   5.339 -0.1796  0.2089 -0.0599
18768W        W33899   2.339  18.265   4.644  0.1382  0.2098  0.4892
18769W        W33900  15.034   6.836   2.065  0.1781 -0.1308  0.5833
18770W        W33901   1.459   5.855   3.615 -0.0730  0.0810  0.0446
18771W        W33902  12.097  14.177   1.660 -0.2257 -0.1389  0.0304
18772W        W33903  17.412   1.890  15.511  0.0863 -0.1700  0.0821
18773W        W33904  10.336  14.126  16.058 -0.1052  0.0484 -0.4521
18774W        W33905   1.980  12.412   1.589  0.1336  0.2199 -0.0577
18775W        W33906  18.085   3.692   4.790 -0.0264 -0.1987 -0.1854
18776W        W33907  12.775  14.245  12.760  0.1376  0.4129  0.3145
18777W        W33908  10.660  12.835   5.056 -0.2090  0.2385  0.0515
18778W        W33909  10.994   3.763  12.621 -0.1927 -0.0489 -0.4872
18779W        W33910   9.014  11.348   5.682  0.1972 -0.2728 -0.1816
18780W        W33911  18.220   9.900  14.857 -0.0831  0.6662  0.4057
18781W        W33912   0.498   3.590   3.259 -0.0000  0.3813  0.1159
18782W        W33913  13.898  11.019  12.030  0.3339 -0.0474  0.0713
18783W        W33914   7.855  10.883   3.903 -0.0872 -0.2007 -0.0798
18784W        W33915   4.149   9.488   5.685 -0.1429  0.1548  0.2515
18785W        W33916  11.020   3.946  13.245 -0.0975  0.2065  0.0455
18786W        W33917  16.699   6.580  13.970  0.1691 -0.2458 -0.0171
18787W        W33918   7.667   4.782   3.931 -0.0519  0.0697  0.0488
18788W        W33919  17.582   9.343  10.827  0.3376  0.0806  0.3580
18789W        W33920   0.978  12.818   1.186 -0.2084 -0.1437  0.3076
18790W        W33921   4.100  12.020   4.649  0.0788 -0.0816  0.0698
18791W        W33922  14.614   0.344   2.942  0.0720 -0.0725 -0.0093
18792W        W33923  12.690  12.306   3.696 -0.1023  0.2052  0.0944
18793W        W33924  10.885  18.247  15.086 -0.0630  0.0645 -0.0915
18794W        W33925  12.700   5.235   3.817 -0.2003  0.1732 -0.0445
18795W        W33926   5.780  12.632  15.720 -0.3314 -0.0638  0.3079
18796W        W33927   8.562   5.895  14.063  0.2393 -0.1378  0.1419
18797W        W33928   9.651  11.778  12.180 -0.1185 -0.3434  0.0281
18798W        W33929  12.982  10.700   0.167  0.3173 -0.4546  0.1463
18799W        W33930   4.677   5.761  14.731  0.0354 -0.2419  0.0122
18800W        W33931   4.861   8.188   3.876  0.0816  0.2878  0.1540
18801W        W33932  18.132   7.960  13.901  0.2991  0.0988 -0.1854
18802W        W33933  16.721   5.152  13.778 -0.1715 -0.0443 -0.0134
18803W        W33934  16.776   7.546   1.899 -0.1378  0.0916 -0.2176
18804W        W33935  16.656   1.198   2.145 -0.0883  0.2496  0.0606
18805W        W33936   9.836  12.250   5.085  0.1745  0.1961  0.0415
18806W        W33937  13.517  10.910   1.819  0.2445 -0.0559 -0.1559
18807W        W33938  15.678   3.198  14.092  0.2424 -0.0783  0.0161
18808W        W33939   6.431   1.387   4.088 -0.0088  0.0387  0.1365
18809W        W33940  13.132  11.628   4.115 -0.3311 -0.1570  0.0634
18810W        W33941   2.837   1.008   4.918  0.0179 -0.1243 -0.1245
18811W        W33942  13.295  16.405   1.175 -0.6636  0.3169  0.1619
18812W        W33943   4.664   3.951   2.394  0.0372 -0.1788  0.2518
18813W        W33944  12.140  14.478  10.040 -0.1504  0.1273  0.2812
18814W        W33945  18.399  17.850   2.303 -0.1931 -0.0747 -0.3222
18815W        W33946  17.913  13.404  12.380  0.2044 -0.1388  0.1763
18816W        W33947   0.518   7.424   1.881 -0.2367  0.2034  0.0377
18817W        W33948   1.013  15.753   2.608  0.1102 -0.2710  0.0790
18818W        W33949  10.291   3.671  15.828 -0.3327  0.1175 -0.4228
18819W        W33950   3.364  10.932  13.192 -0.1038  0.1246  0.2037
18820W        W33951  12.655   2.231   0.301 -0.0823  0.0081  0.2060
18821W        W33952  13.221  16.745   2.642  0.4065 -0.0032  0.0404
18822W        W33953   7.639  12.104  15.349 -0.0202 -0.0232  0.0719
18823W        W33954  12.422   0.020   1.102 -0.2232  0.1193 -0.1166
18824W        W33955   8.869  15.435  10.867 -0.3443  0.1195  0.2620
18825W        W33956   8.704  13.806   3.866 -0.1243 -0.2783  0.0707
18826W        W33957  10.233  13.016   5.315  0.1645 -0.2201  0.0960
18827W        W33958  13.490  15.313  15.919 -0.4017 -0.0730 -0.0439
18828W        W33959   8.006  15.796  12.887  0.0822 -0.0668 -0.3173
18829W        W33960  11.113   2.680  13.821  0.3699  0.1033 -0.3350
18830W        W33961  17.677  17.610   2.946  0.0708  0.2740 -0.0468
18831W        W33962   0.634   3.059  14.918  0.1288 -0.1951  0.0322
18832W        W33963   1.825  14.611   0.203  0.0385 -0.2833  0.0313
18833W        W33964   4.615   4.360  11.335 -0.0754 -0.1370 -0.0371
18834W        W33965  14.495   2.061  11.296 -0.2522  0.1737 -0.1925
18835W        W33966  15.876  12.656  13.653 -0.2355 -0.0022  0.0844
18836W        W33967  14.304   2.837  12.504  0.4115 -0.2983 -0.0220
18837W        W33968  18.031   9.275  14.674  0.0920 -0.2275  0.1568
18838W        W33969   7.339   1.587   3.852 -0.4953  0.5142  0.1115
18839W        W33970  13.144   4.059  12.154  0.2245 -0.2475 -0.0823
18840W        W33971   7.971  12.291  12.521  0.2928 -0.0288  0.0874
18841W        W33972  13.623   3.929   1.682 -0.1379 -0.0816 -0.0351
18842W        W33973   7.219  14.458   4.521 -0.1870 -0.0870  0.1794
18843W        W33974  15.800   6.461   5.711 -0.3765 -0.0308 -0.2136
18844W        W33975   2.838  10.498  12.043 -0.0661 -0.3107  0.0750
18845W        W33976   7.410   3.599   6.511 -0.1542  0.0590 -0.3323
18846W        W33977  18.037  14.045  14.677  0.1793 -0.2840 -0.1981
18847W        W33978   1.892   4.517  15.397 -0.0645  0.1716  0.1354
18848W        W33979  18.113   9.429  15.914 -0.0657 -0.0574 -0.0642
18849W        W33980   6.953  16.642   3.039 -0.2751 -0.3045  0.1654
18850W        W33981   7.167  18.075  13.929 -0.2629 -0.0362  0.0671
18851W        W33982  17.542   0.325  12.977 -0.0002 -0.4006 -0.3056
18852W        W33983  12.764  12.095   2.418 -0.0467 -0.1111  0.0135
18853W        W33984   4.861  17.391  13.771 -0.0845 -0.1218  0.1831
18854W        W33985   2.129   8.939  15.975  0.1789  0.0668  0.1185
18855W        W33986  10.216   0.535  14.989  0.1412  0.0560 -0.0051
18856W        W33987  15.606  17.563   1.482 -0.2663  0.1217 -0.3581
18857W        W33988  13.123   6.246  15.417  0.1140  0.0399 -0.2125
18858W        W33989   6.652   5.127   0.263 -0.0092 -0.1314  0.0042
18859W        W33990  13.893   6.043   5.293  0.0498  0.0481  0.0023
18860W        W33991  18.401   1.781  15.290 -0.3143  0.0017 -0.4496
18861W        W33992  12.671   7.775  14.824 -0.2095  0.0475 -0.2248
18862W        W33993   4.261   0.588   4.383 -0.0052 -0.2375 -0.1953
18863W        W33994  15.636  17.754  12.965  0.0503 -0.3037 -0.1846
18864W        W33995   6.743  16.450   4.689  0.1753  0.1606 -0.1038
18865W        W33996   1.728   4.075   2.202 -0.0029 -0.1340 -0.3573
18866W        W33997   7.755  16.109   4.434 -0.2654 -0.2821  0.2551
18867W        W33998   6.270   1.036  14.966 -0.0172  0.0366  0.1007
18868W        W33999  12.524  12.142   2.852  0.1585 -0.1497 -0.1829
18869W        W34000  14.590  18.062   4.276  0.1352  0.0699  0.0786
18870W        W34001   3.945   5.973   0.430 -0.0656  0.0888  0.0667
18871W        W34002   7.217  17.735  13.433 -0.0642 -0.1314  0.1269
18872W        W34003  17.103  17.993  14.876 -0.1218  0.0906 -0.1170
18873W        W34004   2.964   5.021   4.683 -0.1084 -0.1908  0.1065
18874W        W34005   5.124   7.091   3.973  0.0528  0.0517  0.1543
18875W        W34006   9.450  16.180   1.755 -0.0716  0.1073  0.3081
18876W        W34007  14.779  14.639   1.069 -0.0252  0.1580 -0.0902
18877W        W34008   7.911  12.298   1.172  0.0504 -0.0672  0.0330
18878W        W34009  15.048   4.067  14.894 -0.2642  0.1847  0.2046
18879W        W34010  12.769  17.053   2.055 -0.1954  0.1632 -0.1659
18880W        W34011  10.640   6.094  13.236  0.1141 -0.4156 -0.1808
18881W        W34012  11.292   6.219  14.139 -0.0208  0.2473  0.1607
18882W        W34013  17.888   3.473   3.100  0.0653  0.1594  0.2854
18883W        W34014   0.554   8.377   0.770  0.4540 -0.0327 -0.1736
18884W        W34015  10.949   9.631  14.476 -0.0605 -0.1829  0.0566
18885W        W34016  14.193   4.302   1.585  0.0855  0.0161  0.1631
18886W        W34017  16.021   0.577  12.026 -0.0417  0.0145  0.0659
18887W        W34018  10.125   6.073   2.914  0.1097 -0.2402 -0.2237
18888W        W34019  10.167   2.260  15.192 -0.0668  0.0337 -0.1183
18889W        W34020   0.093   0.175   5.614  0.1405  0.0545  0.1182
18890W        W34021  10.707  13.940   2.795  0.1465  0.0711 -0.2046
18891W        W34022  15.988  10.794  13.277 -0.0218  0.4601 -0.0160
18892W        W34023   5.477   5.434   2.231  0.2221 -0.3822  0.2724
18893W        W34024  17.426  14.746   5.400 -0.0692 -0.1090  0.1850
18894W        W34025  13.950  14.960   3.732  0.0392  0.1885  0.2263
18895W        W34026  10.818   4.196   6.217 -0.0074 -0.4888 -0.2888
18896W        W34027   9.962  16.171   2.592  0.0325 -0.0307 -0.1186
18897W        W34028   1.103  16.907   1.890  0.0122  0.0668 -0.1342
18898W        W34029   8.654  10.045  11.329  0.0753  0.2367  0.1401
18899W        W34030   2.450  17.479  10.684 -0.0369 -0.0637 -0.0763
18900W        W34031  12.811   2.940  15.330  0.0263 -0.0344 -0.0013
18901W        W34032  14.942   2.029   0.589  0.1394 -0.1707  0.0571
18902W        W34033  12.997   9.411  15.442 -0.0277 -0.2308  0.2591
18903W        W34034   7.146  15.269  12.851 -0.2491 -0.2525 -0.3680
18904W        W34035  14.576   0.848   4.773  0.3225 -0.1669 -0.1316
18905W        W34036   1.460   3.450  11.018 -0.2461  0.4517  0.1414
18906W        W34037  17.062   1.106   1.847 -0.5477  0.0868 -0.3430
18907W        W34038  10.708  11.995  15.939  0.0980  0.3912  0.1529
18908W        W34039   7.735   7.581  13.792 -0.1182  0.1238 -0.1345
18909W        W34040  12.101   3.763   0.094 -0.1759 -0.2405  0.1405
18910W        W34041  17.365   8.692  14.079  0.1115 -0.1786 -0.0992
18911W        W34042   4.099  17.115   4.210 -0.1211 -0.0210  0.0905
18912W        W34043   0.312   0.924  12.611  0.2181  0.0866  0.4506
18913W        W34044  11.217   4.999   4.783 -0.0169  0.1663  0.3406
18914W        W34045   9.619   7.268   3.583  0.0058  0.1432  0.0057
18915W        W34046   8.747  17.356  12.276 -0.1479 -0.2642  0.3088
18916W        W34047  13.838  16.517  15.505 -0.0000  0.1891 -0.0297
18917W        W34048  12.939  14.497   1.390 -0.1703  0.1238  0.0163
18918W        W34049  17.319  16.281   0.111 -0.3847 -0.2925 -0.0550
18919W        W34050  16.946   5.799  12.518  0.1598  0.1724 -0.2989
18920W        W34051   9.795  13.869   6.203  0.1934  0.3437  0.0113
18921W        W34052  16.308  14.297  14.985  0.1277 -0.3198  0.1024
18922W        W34053   0.898   2.753  15.219  0.0153 -0.0728  0.6262
18923W        W34054   6.728  10.739   1.219  0.0208 -0.1956  0.1032
18924W        W34055  12.290   2.994   2.382  0.1141 -0.0931 -0.2167
18925W        W34056  16.467   7.020   5.572 -0.0067  0.0458  0.3189
18926W        W34057  10.722  16.857  11.377 -0.1999  0.1937 -0.1808
18927W        W34058   5.747   6.701   0.416 -0.2302  0.1490  0.3553
18928W        W34059  10.392   5.553  12.404  0.2065 -0.1206 -0.1303
18929W        W34060  17.841   0.924   3.610 -0.4012 -0.0009  0.0373
18930W        W34061   5.244  12.241  12.416  0.0909 -0.0833  0.2416
18931W        W34062  15.815   7.245   3.644  0.4221 -0.4674 -0.0692
18932W        W34063  15.366  10.624   5.204 -0.1409 -0.0250  0.0909
18933W        W34064  17.811  14.097  13.501  0.0081 -0.2637 -0.0253
18934W        W34065   2.867   4.620  12.098 -0.0276  0.1737 -0.1286
18935W        W34066  11.546   2.870  13.971 -0.1529  0.0065  0.1060
18936W        W34067   9.341  12.332  14.113  0.2526 -0.1475  0.1636
18937W        W34068  12.401   8.263  11.498 -0.1324  0.2926  0.1530
18938W        W34069  18.115  10.763   5.450 -0.1745 -0.0925 -0.0001
18939W        W34070  14.818   4.407   5.517 -0.0810 -0.1707  0.2252
18940W        W34071   9.631   5.554   2.309 -0.0571  0.1939  0.2166
18941W        W34072  14.755   9.236   2.586  0.3132 -0.3115  0.2954
18942W        W34073  17.091  12.159  10.682 -0.0726 -0.1475  0.0896
18943W        W34074   4.678   7.637   3.471 -0.1467 -0.0681 -0.1497
18944W        W34075  12.379  17.168  15.953  0.0690  0.1001  0.1391
18945W        W34076   6.836   8.105  13.249 -0.0828  0.0943  0.0999
18946W        W34077  18.296   3.200   4.546 -0.3065  0.1766  0.2288
18947W        W34078  12.441  17.657   3.447 -0.1151 -0.0676  0.1166
18948W        W34079  14.329   3.642  13.837  0.2674  0.0188 -0.0016
18949W        W34080   8.190  10.710   2.223  0.2484 -0.1701  0.1523
18950W        W34081   3.049   3.536   2.513  0.2263 -0.1746 -0.1469
18951W        W34082   1.160   0.589  16.066  0.0880 -0.1747 -0.2491
18952W        W34083  12.326   8.357   5.671  0.3210 -0.0168 -0.3145
18953W        W34084  17.077   2.951  12.640  0.1258  0.0270 -0.0440
18954W        W34085   1.698   1.097   0.722 -0.1595 -0.0249  0.1030
18955W        W34086   1.015   5.741  11.560  0.0633  0.0333 -0.1316
18956W        W34087   7.894   7.534   3.450 -0.0858  0.0340 -0.2811
18957W        W34088   4.994  16.605   8.909 -0.3492 -0.0068  0.0650
18958W        W34089   0.935  12.239   1.684 -0.1180 -0.1326 -0.1057
18959W        W34090  12.932   0.656   4.986  0.1015  0.0294 -0.0485
18960W        W34091   4.159  10.104  14.921 -0.0377 -0.1003  0.1643
18961W        W34092  13.698   7.240   6.385  0.2674 -0.2703 -0.0142
18962W        W34093   2.156  17.336   0.205 -0.2545  0.2658  0.0508
18963W        W34094   7.606  10.247  15.419  0.0082  0.0649  0.4186
18964W        W34095   1.132  16.479  11.716 -0.0322  0.1240  0.2479
18965W        W34096  11.297   0.514   3.862 -0.3300  0.1130 -0.1583
18966W        W34097   7.835   7.807   1.405  0.0642 -0.1068  0.0697
18967W        W34098  14.541  17.280  14.357  0.0407  0.1819  0.1033
18968W        W34099   6.759   3.369   5.280 -0.0037 -0.0359  0.1185
18969W        W34100   6.765  17.561  15.942  0.0532  0.2786  0.0529
18970W        W34101  16.938  10.092   3.939  0.1011  0.1222 -0.2149
18971W        W34102  16.451   9.925   5.386  0.3124 -0.2010 -0.1315
18972W        W34103   9.240  17.339  13.291  0.1292  0.3639 -0.3385
18973W        W34104   5.244  10.436  10.307  0.0625 -0.1893  0.0478
18974W        W34105  12.405   4.741  13.776  0.3418 -0.0640 -0.0771
18975W        W34106  14.183  16.854   4.889  0.4197 -0.3754 -0.2702
18976W        W34107  15.538   0.276  15.014  0.1667 -0.2118  0.1550
18977W        W34108   8.404   6.494  13.147  0.2020 -0.0640  0.0536
18978W        W34109   0.717   6.998  11.019  0.1449  0.1093 -0.1247
18979W        W34110   9.959  13.094   2.789  0.2026 -0.2371  0.0192
18980W        W34111  12.929   8.065   3.770 -0.0336  0.0438 -0.0380
18981W        W34112   1.588   9.309   1.259  0.2452 -0.1133 -0.3552
18982W        W34113   4.087   1.300  10.992  0.0624  0.1930 -0.0518
18983W        W34114  14.062  17.612   4.854  0.0001 -0.3374 -0.0370
18984W        W34115  10.273   5.918   3.951  0.2775 -0.1690  0.0385
18985W        W34116  14.990   5.141  11.628 -0.1389  0.1447  0.0988
18986W        W34117   1.192  15.239  13.694  0.2848  0.1848  0.2328
18987W        W34118  12.775  12.576   2.772  0.1963  0.0423  0.1553
18988W        W34119   4.512  15.009   5.623  0.0667 -0.0164  0.3378
18989W        W34120   4.068  11.556   6.012 -0.4362 -0.3394 -0.1308
18990W        W34121   0.895  14.238  13.441  0.1067 -0.1373  0.1943
18991W        W34122  13.972   4.629  12.199 -0.0948  0.0833  0.0509
18992W        W34123   0.452  11.015  15.032 -0.0377 -0.0017  0.0159
18993W        W34124   8.148   9.622  12.076  0.1933 -0.1093  0.1723
18994W        W34125   1.620   6.822  14.265  0.0655  0.3507 -0.0879
18995W        W34126  14.677   8.924  12.440 -0.0384  0.3493  0.2117
18996W        W34127  17.038   8.671   2.121 -0.1338  0.2732  0.2827
18997W        W34128   2.005  13.846  13.319  0.0243  0.3272 -0.0829
18998W        W34129   5.160  13.909  12.347 -0.1350 -0.0965  0.0120
18999W        W34130  17.074   6.900  11.189  0.1453 -0.1274  0.2218
19000W        W34131  13.278   8.863  14.447 -0.1540  0.0619  0.2604
19001W        W34132   4.155  10.593  13.394  0.0415  0.1203  0.3961
19002W        W34133   9.757   7.754  14.221  0.0330  0.2656 -0.0797
19003W        W34134  14.919  11.583   2.752 -0.1936  0.0052 -0.1563
19004W        W34135   9.217   8.989   5.429 -0.3395  0.1436  0.0647
19005W        W34136  17.419   5.493  13.450  0.1860  0.0337 -0.3219
19006W        W34137  12.111  18.338  13.347  0.4158  0.2438  0.0170
19007W        W34138  13.592  14.025  12.402  0.3046 -0.2254  0.1109
19008W        W34139   5.537   2.248   5.401 -0.1115  0.1297 -0.1103
19009W        W34140   9.971   4.462  11.561  0.0333  0.0464 -0.0797
19010W        W34141   7.821   0.354   1.711 -0.1199 -0.1328 -0.1829
19011W        W34142  14.081   6.234   1.315  0.0566  0.2187 -0.1042
19012W        W34143  16.141   9.190  11.289  0.1040  0.0599 -0.0945
19013W        W34144   4.263   5.516  12.305 -0.2219  0.0656 -0.2362
19014W        W34145  14.348   6.059  13.140  0.0325 -0.1375 -0.0942
19015W        W34146   8.780   8.159  15.900 -0.4218  0.1125 -0.1707
19016W        W34147   5.036   7.538   1.461  0.1125  0.3541  0.2185
19017W        W34148   6.493   7.999  15.000  0.0132  0.5069  0.0511
19018W        W34149   1.820   7.209  15.407  0.0122 -0.0513  0.1343
19019W        W34150   8.012   7.207  14.925  0.0766 -0.2912 -0.0891
19020W        W34151   9.758   2.439  13.475  0.1533 -0.2632 -0.0989
19021W        W34152  10.602  11.101  11.571 -0.1157 -0.1237 -0.0453
19022W        W34153   7.574  16.045  12.719  0.1701  0.2224 -0.2516
19023W        W34154   1.341  16.494   4.003 -0.2498  0.2266  0.0776
19024W        W34155   9.919   3.311  13.386  0.0622  0.0842 -0.1925
19025W        W34156   9.582  11.363  12.441 -0.1266 -0.2844  0.0252
19026W        W34157  14.232  16.993  11.722  0.0821 -0.3461 -0.3288
19027W        W34158   4.307  17.909   0.200 -0.0417 -0.2172  0.2529
19028W        W34159   0.516   2.931  15.565 -0.0417 -0.3410  0.1479
19029W        W34160  14.988   6.674   3.209 -0.2243 -0.0390  0.2424
19030W        W34161   9.852  10.206   5.114 -0.2772 -0.0025 -0.0152
19031W        W34162   7.025   9.898  11.346  0.1933 -0.1052 -0.0206
19032W        W34163  14.028  11.267   4.033  0.3681  0.1906 -0.0241
19033W        W34164  13.419  10.429   1.918  0.1360  0.1084  0.1858
19034W        W34165  16.717   2.926   2.888 -0.2356 -0.0511 -0.0189
19035W        W34166   4.911  16.661   3.623  0.1084  0.1801  0.0676
19036W        W34167   2.841  15.277  14.102 -0.0822  0.2021  0.4443
19037W        W34168   2.322   4.173  14.334 -0.2048 -0.1773  0.0108
19038W        W34169   7.562  15.583   0.217  0.1571 -0.1910  0.3448
19039W        W34170  11.942  10.985   4.473 -0.0176 -0.0725  0.0259
19040W        W34171   5.145  18.489   1.111 -0.0742  0.0190 -0.0039
19041W        W34172  12.335   2.037  11.821 -0.3649 -0.1591  0.1409
19042W        W34173  17.802   4.046   2.187 -0.0744 -0.0347  0.1512
19043W        W34174   7.266   8.948  11.666 -0.2184  0.1971  0.1039
19044W        W34175   4.907  16.690   2.555  0.2557  0.0306 -0.5433
19045W        W34176   5.657   0.674   2.498  0.0984 -0.1051 -0.0836
19046W        W34177   0.118  18.395  10.614  0.1382  0.0875 -0.2331
19047W        W34178   5.651   6.849  14.591  0.4196  0.0627 -0.1057
19048W        W34179   5.283  11.808   3.907 -0.0591 -0.0708 -0.1702
19049W        W34180  18.307   7.109  13.198  0.2340  0.0301  0.0583
19050W        W34181  18.339  13.142  15.598 -0.1705  0.0851 -0.1745
19051W        W34182  14.925  18.219  14.451 -0.1396 -0.0469 -0.0308
19052W        W34183   6.953  14.520  11.254  0.0220  0.0155 -0.0059
19053W        W34184   5.424   4.854   4.641 -0.2033  0.0761 -0.0388
19054W        W34185  12.861   8.023  11.753 -0.1402 -0.0246  0.1426
19055W        W34186  17.308  13.545  11.183 -0.1542  0.2685  0.0560
19056W        W34187   1.248  12.782   3.769  0.1430 -0.0335  0.5753
19057W        W34188   0.641   2.459   9.292 -0.0563  0.3014  0.2452
19058W        W34189   0.430   8.808   1.042 -0.0959  0.0598 -0.1229
19059W        W34190  12.070   0.062   4.456 -0.0553  0.0154 -0.0927
19060W        W34191  11.308   2.664   2.159  0.1730  0.1971  0.4305
19061W        W34192  10.822   3.672  12.031  0.3152  0.0537 -0.0203
19062W        W34193  17.092  13.442   4.352 -0.3058 -0.1457  0.0925
19063W        W34194  16.521   4.975  12.144 -0.0795  0.2450  0.0076
19064W        W34195  12.068   6.815  14.874  0.0022 -0.1893  0.0583
19065W        W34196  11.306   9.028   2.244  0.0206 -0.3437 -0.0158
19066W        W34197   5.841   5.687  15.276 -0.2121  0.0357 -0.1176
19067W        W34198  18.326  12.309   4.099 -0.0268  0.1016 -0.1605
19068W        W34199  14.169   6.149   5.777 -0.0482 -0.0953  0.0354
19069W        W34200  14.715   7.016  15.099  0.1790  0.1094  0.4446
19070W        W34201   5.496   5.741   1.830 -0.0357  0.0775 -0.1739
19071W        W34202  16.154  17.699  11.562 -0.1591  0.0358  0.2797
19072W        W34203  10.898   6.615  15.400  0.0498 -0.0234 -0.1069
19073W        W34204   8.396  15.443  10.918  0.2892 -0.2226  0.2283
19074W        W34205   5.054   7.748   0.625  0.1780 -0.0502 -0.2332
19075W        W34206  15.022  14.631  11.626  0.2591 -0.2273 -0.0361
19076W        W34207   5.632  18.195   3.987 -0.1501  0.0679 -0.2413
19077W        W34208   4.660   1.006  14.163  0.2041 -0.0748  0.0783
19078W        W34209  18.184   8.614   3.882  0.1311 -0.2153 -0.4689
19079W        W34210   6.805  12.588  11.979 -0.2890  0.3720  0.6819
19080W        W34211  14.440   6.532   2.526 -0.2408  0.2788  0.2414
19081W        W34212   5.126   0.231  11.185 -0.0107 -0.1358  0.1747
19082W        W34213   0.055  17.531  11.728 -0.1428  0.0538 -0.1075
19083W        W34214  12.375  16.088  11.134 -0.2914 -0.2708 -0.2526
19084W        W34215   8.879  16.683   4.590  0.2890  0.2392 -0.5403
19085W        W34216   1.680  10.803  11.931 -0.0680  0.3651  0.1165
19086W        W34217  10.008  17.846   1.584  0.3812  0.1043  0.3147
19087W        W34218  17.767   4.313   3.549  0.3038 -0.1422 -0.0834
19088W        W34219   3.678   3.611  13.003  0.3569  0.3346 -0.1420
19089W        W34220  15.600   8.288   3.050 -0.0881 -0.2356 -0.0314
19090W        W34221   2.178  14.986   5.306  0.2320 -0.0555 -0.0815
19091W        W34222  12.560   0.722   6.380  0.1255 -0.3097  0.1139
19092W        W34223   9.859  10.278   5.999  0.0539  0.2560  0.0803
19093W        W34224  12.296   3.665   5.297  0.1241 -0.1679  0.0936
19094W        W34225  15.783  15.411   4.642  0.0698 -0.1301  0.3293
19095W        W34226   2.422   5.707  12.128  0.2413 -0.0498  0.0814
19096W        W34227   7.823  17.756   1.223  0.2989 -0.3857  0.0587
19097W        W34228   3.201   7.149   5.036  0.0898  0.0718  0.0841
19098W        W34229   2.044   0.170   4.596  0.0224 -0.0732  0.0989
19099W        W34230  17.705   3.699   5.840  0.1806 -0.1648  0.1446
19100W        W34231   5.389  17.592   0.227 -0.0979  0.3920 -0.3572
19101W        W34232   9.853  16.416   3.060 -0.0689  0.1461  0.2411
19102W        W34233   6.945   4.478  12.701 -0.1089  0.3679  0.2022
19103W        W34234   8.223   0.603  10.228  0.1230 -0.3973  0.1157
19104W        W34235   0.275   5.438   4.720  0.2857  0.1893 -0.2169
19105W        W34236   0.541   3.413  10.777 -0.0891  0.0395 -0.0111
19106W        W34237   6.156   3.096  15.067 -0.0678  0.2160  0.0532
19107W        W34238  12.599  12.560   0.656 -0.1883  0.1509  0.0702
19108W        W34239   4.184   2.402   3.013 -0.4463 -0.0692  0.1654
19109W        W34240   6.286   8.551   3.284  0.2579  0.0120  0.1505
19110W        W34241   4.696  12.342   3.372  0.0600 -0.1943  0.1575
19111W        W34242   9.918  17.820  11.133  0.1162  0.1236  0.0559
19112W        W34243   0.739   0.474   1.504  0.1445 -0.0425  0.1806
19113W        W34244  10.727  16.091  11.054 -0.0338  0.3248 -0.0892
19114W        W34245  11.829   4.204   0.453 -0.1579 -0.0355 -0.1525
19115W        W34246  15.425   4.035  14.500  0.2660  0.0366  0.0293
19116W        W34247   9.738   0.746   5.707  0.2832  0.1407  0.0753
19117W        W34248   6.351  13.813  14.783 -0.0133  0.0297 -0.0821
19118W        W34249   8.830  16.868  13.923 -0.2731  0.1324 -0.1208
19119W        W34250  17.043   2.128  13.903  0.0447 -0.1632  0.1298
19120W        W34251  18.309   1.075   3.444 -0.0500  0.2003  0.2994
19121W        W34252   1.487   4.243  14.452 -0.3043 -0.0396 -0.1477
19122W        W34253  13.740   9.830  15.915 -0.1378  0.0129 -0.1909
19123W        W34254   7.556  16.689   1.356  0.0036  0.0529 -0.1179
19124W        W34255   7.742  17.189  14.730 -0.1495  0.0031  0.0144
19125W        W34256   4.274  15.996  11.785 -0.1398  0.1685 -0.0367
19126W        W34257  13.076   6.223  11.931 -0.2470  0.0751  0.0953
19127W        W34258   3.345   2.747  15.014  0.0939  0.1485 -0.0235
19128W        W34259  16.151   0.927  15.869 -0.1154  0.0092 -0.0561
19129W        W34260   7.081   1.239  15.285 -0.1822  0.1073 -0.2004
19130W        W34261  17.633   9.254  14.134 -0.0764 -0.0096 -0.0789
19131W        W34262  17.064  13.994   5.372 -0.1272 -0.0243  0.0981
19132W        W34263  13.438  16.652  15.821  0.0530  0.3056  0.3169
19133W        W34264  17.107  10.575   5.682  0.0982 -0.0881 -0.1415
19134W        W34265   1.154  16.320   1.107 -0.1029 -0.1259  0.0995
19135W        W34266  15.893  15.177   3.639 -0.0174  0.0411  0.2424
19136W        W34267   7.359   3.766   0.494  0.1124  0.0533  0.2662
19137W        W34268   4.232  10.021   1.189 -0.4240  0.1921  0.0726
19138W        W34269   4.617  15.475  13.318 -0.0735 -0.0278  0.0423
19139W        W34270   7.329  17.027   3.272 -0.0463  0.0328 -0.1917
19140W        W34271   3.816  12.613   0.132  0.0588  0.0067 -0.2165
19141W        W34272   1.932  17.063  10.868 -0.0018 -0.1860 -0.0073
19142W        W34273   9.139   1.467   0.060 -0.1577  0.0966 -0.1796
19143W        W34274   0.237   7.388  12.804 -0.0735  0.0480 -0.3522
19144W        W34275  12.847  13.713   6.345 -0.2347 -0.3178 -0.1833
19145W        W34276   6.303  16.729   5.547  0.0973 -0.0236 -0.1153
19146W        W34277  13.915  18.350   3.809 -0.0551 -0.0120 -0.1475
19147W        W34278  10.653  11.939  11.992 -0.0255  0.2399  0.0367
19148W        W34279  14.553   1.016   2.494 -0.0417 -0.0155 -0.0585
19149W        W34280   2.094  15.278   4.523 -0.0400  0.0101  0.3846
19150W        W34281  17.160  12.320  11.302  0.0819  0.0107 -0.0778
19151W        W34282   7.842   5.795  14.240 -0.0814 -0.0433  0.0983
19152W        W34283  16.917  10.835   1.737  0.3937 -0.2885 -0.1019
19153W        W34284   4.545  16.861   4.101 -0.3563 -0.2411 -0.1541
19154W        W34285  14.003  14.084  15.439  0.3890 -0.5030 -0.2570
19155W        W34286   5.110   8.956  14.052  0.0347 -0.0196  0.1117
19156W        W34287  13.597   2.282  14.844  0.1276  0.0978 -0.1265
19157W        W34288   4.788   0.851   2.642 -0.0161  0.1407  0.0518
19158W        W34289  12.974  18.067   4.125 -0.1328  0.0370  0.0505
19159W        W34290   8.772  14.992  15.184 -0.0985 -0.2821  0.0378
19160W        W34291  16.239   0.933  13.375  0.1081  0.0899 -0.0551
19161W        W34292  17.337   5.866   5.308  0.0396 -0.3960 -0.0729
19162W        W34293  14.248   1.192   4.958 -0.0954 -0.1490  0.0244
19163W        W34294   4.438  11.999  13.370  0.0115 -0.1995 -0.1149
19164W        W34295  11.075  17.811   1.119 -0.2343 -0.1304  0.2084
19165W        W34296  12.758   8.859  11.540 -0.1392 -0.1355  0.0216
19166W        W34297  18.090  11.731   0.809 -0.2686  0.0367 -0.0526
19167W        W34298   3.839   7.445   2.071  0.1337 -0.0184 -0.3187
19168W        W34299   6.203   0.735   2.498 -0.0456  0.2652  0.3738
19169W        W34300   5.562  11.675  14.184  0.0496  0.0107 -0.2215
19170W        W34301   6.648   4.303   4.029  0.1599  0.0659  0.1002
19171W        W34302   1.843   5.415   2.846  0.2232 -0.1571  0.0443
19172W        W34303  14.736  16.038  13.126 -0.2523 -0.0337  0.0014
19173W        W34304  17.496  10.506  13.113 -0.4289  0.3423 -0.1193
19174W        W34305  15.458   2.839  13.926 -0.0697  0.0765  0.4633
19175W        W34306  10.836  16.027   3.322  0.1785 -0.0559 -0.0323
19176W        W34307  16.448   3.160   1.197 -0.1593 -0.0455  0.0457
19177W        W34308   4.080  15.930   1.145  0.0919 -0.1945 -0.3033
19178W        W34309   7.394   6.331   3.281  0.0206 -0.0460  0.1848
19179W        W34310   2.530  15.735  11.281  0.2587 -0.2154  0.2695
19180W        W34311   4.156   1.311  15.924 -0.0710  0.0059  0.0809
19181W        W34312   1.413   7.018   1.950  0.2432 -0.2046  0.2168
19182W        W34313   4.073  12.649  12.343 -0.2586 -0.0249  0.1111
19183W        W34314   1.329   8.534   2.961 -0.1119 -0.3790 -0.0678
19184W        W34315  12.983   8.571   5.287  0.0796 -0.1138  0.2713
19185W        W34316   1.005  17.162  15.162  0.0389 -0.0933  0.0355
19186W        W34317   3.677   2.640   1.157 -0.1967  0.0649 -0.1263
19187W        W34318   8.435   5.238  14.786  0.0798 -0.3544 -0.4268
19188W        W34319  11.159   0.283  15.106  0.1717  0.1494 -0.0794
19189W        W34320  13.937   7.529  11.007  0.1319 -0.2124 -0.2834
19190W        W34321   6.649   0.122  13.240  0.1234 -0.0399 -0.0834
19191W        W34322  16.096   9.945  15.927  0.3874 -0.0978 -0.1871
19192W        W34323  16.008  16.267  13.158  0.2933  0.1001 -0.1465
19193W        W34324  15.580   6.208  16.106 -0.1908  0.1860 -0.0822
19194W        W34325   0.465  12.280  13.519  0.1524 -0.2165  0.0351
19195W        W34326   8.494   2.944   3.948  0.0719 -0.0891 -0.2826
19196W        W34327   6.322   9.428   1.723 -0.0865 -0.1039  0.1433
19197W        W34328  13.111  12.779   0.498 -0.0162 -0.1233  0.0969
19198W        W34329   1.431  10.168   0.939  0.0936 -0.1364 -0.2498
19199W        W34330   6.102   6.765  14.383 -0.2232 -0.1787 -0.0239
19200W        W34331   3.955   7.455  15.249 -0.2099 -0.1695  0.2001
19201W        W34332   5.077  12.038   0.110  0.1444  0.0419  0.0133
19202W        W34333   9.654   7.863  12.535 -0.0321  0.1496  0.0481
19203W        W34334  15.309   6.410  12.685 -0.0071 -0.1710  0.1581
19204W        W34335   2.709   5.687   2.533  0.0008  0.0895  0.1473
19205W        W34336  15.851  13.130   1.535 -0.0254 -0.2578  0.1827
19206W        W34337  10.752  13.149   3.814 -0.0850 -0.0421  0.1825
19207W        W34338  12.400  16.321  13.726  0.1814 -0.3211 -0.1971
19208W        W34339   3.158   5.499   0.700  0.1437 -0.0543 -0.0094
19209W        W34340   3.963   3.469   3.989 -0.0394  0.1035 -0.0364
19210W        W34341   3.370  10.189   0.294  0.0260 -0.2018 -0.0151
19211W        W34342   9.441   8.568   3.996 -0.0984  0.0858 -0.2058
19212W        W34343  11.147   3.200   4.435 -0.0719 -0.1835  0.0001
19213W        W34344   3.675  17.472  13.170  0.0993 -0.2695 -0.5805
19214W        W34345  18.056   9.102  13.634  0.0686  0.0405 -0.2409
19215W        W34346  15.571  16.325  15.428  0.0599 -0.1689 -0.1004
19216W        W34347   5.066  10.429   0.314  0.1459  0.1825  0.3380
19217W        W34348  15.750   2.376  14.607 -0.0524 -0.2380  0.0576
19218W        W34349   4.924  17.533   4.734  0.2088 -0.1396 -0.4132
19219W        W34350  14.797   2.721   5.482  0.1547 -0.3158  0.0156
19220W        W34351   7.510  15.113  10.585 -0.0002  0.2655 -0.1232
19221W        W34352   8.439  14.958   4.373  0.0921 -0.1992 -0.0649
19222W        W34353  17.429  13.303   1.858 -0.2021  0.1048  0.0621
19223W        W34354   7.185   9.403   1.480  0.0141 -0.2284  0.2640
19224W        W34355  12.190  11.515  11.315 -0.2886 -0.2486  0.3509
19225W        W34356  13.599  18.137  10.723 -0.0470  0.1106 -0.1021
19226W        W34357  15.606   6.074  12.582 -0.2939 -0.3308 -0.2056
19227W        W34358  11.148  12.133  14.914  0.1565  0.0419 -0.1454
19228W        W34359   1.984   1.315   4.400 -0.2277  0.3317 -0.2110
19229W        W34360   9.499   5.418  12.643 -0.2844 -0.0285 -0.0374
19230W        W34361   2.004   9.477  15.209 -0.1003  0.2340  0.2295
19231W        W34362   1.848  12.680   0.275 -0.0959  0.3071  0.1195
19232W        W34363   0.549  11.996   0.492 -0.1765  0.0915 -0.2110
19233W        W34364  10.423   4.185   5.460  0.1805  0.0423  0.0163
19234W        W34365  16.357  12.165   1.712 -0.0834  0.2674 -0.2220
19235W        W34366   5.921   8.209   3.588 -0.1525  0.0215 -0.0244
19236W        W34367  10.829  16.958   6.062 -0.4005  0.1336 -0.1186
19237W        W34368  11.263   9.321  14.130 -0.0175  0.0846 -0.2276
19238W        W34369  17.445   1.091  11.085 -0.0936  0.2770 -0.0920
19239W        W34370   6.204   1.866  12.561  0.1399  0.0285 -0.2294
19240W        W34371   6.835  15.761   3.296 -0.0364 -0.1334 -0.0331
19241W        W34372  18.468  14.122   4.992 -0.1360  0.0916  0.2543
19242W        W34373  11.019   2.892   3.939 -0.0687 -0.0570 -0.2603
19243W        W34374   2.728   8.489  11.476 -0.1423  0.2393  0.1350
19244W        W34375  14.769   1.920  10.443 -0.1946 -0.1813  0.1349
19245W        W34376   7.310  16.873  15.139  0.2499  0.0017  0.0898
19246W        W34377  16.525   1.115  14.897 -0.0346 -0.0851 -0.0917
19247W        W34378   5.835   1.001  15.834  0.2333  0.3991  0.0083
19248W        W34379   9.526   5.873   3.512  0.3203  0.2765  0.1467
19249W        W34380  11.803  11.180   3.612  0.0999 -0.2644 -0.1536
19250W        W34381   8.506   6.694   0.995 -0.0649 -0.1120  0.0986
19251W        W34382   5.621   6.108  11.251 -0.2373 -0.1161  0.6301
19252W        W34383   5.490   9.251   5.193 -0.1463  0.0466  0.3867
19253W        W34384   8.876  15.194  10.369  0.2275  0.2291  0.2456
19254W        W34385   5.769  15.345  14.220  0.2131 -0.2732 -0.2258
19255W        W34386  11.662  17.096  14.666 -0.0887 -0.2027 -0.1291
19256W        W34387   6.445   3.800   0.758 -0.2421  0.2139 -0.2154
19257W        W34388   2.439   0.452   1.436 -0.1668 -0.0710 -0.3004
19258W        W34389   7.913   3.515  14.058 -0.1529  0.2586  0.1257
19259W        W34390   9.580  16.032   4.383  0.2493  0.1809  0.2735
19260W        W34391   0.240  17.725   0.537 -0.2203 -0.0746 -0.3298
19261W        W34392   9.167  17.590  12.033  0.4321  0.1037 -0.2998
19262W        W34393  18.034  13.278  15.102 -0.0053 -0.2079 -0.2495
19263W        W34394   8.276  11.454   3.822  0.2091 -0.1515  0.1567
19264W        W34395  16.544   0.247   2.621 -0.2029  0.0895  0.2893
19265W        W34396  12.278  15.745   2.054 -0.1016 -0.0008 -0.0076
19266W        W34397   0.299  18.064  10.224  0.0527  0.1020 -0.1484
19267W        W34398   5.601   7.921   0.865 -0.0822 -0.0852  0.0191
19268W        W34399   9.730   3.455  11.376 -0.0838 -0.0092  0.0733
19269W        W34400   4.515  12.838   4.273  0.1077  0.2374 -0.0377
19270W        W34401  14.157  12.584  12.294  0.2819  0.2911 -0.1407
19271W        W34402  11.881   4.697   0.446  0.2298  0.1449  0.0250
19272W        W34403  17.581  16.330   4.195 -0.2869  0.2047 -0.2325
19273W        W34404   8.159  10.948  12.025 -0.2972 -0.0097  0.0977
19274W        W34405  17.728   8.719  12.733 -0.0858 -0.1677 -0.0258
19275W        W34406  12.820  11.254   0.853 -0.2524 -0.2478 -0.0415
19276W        W34407  17.861   8.413   3.596 -0.0349 -0.3227  0.0156
19277W        W34408   7.393   8.296  13.231  0.1638 -0.1413  0.0661
19278W        W34409  10.025  16.658  10.658 -0.3370 -0.3396 -0.1545
19279W        W34410   3.996  15.447   0.945 -0.0082 -0.0754 -0.0669
19280W        W34411  17.148   7.320   3.093  0.1118  0.1115  0.2420
19281W        W34412  17.362   6.843   5.344  0.0725 -0.4754  0.0408
19282W        W34413   4.304  12.181   3.610 -0.2646 -0.3526 -0.1940
19283W        W34414  15.332  14.198  15.716 -0.1631 -0.2203 -0.0482
19284W        W34415  17.902   4.451  16.088 -0.1793 -0.0837  0.0501
19285W        W34416  15.389   1.211  13.715  0.0230  0.0385  0.0923
19286W        W34417   0.778  11.381   2.173 -0.0540  0.0487 -0.1147
19287W        W34418   9.909   9.801   5.402 -0.0132 -0.0531  0.0780
19288W        W34419  18.160  15.194  10.121  0.0988  0.1510  0.2246
19289W        W34420   3.077   0.411   4.294  0.1529 -0.1352  0.1697
19290W        W34421  16.083   1.617   2.430  0.1001 -0.2025  0.1944
19291W        W34422   8.421   2.646  14.216 -0.1956 -0.2453  0.1329
19292W        W34423   4.629   7.592   0.398  0.0465  0.0569 -0.0365
19293W        W34424  15.174   5.314   1.529  0.1987 -0.0373  0.1159
19294W        W34425   7.916   9.499  13.326  0.0566 -0.0482 -0.1520
19295W        W34426   4.722   8.234   4.955  0.3304  0.1389 -0.0914
19296W        W34427  17.540  18.184   4.463 -0.1205  0.1557  0.0934
19297W        W34428  10.191   2.454   3.398  0.3344 -0.0548 -0.1245
19298W        W34429   7.182  12.643   5.714 -0.2506 -0.1680  0.2239
19299W        W34430  14.932  10.123  11.678  0.2280 -0.0598 -0.1726
19300W        W34431  11.500   9.795   3.417  0.1645  0.0868  0.2263
19301W        W34432   8.586   0.627  14.809 -0.2061  0.2474 -0.2071
19302W        W34433   0.459  13.009   4.321 -0.1543 -0.1644 -0.1568
19303W        W34434   0.550  15.680  11.560  0.2827  0.0893 -0.1782
19304W        W34435  12.572   3.549  11.628 -0.0084 -0.1096 -0.1270
19305W        W34436   8.592   8.998  15.408  0.3580 -0.0160 -0.0044
19306W        W34437   4.962   8.540  11.334  0.0099  0.1271  0.0148
19307W        W34438  12.776   2.010  13.518 -0.2479 -0.0335  0.0056
19308W        W34439   2.090   9.827   1.616 -0.0853 -0.0754 -0.0105
19309W        W34440   1.572   9.915   0.045  0.1018 -0.0543  0.2466
19310W        W34441   2.429  11.025  14.679  0.0492 -0.0099  0.2278
19311W        W34442  16.694   8.477  15.052 -0.1409  0.0411 -0.0425
19312W        W34443  16.358  13.978  10.030  0.1083  0.0916 -0.1625
19313W        W34444  15.645  14.748  15.619 -0.1410  0.2370  0.4185
19314W        W34445   5.854  18.198  10.969  0.0373 -0.0600 -0.0223
19315W        W34446  15.846   2.839   0.651  0.2986 -0.0063  0.2206
19316W        W34447  14.352  12.391   0.089  0.1965  0.2365  0.5681
19317W        W34448   3.986   4.531  14.572 -0.1542 -0.3053 -0.0309
19318W        W34449  13.529   8.145   5.019  0.2080 -0.1467 -0.1538
19319W        W34450  13.936  10.108  15.473 -0.0447 -0.2984 -0.0596
19320W        W34451   8.398   0.821   1.128  0.1080 -0.0601  0.0018
19321W        W34452   7.774  15.459   3.293  0.0272  0.0086  0.0858
19322W        W34453  13.808   5.228  15.724 -0.2133 -0.1132 -0.2454
19323W        W34454   8.181   3.655  12.596 -0.4575 -0.0995  0.1174
19324W        W34455  12.787   3.692   2.839 -0.2409  0.2046  0.0855
19325W        W34456  10.688   1.528   2.511  0.0636 -0.2692  0.3461
19326W        W34457  16.494   7.141  13.761 -0.0999  0.1498  0.0463
19327W        W34458   3.941   6.830  13.015  0.1811  0.1763  0.2687
19328W        W34459   4.127   5.490   2.917 -0.1361 -0.1036 -0.2811
19329W        W34460   8.491  11.253   1.828 -0.1360 -0.0933  0.0182
19330W        W34461   3.288   5.803  12.273 -0.0092 -0.1526 -0.0101
19331W        W34462  16.197   5.063  14.818  0.1769 -0.0963  0.2542
19332W        W34463   9.916  17.217  14.379 -0.3075  0.2743  0.0590
19333W        W34464   9.897  16.978   5.614  0.3915  0.1908  0.1032
19334W        W34465  11.340  10.232   4.613  0.0741 -0.4012  0.0294
19335W        W34466  11.665   0.199   2.964  0.0066 -0.2041 -0.0772
19336W        W34467   0.447  15.496   3.022  0.3848  0.0875 -0.2710
19337W        W34468  12.280   8.928  15.812 -0.2274 -0.0450  0.1458
19338W        W34469   4.251   4.577   4.735 -0.3593 -0.0095 -0.2288
19339W        W34470  11.210   2.341  15.227  0.2710 -0.1770  0.0262
19340W        W34471  14.214   3.926  13.453  0.1623 -0.0120 -0.1590
19341W        W34472   8.553   0.658  12.346 -0.1226  0.1729 -0.3481
19342W        W34473   8.219  15.570  11.960  0.0625 -0.0594 -0.0767
19343W        W34474  12.809   1.191  12.670 -0.0834 -0.0715  0.0900
19344W        W34475   0.966   0.885  11.509 -0.1230  0.1709  0.3889
19345W        W34476   2.912   7.926  13.060 -0.2192 -0.0136  0.0436
19346W        W34477   6.841  17.116   2.142 -0.3040 -0.0628 -0.2067
19347W        W34478  14.757   2.322  13.198 -0.1332 -0.1652  0.0895
19348W        W34479   5.380  18.329  12.858  0.0233  0.0166 -0.2151
19349W        W34480  12.506  11.614  12.836  0.4298 -0.2044  0.1647
19350W        W34481   1.640  18.387   3.552 -0.1223  0.3197 -0.0140
19351W        W34482   4.032   7.774  11.534  0.2585  0.0985 -0.0515
19352W        W34483   4.403   6.666   4.408 -0.1071  0.1307 -0.1838
19353W        W34484  18.036   9.607  12.196 -0.1876 -0.1983 -0.0067
19354W        W34485   2.995   3.585   4.185  0.1705  0.2146  0.3996
19355W        W34486  15.200   9.015   3.475 -0.2150 -0.1539 -0.2237
19356W        W34487  12.260  13.834   1.274  0.1380 -0.0370  0.0448
19357W        W34488  12.384  16.929   0.721  0.1780  0.3521 -0.1694
19358W        W34489   2.217   3.633   1.603 -0.0273  0.4401  0.1399
19359W        W34490  14.623   0.198   0.385  0.4863  0.1320 -0.2055
19360W        W34491   4.900  17.975  14.564 -0.4349  0.1922 -0.0269
19361W        W34492   2.631   3.767   1.298 -0.1493 -0.0380  0.0007
19362W        W34493  17.249  13.906  15.937  0.2012 -0.1214  0.2111
19363W        W34494  11.140   2.250  10.755 -0.2949  0.0078  0.1887
19364W        W34495   0.097  17.928  12.552  0.0299 -0.2045 -0.2392
19365W        W34496  13.604  17.432   3.880  0.0147  0.0534 -0.2026
19366W        W34497   9.324   3.033   5.559 -0.0569  0.0282 -0.1369
19367W        W34498   3.486  14.333  10.373 -0.3455  0.1969  0.0138
19368W        W34499  16.836   1.436  12.924  0.0144  0.0587 -0.0512
19369W        W34500  10.625   2.791  14.034 -0.4060  0.0074  0.2367
19370W        W34501   4.664  11.813   0.569  0.2288  0.0229  0.3653
19371W        W34502   0.188   9.967  14.328  0.0604 -0.1818  0.1540
19372W        W34503  11.204   3.587  14.136  0.3766 -0.0382  0.2802
19373W        W34504  18.130   3.383  16.083  0.2456 -0.2805 -0.1908
19374W        W34505   7.318   0.581   0.356  0.2815  0.0803 -0.1834
19375W        W34506  12.734   8.855   2.634 -0.3211  0.0262 -0.1195
19376W        W34507   1.247   7.505   1.393  0.1069 -0.0334  0.0664
19377W        W34508   2.186   0.067  14.098 -0.2030 -0.4816  0.0159
19378W        W34509  10.311   5.681   5.578 -0.1118  0.0791 -0.2435
19379W        W34510  18.323   4.470  14.835  0.0618 -0.0510 -0.1397
19380W        W34511  14.755   6.289  12.228 -0.0790  0.1644 -0.2185
19381W        W34512   0.949   0.283  10.549 -0.2384 -0.0905  0.3602
19382W        W34513   6.676  14.242   1.449  0.3557 -0.0406  0.0046
19383W        W34514  12.504  11.959  14.887 -0.3221 -0.1280 -0.3483
19384W        W34515  12.678  16.973  10.499 -0.0000 -0.1406 -0.1557
19385W        W34516   2.339   2.652   1.322  0.0718  0.0836  0.1045
19386W        W34517   0.430  11.458   6.157  0.0467 -0.2204 -0.0662
19387W        W34518  16.743   9.540  13.419  0.0450 -0.0393  0.1367
19388W        W34519   4.541   3.168   4.852 -0.0030 -0.0495  0.1730
19389W        W34520   7.126   3.871  15.042 -0.2658 -0.1158 -0.0472
19390W        W34521   6.920  11.070   0.929  0.0132 -0.0561  0.0875
19391W        W34522   2.832  13.647  13.155 -0.2165  0.0844 -0.2054
19392W        W34523   1.467  17.874   3.005  0.3316  0.0446 -0.7302
19393W        W34524   2.036   1.010  11.561 -0.0072 -0.1256  0.0084
19394W        W34525  13.022   5.293   4.252  0.1832 -0.0008 -0.1638
19395W        W34526  13.784   4.067   3.653  0.0565 -0.0436  0.2163
19396W        W34527   7.761  13.787   2.166  0.0139 -0.2112 -0.3108
19397W        W34528   9.290   3.175  11.407  0.1355  0.0617  0.1955
19398W        W34529  12.039  14.818   6.123  0.1312 -0.2822  0.3467
19399W        W34530   3.505  16.974   2.652 -0.1326  0.1311  0.2014
19400W        W34531   5.182   3.917  12.083 -0.1866  0.0180  0.0552
19401W        W34532  12.595  10.058  15.059 -0.0395  0.3343  0.0676
19402W        W34533  13.573  16.184   3.363 -0.1953  0.3428  0.2040
19403W        W34534   4.200  15.466  10.236  0.0774  0.1574  0.0792
19404W        W34535   1.843  13.296  11.943 -0.4974 -0.1261 -0.1519
19405W        W34536   5.751  11.012   3.105  0.0430  0.3438  0.0229
19406W        W34537   3.564  14.671   3.812  0.2070 -0.3428 -0.1459
19407W        W34538  17.181   5.923  12.116  0.1853  0.1287  0.2253
19408W        W34539   3.602  14.172   3.760 -0.0817  0.0839 -0.3630
19409W        W34540   1.589  14.899  15.935  0.0219 -0.0061 -0.3007
19410W        W34541  14.412  10.158   4.828  0.0561 -0.2766 -0.0741
19411W        W34542   2.250   3.050   1.713 -0.0822 -0.0032 -0.1127
19412W        W34543  10.231  10.177  15.348 -0.1198  0.1765  0.2758
19413W        W34544   1.223   0.983   0.945 -0.1442  0.4234  0.0919
19414W        W34545  14.774   6.225  11.723 -0.4518  0.1718  0.1547
19415W        W34546   6.811  14.411  15.428  0.2631  0.2993 -0.1784
19416W        W34547   3.816   1.349  14.397  0.1137 -0.0417  0.0806
19417W        W34548  15.345   8.040   4.055 -0.2836 -0.1012 -0.1007
19418W        W34549   1.729   0.232   1.898  0.0300  0.3433 -0.1129
19419W        W34550   3.857   0.058  13.064 -0.0544 -0.0469  0.3824
19420W        W34551  14.930   1.340  11.534  0.2393 -0.3620 -0.1555
19421W        W34552   8.877   8.702   5.606  0.2049  0.0309 -0.1444
19422W        W34553   9.610   1.372  15.980 -0.1431 -0.0669  0.0261
19423W        W34554   1.399   5.468  14.498  0.2181 -0.2601  0.1632
19424W        W34555   1.567  17.525   0.351  0.2537 -0.3005 -0.1793
19425W        W34556  13.568  12.505  15.133 -0.1413 -0.0102  0.2795
19426W        W34557   5.301  13.438   1.342 -0.1656 -0.0210  0.1737
19427W        W34558   7.220   1.894   1.817 -0.2012  0.1207  0.0515
19428W        W34559   2.536   7.374  11.226  0.0754 -0.1686 -0.0972
19429W        W34560  12.546   6.183  11.778 -0.1931  0.1669 -0.1318
19430W        W34561   2.303  11.105   5.833  0.3069  0.2169  0.3058
19431W        W34562   9.348   1.649  12.819 -0.1670  0.0833 -0.1128
19432W        W34563   2.561   5.886  14.807  0.2793  0.2002 -0.0843
19433W        W34564   7.443   0.012   0.476 -0.2951 -0.1879 -0.0444
19434W        W34565  13.491  15.171   1.163 -0.0068 -0.1540  0.1100
19435W        W34566   5.374  13.643   2.364 -0.0825  0.1336  0.2723
19436W        W34567  13.545  16.889   1.127  0.0730 -0.0739  0.2339
19437W        W34568   0.515   5.792  14.197 -0.1452 -0.1620  0.1517
19438W        W34569  17.161   0.088   3.639  0.0493  0.2352  0.1991
19439W        W34570  10.006  14.829  15.265  0.0277 -0.1481 -0.2818
19440W        W34571   2.497  12.597   1.233 -0.0771  0.3612 -0.1202
19441W        W34572   0.860  16.185  13.401  0.1574 -0.2065  0.1257
19442W        W34573   4.726   3.284  13.385  0.0578 -0.2335 -0.2287
19443W        W34574  17.638  13.698   0.996 -0.2654 -0.1268  0.1203
19444W        W34575  16.943   6.160   4.984 -0.1622  0.0048  0.2617
19445W        W34576  14.820   1.495   3.388 -0.3758 -0.1330  0.0932
19446W        W34577   0.859  18.445  14.606  0.0206 -0.4523 -0.2623
19447W        W34578   4.006   9.428  11.497  0.2402 -0.2126  0.1042
19448W        W34579  16.926   5.169   1.861  0.0871 -0.3252  0.3325
19449W        W34580  11.265   8.309  13.192  0.0290 -0.0673 -0.5133
19450W        W34581   8.456  13.221  11.425  0.2728 -0.1209 -0.1082
19451W        W34582   7.406  15.588  10.524  0.0995 -0.3022 -0.0449
19452W        W34583   0.016   9.626   1.926 -0.2098 -0.3975  0.0115
19453W        W34584   0.928  18.236  13.135  0.1368 -0.2820  0.2828
19454W        W34585  10.423   7.655   3.066  0.2035  0.4262  0.1623
19455W        W34586  13.656  12.829   3.649 -0.2374 -0.1908  0.1468
19456W        W34587  10.988   7.792   5.839  0.0276 -0.1644  0.1418
19457W        W34588  15.636   3.591  13.430  0.2493 -0.2609 -0.1801
19458W        W34589  17.859   6.405   0.400  0.1703 -0.0367  0.0147
19459W        W34590  18.282  15.962   3.009 -0.1161 -0.2195 -0.0939
19460W        W34591  15.519   8.784  14.093 -0.2196 -0.0382  0.2000
19461W        W34592   4.050  17.735  14.788  0.2673  0.0174  0.0284
19462W        W34593  16.341   4.650   3.278 -0.4312 -0.1213 -0.0010
19463W        W34594   3.728   3.004   3.899  0.0636  0.0325 -0.1675
19464W        W34595   6.471   4.310  12.899  0.2699  0.0209 -0.1218
19465W        W34596  16.267   2.961  15.271  0.0773 -0.2313 -0.3572
19466W        W34597  10.587   4.490   4.872 -0.0598  0.3291 -0.5665
19467W        W34598  13.510  10.645   4.927  0.0080  0.2653  0.0075
19468W        W34599   1.990   5.766  11.810 -0.0916  0.1004 -0.4503
19469W        W34600  14.046   2.095  11.633 -0.0451  0.0050  0.0008
19470W        W34601   4.327   0.773   3.898 -0.1689  0.0849  0.0696
19471W        W34602   2.588   9.782  14.392  0.0706 -0.0633 -0.2167
19472W        W34603  11.138  12.959  13.433  0.3693  0.3344  0.1011
19473W        W34604  17.186   1.547   4.423  0.3106 -0.0799 -0.2742
19474W        W34605   5.465  18.411   4.518 -0.4662  0.0100 -0.1701
19475W        W34606   9.226   9.524  14.652 -0.1019  0.1009 -0.1939
19476W        W34607  13.081  11.164   1.916 -0.1014  0.2688  0.2410
19477W        W34608   4.748   0.496  15.317 -0.0171 -0.0597 -0.0306
19478W        W34609   5.658  17.357  10.026  0.0673 -0.0431 -0.2747
19479W        W34610   1.546  13.735  12.519 -0.1463 -0.0829 -0.2070
19480W        W34611  12.560   0.034  15.307  0.0284  0.1464  0.1401
19481W        W34612  17.402  15.096   3.751 -0.4428 -0.0100 -0.1111
19482W        W34613   8.589   2.807   0.995 -0.1190  0.0550  0.0262
19483W        W34614   8.581  18.153   4.524  0.0700  0.1787  0.1435
19484W        W34615   0.990   2.112   0.335  0.0840  0.2466  0.4320
19485W        W34616  18.430   4.617  13.714 -0.1694  0.0820 -0.1898
19486W        W34617   6.811   5.660   1.151  0.1076  0.3085  0.1955
19487W        W34618  14.312   8.923  12.079 -0.1837 -0.3341 -0.1811
19488W        W34619   6.226   8.991   4.818  0.0703 -0.0140  0.0208
19489W        W34620   7.609   3.644  15.000 -0.0767  0.1359  0.1284
19490W        W34621  14.804   2.909   2.769 -0.1904 -0.1953 -0.0398
19491W        W34622  15.498  16.994   4.128  0.1367 -0.0151  0.0006
19492W        W34623   5.031  17.110   3.880  0.0480  0.1025  0.0500
19493W        W34624  13.413   1.289   5.898  0.1123 -0.1818 -0.1127
19494W        W34625   7.267   7.551   0.115 -0.1024 -0.0524 -0.0650
19495W        W34626   8.245   9.045  15.822  0.0820 -0.3196  0.1414
19496W        W34627   0.451   6.550  13.552  0.4982  0.4202  0.0798
19497W        W34628   3.631  12.291   2.353  0.2090  0.4085  0.0219
19498W        W34629   0.469  15.652   1.321 -0.0319 -0.1112 -0.0001
19499W        W34630   7.213   7.435   5.224  0.0499  0.0521 -0.1586
19500W        W34631   2.715  11.880   2.960  0.0780  0.2491 -0.2919
19501W        W34632   0.824  13.427   0.765  0.0334 -0.4328 -0.0607
19502W        W34633   2.559   2.279  11.009  0.3144  0.1585 -0.0368
19503W        W34634   0.303  13.955  12.265  0.0164 -0.2310 -0.0035
19504W        W34635  16.096  11.656   3.107  0.1399 -0.0770 -0.2921
19505W        W34636   6.970   6.283  12.706  0.2551 -0.1633  0.0236
19506W        W34637  17.071  10.506  13.328  0.2201  0.3550 -0.0113
19507W        W34638  12.458   3.205   0.348  0.0716  0.0349  0.0597
19508W        W34639   8.773   1.961  10.767  0.3575 -0.3255 -0.1423
19509W        W34640   4.155  16.144   2.950  0.1343  0.2088  0.2813
19510W        W34641   4.849  15.089  13.151  0.4714  0.0777  0.0327
19511W        W34642   0.978   7.801  11.895 -0.3031 -0.0774  0.0235
19512W        W34643   6.668  18.359   5.628  0.1010  0.3533  0.2332
19513W        W34644   0.025   6.391  12.143  0.2326 -0.0314 -0.0010
19514W        W34645   3.143  18.022   4.219 -0.5716 -0.1388  0.0548
19515W        W34646  14.123   2.599  16.079  0.0061 -0.1260 -0.0124
19516W        W34647   1.944   9.066   5.140  0.2688 -0.2454  0.0851
19517W        W34648   8.419  17.163   0.991 -0.0125  0.2403  0.0020
19518W        W34649  11.322   2.397   0.938  0.1697  0.0350 -0.0263
19519W        W34650  11.970  14.850   0.181 -0.4401  0.0221 -0.0883
19520W        W34651  12.627  13.318  14.487 -0.0042 -0.0675  0.2461
19521W        W34652   3.894  12.406   0.645 -0.3616 -0.1713  0.0564
19522W        W34653  13.213   7.267   4.114  0.0398 -0.1057 -0.3017
19523W        W34654   4.961   3.173   5.069 -0.2229  0.2381  0.1444
19524W        W34655   6.354   2.245  15.365  0.0121  0.1758  0.2461
19525W        W34656  17.385  12.445   0.419 -0.0656 -0.1227  0.0306
19526W        W34657   6.357   4.031   1.602  0.0126  0.0950 -0.1833
19527W        W34658   2.028  16.067   5.656 -0.0049  0.2079  0.0332
19528W        W34659  16.328  11.694   4.785  0.1011 -0.0251 -0.0394
19529W        W34660  17.541  13.579   0.496  0.2308  0.2618 -0.4204
19530W        W34661   8.685   0.488   2.226 -0.1179  0.2088 -0.0091
19531W        W34662   8.705   5.017   2.331 -0.0928 -0.1994  0.1705
19532W        W34663   1.782   0.855   1.200  0.2476  0.2783  0.0219
19533W        W34664   9.986   2.287  12.086 -0.2514 -0.0565 -0.1901
19534W        W34665   0.375   9.643   2.323 -0.2597 -0.1843  0.1493
19535W        W34666   3.188  17.559   1.462 -0.0289 -0.2230 -0.1362
19536W        W34667  10.346   5.277  11.541  0.1753  0.1190 -0.0318
19537W        W34668  18.238   3.488  14.533 -0.1048  0.1534 -0.1672
19538W        W34669   3.868   0.469  12.749 -0.2771  0.3435  0.2240
19539W        W34670   8.687   2.084  11.476  0.1507  0.2002  0.1678
19540W        W34671   3.787  12.456   1.479  0.1368 -0.4078  0.2362
19541W        W34672   1.836   8.021  14.876  0.0424  0.0545 -0.1896
19542W        W34673   9.491  16.325  16.065  0.0384  0.0446  0.0714
19543W        W34674  11.425  17.362   3.456 -0.2808  0.0213  0.2465
19544W        W34675   6.754  14.853   0.070  0.4709 -0.0724 -0.2104
19545W        W34676   3.909  17.671   4.554 -0.0142 -0.2968  0.2162
19546W        W34677  14.696   6.771   0.310  0.0680 -0.2357 -0.3101
19547W        W34678   1.247   3.814   5.055 -0.3079  0.1808  0.1113
19548W        W34679  10.100   1.353   3.745 -0.3129  0.0971 -0.0766
19549W        W34680  16.605   8.413  13.760  0.2688 -0.0127  0.1327
19550W        W34681   2.464   1.699   4.517 -0.0908 -0.0751  0.1836
19551W        W34682   6.853   4.938   4.178  0.0326 -0.0816 -0.0035
19552W        W34683  14.159  11.330  15.591  0.3985  0.1999  0.2759
19553W        W34684  13.376  11.188   2.777  0.1206  0.0984  0.0287
19554W        W34685  17.164   7.558  11.691 -0.0958  0.0131  0.2723
19555W        W34686   7.076   4.152   1.212  0.3374  0.5502  0.0226
19556W        W34687  13.990   7.204  11.421 -0.3771 -0.1566 -0.2780
19557W        W34688  17.636  17.814  12.769  0.2535 -0.0909  0.1395
19558W        W34689   0.815   9.709   4.274 -0.0689  0.3001  0.2996
19559W        W34690   7.524  15.246   0.529  0.0256 -0.0818 -0.3360
19560W        W34691  13.901  12.616   0.806 -0.1727  0.0278  0.1672
19561W        W34692   8.870  10.753   4.114  0.0805  0.0645 -0.1194
19562W        W34693   9.672   6.261  15.725  0.0846  0.0605 -0.0732
19563W        W34694   7.090  11.378   0.403 -0.1478 -0.1545 -0.1593
19564W        W34695  18.348  15.520   4.925  0.3661 -0.0522 -0.2399
19565W        W34696  13.356   1.554  14.233 -0.0414  0.4358 -0.3063
19566W        W34697   4.162   6.486   2.450  0.2016  0.3101  0.2536
19567W        W34698  17.463   8.481  10.854 -0.1432 -0.3174  0.0396
19568W        W34699  13.286   3.351  13.312 -0.4580  0.0901  0.2131
19569W        W34700  11.361  18.090  14.933 -0.2788 -0.0176 -0.1868
19570W        W34701  15.863   6.694  11.433 -0.0210  0.1961 -0.1251
19571W        W34702   3.631  10.464   0.616  0.0519  0.2674 -0.0470
19572W        W34703   7.110  11.093  10.136 -0.2416  0.0587  0.2300
19573W        W34704   6.585   0.295  12.775  0.0013  0.2627  0.1192
19574W        W34705   2.196  12.614   0.735 -0.1703  0.0668  0.0272
19575W        W34706  10.974   1.078   0.341 -0.1081  0.1146  0.2034
19576W        W34707  14.078  11.695   2.234 -0.0217 -0.0205 -0.0631
19577W        W34708   0.588  17.375  10.981 -0.1001  0.0465  0.1603
19578W        W34709  14.583  16.159   2.506 -0.0062 -0.0201 -0.1759
19579W        W34710   6.029  10.543  15.112 -0.0138  0.2382  0.1483
19580W        W34711   4.563   6.642   1.502 -0.0274 -0.0639 -0.1564
19581W        W34712  13.941   9.251  11.997 -0.3728 -0.0372 -0.5126
19582W        W34713  18.103   7.585  12.064  0.1091 -0.4154 -0.0277
19583W        W34714   2.627   8.472   1.464  0.0635 -0.0072  0.0289
19584W        W34715   9.679  14.921  12.768  0.0390 -0.1833 -0.0273
19585W        W34716   3.677  18.248   1.924  0.0232  0.0233  0.1120
19586W        W34717  11.851  18.170   0.110 -0.0579 -0.0517 -0.1362
19587W        W34718  14.997   9.329   4.283  0.0702  0.0377  0.0668
19588W        W34719   6.026   5.642   1.739  0.4286  0.0638  0.1415
19589W        W34720   1.434  11.160  12.256  0.3006 -0.5628 -0.2676
19590W        W34721  17.113   5.269  16.072  0.2695  0.0817  0.0558
19591W        W34722   4.572   9.276   2.805  0.0001  0.3629  0.0383
19592W        W34723   5.379  11.169   0.054  0.1254  0.1610 -0.0675
19593W        W34724  16.450   1.977   4.209 -0.1226  0.2329  0.0115
19594W        W34725   4.496  18.482   4.828  0.2282  0.1799 -0.1664
19595W        W34726  17.817   3.892  14.699  0.0853 -0.0001 -0.0759
19596W        W34727   2.003  17.811   0.313  0.2384  0.4288 -0.2641
19597W        W34728  16.940   2.250   0.974 -0.0487 -0.2154  0.1314
19598W        W34729  14.032  18.117  11.903 -0.3113 -0.3524  0.2249
19599W        W34730  11.889   9.513   5.182  0.1940  0.0445 -0.1109
19600W        W34731  16.038   0.296   4.197 -0.0363 -0.4849  0.1597
19601W        W34732   2.637   6.519  13.476 -0.5226 -0.5044 -0.1604
19602W        W34733   2.320   1.857  10.164 -0.2157  0.2419  0.4863
19603W        W34734   8.326   9.122   0.601 -0.1454 -0.0382 -0.3168
19604W        W34735   5.261  16.360   2.507  0.0810  0.3016  0.2637
19605W        W34736   8.963   1.435  12.008 -0.1163  0.0591 -0.2819
19606W        W34737  17.971  13.411   0.789 -0.2073  0.0567  0.1050
19607W        W34738  13.307  13.621   4.757 -0.0369 -0.0262 -0.5413
19608W        W34739  13.834   2.119  12.395 -0.2200 -0.3289  0.0241
19609W        W34740   1.620   1.201  12.602 -0.2013 -0.3683 -0.3559
19610W        W34741  14.424   1.792  10.869  0.3456  0.2507  0.1926
19611W        W34742  15.120   0.519  10.682  0.2889 -0.0573 -0.1677
19612W        W34743   1.670   9.801   1.354 -0.2343 -0.1911 -0.3369
19613W        W34744   9.544  13.933   0.095  0.0897  0.4953 -0.2699
19614W        W34745   2.272  18.044  11.055  0.1030  0.1025  0.1571
19615W        W34746   4.193   2.187   2.452  0.2315 -0.1770 -0.1849
19616W        W34747   2.607   8.108  15.810  0.1211  0.1008 -0.1245
19617W        W34748  12.296   2.037   3.757  0.1817  0.6642  0.0813
19618W        W34749  10.532  13.592  14.881  0.1553 -0.1575 -0.0460
19619W        W34750   0.555  11.802   5.201 -0.2093  0.0834 -0.1856
19620W        W34751  17.671   9.940  11.396  0.1481 -0.0021  0.1218
19621W        W34752   4.248   9.047   4.652  0.0088 -0.2902  0.0406
19622W        W34753  10.500  11.702  15.480  0.0078  0.2554 -0.0976
19623W        W34754   1.596  12.034  13.359  0.0774 -0.0185 -0.3375
19624W        W34755   0.612   4.393  13.844  0.2279 -0.0834 -0.0027
19625W        W34756  11.490   6.625   2.725  0.0096 -0.2835 -0.2870
19626W        W34757   4.858   6.426  14.150 -0.1642 -0.1631  0.4332
19627W        W34758   0.580   1.614  16.023  0.0044  0.1609  0.1463
19628W        W34759   0.130   8.052   2.046  0.1586  0.0405 -0.2911
19629W        W34760   0.490   8.011  15.467  0.0207 -0.2206  0.1311
19630W        W34761  15.910   3.140  13.476 -0.0966 -0.0460 -0.0849
19631W        W34762  14.283   8.468   1.396  0.0596  0.1143 -0.0049
19632W        W34763  15.251  12.309   4.666 -0.1654 -0.0751  0.4338
19633W        W34764  12.153   8.706  15.240 -0.0882  0.0367 -0.0436
19634W        W34765   6.513   4.136   2.093  0.2501  0.0005  0.0613
19635W        W34766   2.339   5.239  12.258 -0.1686  0.0971 -0.1841
19636W        W34767  16.367  17.405   5.293 -0.0847  0.0381  0.0300
19637W        W34768  15.007  18.351   4.353  0.4063 -0.0169  0.2359
19638W        W34769  18.013   3.880  12.532 -0.0768 -0.2727 -0.4584
19639W        W34770  10.063   6.478   1.820  0.2996 -0.2981 -0.1960
19640W        W34771  14.240   7.003  15.115 -0.2504 -0.1096  0.3409
19641W        W34772  15.999   2.222   4.674  0.2570 -0.0122  0.3503
19642W        W34773  10.659   7.674   2.137 -0.0339 -0.0423  0.0489
19643W        W34774  17.127   7.684   3.417  0.1629 -0.0039  0.1316
19644W        W34775   3.501   8.845   2.560  0.0003 -0.4448  0.0846
19645W        W34776   6.801   0.789  14.944  0.1500  0.1628 -0.2405
19646W        W34777   6.381   0.108  10.588  0.1887 -0.2099  0.2934
19647W        W34778   0.268   0.906  13.210 -0.1208  0.0289  0.3316
19648W        W34779  15.346   4.506  14.806 -0.3424 -0.1161  0.2201
19649W        W34780  18.448  11.451  11.861  0.1795 -0.3001 -0.1288
19650W        W34781   3.576   9.441  11.010 -0.4610 -0.3125 -0.0138
19651W        W34782   2.875  10.782  11.252 -0.1174  0.0554 -0.0181
19652W        W34783   2.523   5.023  13.450  0.3888  0.1775 -0.2391
19653W        W34784  15.497   0.521   0.232 -0.3625 -0.0005 -0.2885
19654W        W34785   7.529  13.062  15.057 -0.0204 -0.1614 -0.0490
19655W        W34786  12.855   3.067  13.443 -0.1211  0.3928  0.2799
19656W        W34787  17.613  14.065   5.096 -0.1836 -0.2642  0.1185
19657W        W34788  11.958   4.691  14.551  0.0520 -0.1565  0.3087
19658W        W34789   5.848  14.482  11.043 -0.2430  0.1633 -0.0974
19659W        W34790   8.936  15.029  13.456  0.1125  0.0949 -0.0641
19660W        W34791  11.123  16.971   0.233  0.0561 -0.1008  0.0697
19661W        W34792   4.752   1.033  15.384  0.0875 -0.0697 -0.1682
19662W        W34793   4.011  14.640  14.107  0.1926  0.0677  0.1484
19663W        W34794  18.028   8.856   1.833  0.1847  0.2201 -0.2359
19664W        W34795  16.455  10.996  14.396 -0.1750  0.4015 -0.2386
19665W        W34796   0.329   1.252   2.937  0.2502  0.0576  0.0154
19666W        W34797  14.047   9.732  10.439 -0.0608 -0.0921 -0.1212
19667W        W34798  15.801   4.121  15.946  0.0787  0.4118 -0.0239
19668W        W34799  13.165   9.866  12.241  0.2191 -0.1601  0.2754
19669W        W34800   1.951   6.790  15.674 -0.1243  0.1086 -0.1709
19670W        W34801  11.979  12.689  12.948 -0.0415  0.1101  0.3160
19671W        W34802   2.096   1.418  15.070  0.2718  0.2707 -0.0829
19672W        W34803  14.650  17.259   2.058 -0.0307  0.1249  0.1493
19673W        W34804  15.394  11.657   3.906 -0.0057 -0.2730  0.1591
19674W        W34805   8.150  11.921   1.375  0.3801 -0.0260 -0.1374
19675W        W34806   0.020  15.608   2.692 -0.0958 -0.2955  0.0698
19676W        W34807  11.315  11.157   0.521 -0.0953  0.0857  0.0280
19677W        W34808   0.247   9.412   3.432  0.0365 -0.0921  0.3614
19678W        W34809  15.361   9.876   5.779  0.0317 -0.0772  0.0210
19679W        W34810  12.591  12.758   1.638 -0.1548  0.0444 -0.3078
19680W        W34811   6.701   3.963  13.168  0.3522 -0.0061 -0.1824
19681W        W34812   7.273   2.448  15.079  0.4129 -0.1354 -0.2143
19682W        W34813   3.812  10.665  14.799  0.0530 -0.3884 -0.1095
19683W        W34814   9.915  17.712  13.789  0.2516 -0.0596 -0.2571
19684W        W34815   9.743   5.366   4.779 -0.0874 -0.1954  0.1186
19685W        W34816   0.642  11.110  11.255 -0.1458 -0.0494 -0.0624
19686W        W34817   6.817   4.947   1.866 -0.3438 -0.3195 -0.1657
19687W        W34818   2.996   8.151   5.435 -0.0320 -0.1466 -0.2170
19688W        W34819   8.079   9.429   1.364  0.6077 -0.1335 -0.1330
19689W        W34820   9.297  10.488  14.336  0.2196 -0.1974 -0.0523
19690W        W34821  14.345  14.644  10.767  0.4139  0.0783  0.1933
19691W        W34822   8.693   7.799   1.859  0.1804 -0.2529  0.0369
19692W        W34823   8.003  15.411  13.187  0.1018 -0.3873 -0.2041
19693W        W34824  11.655  17.363   0.431  0.0687 -0.1481  0.0784
19694W        W34825  14.066   1.334   0.279  0.4108  0.2502 -0.2274
19695W        W34826  10.318   6.277   4.734 -0.0345  0.2971 -0.0798
19696W        W34827  14.105   6.949   6.395 -0.2102 -0.2053 -0.3117
19697W        W34828   1.430  16.324   0.700 -0.0269  0.1985  0.2142
19698W        W34829   1.802   2.680   2.804 -0.1032  0.3542 -0.0209
19699W        W34830   4.815  13.511   3.552 -0.0585 -0.1230 -0.2705
19700W        W34831  18.378  16.295  13.269 -0.1907  0.1500  0.2575
19701W        W34832   2.987  15.694   2.960  0.1303  0.0047  0.0266
19702W        W34833   7.616  17.853  14.038  0.0938 -0.0426 -0.1024
19703W        W34834  17.471   8.780   1.062  0.2607  0.2265 -0.3336
19704W        W34835   9.620  14.522   9.744 -0.0126 -0.2863 -0.0095
19705W        W34836   5.792  16.577  10.368 -0.1840  0.1133 -0.1874
19706W        W34837  14.979   0.097   3.176  0.2870  0.1024 -0.2500
19707W        W34838  17.501  14.313   3.934 -0.1761 -0.4142  0.1766
19708W        W34839  15.478   7.930   0.605  0.0937 -0.1525  0.2213
19709W        W34840   0.498  11.950   2.564  0.2309 -0.1950 -0.0106
19710W        W34841  17.613  16.194   4.790  0.0807 -0.1270  0.0416
19711W        W34842   1.733   9.448   3.538  0.2530 -0.0787 -0.3436
19712W        W34843  17.263  12.064  12.202  0.0969 -0.2414  0.2504
19713W        W34844  16.412   2.959   4.322  0.1537 -0.0480 -0.1079
19714W        W34845   5.117   7.790  13.320 -0.0343  0.0125  0.1237
19715W        W34846  10.200  15.072   0.587 -0.1516 -0.0474  0.1360
19716W        W34847   9.533  11.425  15.440 -0.0442  0.2573  0.2974
19717W        W34848   6.167  13.822   4.625  0.1301 -0.2739 -0.0477
19718W        W34849   9.811  16.337  11.046  0.0044  0.1125 -0.2479
19719W        W34850   9.818   6.883   2.637  0.0647 -0.2152  0.0063
19720W        W34851   7.732  12.527   4.500  0.1347 -0.1223 -0.4166
19721W        W34852  16.823   5.855   5.398 -0.1386  0.2602 -0.1121
19722W        W34853  16.404  13.143  12.922  0.1467 -0.2587  0.0397
19723W        W34854   0.854   5.053   3.401 -0.2291  0.1891  0.1667
19724W        W34855   0.314  11.159   1.324 -0.0102  0.3283 -0.1799
19725W        W34856   3.575   4.291   2.500  0.0067 -0.1885 -0.1524
19726W        W34857  13.322  17.930  15.596 -0.0487 -0.0070 -0.0447
19727W        W34858   1.203   3.164   0.764 -0.1015 -0.1475 -0.0735
19728W        W34859   7.104   8.913  14.542 -0.0570  0.3860  0.1842
19729W        W34860   6.973  14.676  14.972  0.3302  0.0035  0.0866
19730W        W34861   6.200   7.756   0.050  0.1323 -0.3838  0.2009
19731W        W34862  12.622  17.101  12.596 -0.0431  0.2336 -0.2576
19732W        W34863  11.240   3.998   3.487 -0.1418  0.0675  0.1587
19733W        W34864  18.046   8.997   6.052 -0.0122  0.2190 -0.0238
19734W        W34865   5.935   3.117  11.047  0.3521 -0.0241  0.5312
19735W        W34866  17.599   1.065   1.980  0.0872 -0.0110 -0.3507
19736W        W34867   9.233  13.070   5.646  0.2209  0.2903 -0.2028
19737W        W34868  18.235   4.706   3.739  0.0249 -0.2044  0.4460
19738W        W34869  13.283   5.248   2.816 -0.1257 -0.0965  0.0764
19739W        W34870   2.845  11.825  15.390 -0.3685 -0.1071 -0.0706
19740W        W34871  13.222  17.518   0.308 -0.1338 -0.0645 -0.0467
19741W        W34872   3.786   5.050  14.770  0.2986 -0.0056  0.1568
19742W        W34873  15.889  15.382   0.170  0.1150 -0.2115  0.1414
19743W        W34874   1.679  16.740   4.308  0.1262 -0.0566  0.1228
19744W        W34875  18.374   1.616  11.906  0.3056  0.0119 -0.0367
19745W        W34876   8.005   9.485   4.621 -0.0600 -0.2948  0.0388
19746W        W34877  16.289   1.874  12.449 -0.0109  0.2045 -0.1358
19747W        W34878  10.532   9.768   4.636  0.1173 -0.1544  0.1962
19748W        W34879   1.004  12.459  14.329 -0.0100 -0.1474 -0.0982
19749W        W34880  17.444   4.487  14.778 -0.0841  0.2527  0.2443
19750W        W34881   0.345  17.559   1.462 -0.2403  0.2228  0.1444
19751W        W34882  14.778   3.891   1.600  0.3015 -0.0718  0.0707
19752W        W34883  14.396   6.390   4.823 -0.1919  0.0159  0.2675
19753W        W34884   8.921   3.097  12.783 -0.4534 -0.0723  0.5576
19754W        W34885  17.728   1.248  12.478  0.3354  0.2117 -0.0212
19755W        W34886   2.737   7.987   1.370 -0.1647 -0.1899 -0.0475
19756W        W34887   1.949  11.054   1.288  0.2845 -0.2809 -0.0254
19757W        W34888   4.725   3.483  11.679  0.0247  0.2583  0.0710
19758W        W34889   2.788   4.342   2.107  0.1062  0.3304  0.1945
19759W        W34890   6.727  17.828   9.862  0.0507  0.2385 -0.1195
19760W        W34891  15.268   2.629  12.666  0.1089 -0.0890 -0.3422
19761W        W34892   8.829  11.263   4.032 -0.1700 -0.1993 -0.1191
19762W        W34893   5.812   5.735  12.597 -0.1972 -0.5068 -0.2506
19763W        W34894   2.327   3.458  15.075 -0.2331  0.3374 -0.1122
19764W        W34895  11.928  16.388  12.602 -0.0531  0.0398  0.4092
19765W        W34896  10.430  13.902   0.621  0.1127 -0.3494 -0.2034
19766W        W34897  15.896  13.068   4.288  0.0404  0.3824  0.1732
19767W        W34898  13.518   1.123   3.474  0.1131  0.1766 -0.0530
19768W        W34899  13.425   0.762  13.593 -0.1655  0.1884  0.2079
19769W        W34900  14.021  11.159  14.039 -0.2533  0.0818 -0.1108
19770W        W34901  13.648   6.195   3.455  0.2566  0.2470 -0.0077
19771W        W34902  12.307  17.901  12.529  0.0324  0.2670 -0.0656
19772W        W34903   4.193   7.157   1.284  0.2674 -0.1456  0.1827
19773W        W34904   0.346  13.542   2.661  0.1860  0.0135 -0.1029
19774W        W34905   4.011   8.233  13.258 -0.0300 -0.1956  0.0283
19775W        W34906  12.226  15.237  11.144 -0.4522  0.4832  0.0589
19776W        W34907   1.080  14.699  11.357 -0.2044 -0.3920  0.1274
19777W        W34908   1.059  13.325   3.383 -0.0709  0.0654 -0.2507
19778W        W34909  13.983  15.353  14.306 -0.3364  0.2332 -0.0819
19779W        W34910   3.756  10.805  13.692  0.3862 -0.1383 -0.0820
19780W        W34911   0.995   2.796   2.085 -0.0440 -0.1710  0.1303
19781W        W34912   1.692   3.802  15.628 -0.0007 -0.1306  0.1891
19782W        W34913   0.803  16.138  11.538  0.0262  0.2401 -0.3940
19783W        W34914  10.195  17.442   0.701  0.0564  0.0610  0.0887
19784W        W34915  14.179   4.857  15.832 -0.1516  0.0929  0.3701
19785W        W34916  12.615  18.077  10.663 -0.0875 -0.0145  0.1430
19786W        W34917   2.035   6.951   3.416 -0.0068  0.0564  0.0606
19787W        W34918  10.894  11.419   5.113 -0.2962  0.1130 -0.0018
19788W        W34919  13.144   0.141   4.114  0.1829  0.0318 -0.0169
19789W        W34920   2.384  12.531  11.338 -0.0666  0.1347  0.1525
19790W        W34921  18.350  16.742  10.507  0.0091  0.3879 -0.1740
19791W        W34922   6.494  12.675   1.404  0.0325 -0.0486 -0.3032
19792W        W34923  13.111  13.199   0.984  0.0141  0.1230 -0.1273
19793W        W34924  11.784  12.868  12.454  0.0940 -0.0296 -0.0600
19794W        W34925   5.841  15.374  13.735  0.0757  0.0896 -0.0130
19795W        W34926   5.758   8.756   1.103  0.1094 -0.0540 -0.0399
19796W        W34927  15.158   2.220  11.175 -0.1105  0.3986  0.2131
19797W        W34928   5.591   4.487   1.518 -0.1621 -0.4715 -0.0049
19798W        W34929  12.031  11.477  14.100  0.0637  0.0963  0.1031
19799W        W34930   6.069  12.756  13.751 -0.2012 -0.1566  0.0841
19800W        W34931   6.361  14.454  11.103  0.1700 -0.0371 -0.1114
19801W        W34932  10.116   6.442   0.850 -0.1986  0.0896 -0.2413
19802W        W34933  14.474  10.226   0.738  0.0831 -0.0425 -0.1380
19803W        W34934   9.528  17.912  13.567 -0.2009 -0.0087 -0.0238
19804W        W34935  15.235  17.878  11.617  0.0702 -0.0286 -0.0977
19805W        W34936   1.789   3.284   4.600  0.4359  0.0163 -0.1343
19806W        W34937   6.462  11.734   5.324 -0.3626  0.4019 -0.0985
19807W        W34938   9.439   1.886   3.191  0.0094 -0.0117 -0.0455
19808W        W34939   0.507  15.777   2.568 -0.1162 -0.2478 -0.1542
19809W        W34940  11.707   7.097   4.147  0.3493 -0.2020  0.2905
19810W        W34941   5.343   0.963   0.002  0.0222  0.0885  0.2024
19811W        W34942  17.543   0.761  12.660 -0.4236  0.1381 -0.3149
19812W        W34943  14.678   2.024   4.271  0.1537  0.1544  0.0359
19813W        W34944  17.217  12.313   2.648 -0.1078  0.0901 -0.1854
19814W        W34945   4.129  10.430   1.484  0.1368  0.0043  0.0929
19815W        W34946  14.934  15.998   0.569 -0.0944 -0.3089 -0.0517
19816W        W34947   4.349  10.233   4.156  0.0458 -0.0284  0.7147
19817W        W34948   3.834  14.384   1.522 -0.1161  0.2000  0.1127
19818W        W34949   9.729   7.542   5.220 -0.1240 -0.1797 -0.0397
19819W        W34950  10.457  15.372   1.985  0.0557 -0.2364 -0.3152
19820W        W34951   1.016  16.302   3.672 -0.1583 -0.2074  0.1913
19821W        W34952  10.189   3.712   5.388 -0.0928  0.1375 -0.1034
19822W        W34953  14.869   0.830  11.709 -0.3646 -0.2503 -0.2502
19823W        W34954   2.366  17.821  11.847  0.0770  0.2209  0.0803
19824W        W34955  13.909  18.259  11.187  0.2833 -0.4534  0.2603
19825W        W34956   3.057  10.205   4.382 -0.1089 -0.0425 -0.0760
19826W        W34957  14.748  16.068  12.607 -0.0491  0.0276  0.3720
19827W        W34958   2.612  16.561   4.257  0.3161  0.1270  0.2190
19828W        W34959   9.277  11.751   5.524  0.2653  0.1878  0.2015
19829W        W34960   8.208   9.497   3.254 -0.0219 -0.1144 -0.1735
19830W        W34961  16.281  13.594   4.943  0.2207  0.0935  0.0404
19831W        W34962  13.059   7.286   0.078 -0.0460  0.2657  0.0860
19832W        W34963   2.143  18.406  14.999 -0.1454 -0.0407  0.5630
19833W        W34964  17.024   3.386  16.055  0.2837 -0.1909 -0.0157
19834W        W34965   2.239  10.857   2.360  0.0763 -0.0317 -0.1328
19835W        W34966   0.535   3.314  15.879 -0.0956 -0.0278 -0.1072
19836W        W34967   4.424  16.385  10.174  0.0940 -0.1928 -0.3276
19837W        W34968  17.271  17.806  15.943  0.0526 -0.1039  0.3267
19838W        W34969   7.356  16.328   2.713  0.1778 -0.1657  0.0444
19839W        W34970   0.309  14.592   4.147  0.1298  0.1723 -0.1829
19840W        W34971  10.669  12.054   4.852 -0.1125  0.0120  0.3006
19841W        W34972  18.036   8.199   0.408  0.0366  0.0158 -0.1035
19842W        W34973   8.908   8.337   2.024  0.0773 -0.2424  0.1403
19843W        W34974  16.065   0.289   3.583 -0.1214  0.2825  0.1660
19844W        W34975   9.540  17.734  12.919  0.2288 -0.0745 -0.0797
19845W        W34976   0.659   6.275  10.447  0.2582 -0.1938 -0.2479
19846W        W34977  17.545  12.011   5.245 -0.0237 -0.0696 -0.0023
19847W        W34978  17.699   8.158   4.006 -0.3608  0.1413  0.2112
19848W        W34979   1.825  18.053  15.868  0.0090 -0.1299  0.0439
19849W        W34980   1.761  12.744  13.642 -0.1486 -0.2028  0.3191
19850W        W34981  15.105   4.882   3.944  0.0169 -0.3625  0.0183
19851W        W34982  12.508  14.673   2.194  0.2411  0.1801 -0.2026
19852W        W34983   1.397   6.181   2.969 -0.5180 -0.0325  0.1185
19853W        W34984  13.291  11.037   0.719  0.2020  0.3271 -0.1788
19854W        W34985  15.710   0.838   1.894  0.0910  0.1737 -0.1937
19855W        W34986  18.350  17.452   4.165  0.1183  0.4559 -0.1100
19856W        W34987   4.383  11.269   1.354 -0.2843  0.1747 -0.1195
19857W        W34988   4.158   8.704  15.780 -0.0069  0.0321 -0.2426
19858W        W34989   2.976   6.434  11.259  0.0179  0.1227  0.2802
19859W        W34990   2.963  14.626   3.900 -0.1605  0.1264 -0.0786
19860W        W34991   6.271  17.638   2.483 -0.1617 -0.0259  0.2019
19861W        W34992   3.149  12.319  13.431 -0.0341 -0.2250  0.0985
19862W        W34993   2.996   9.498  13.027  0.0263  0.0848  0.3877
19863W        W34994   1.945  17.852  12.777  0.2172 -0.2005 -0.0038
19864W        W34995  10.280   8.671  13.132  0.1908 -0.0823  0.0950
19865W        W34996   6.266   7.032  11.903  0.1252 -0.4109  0.2181
19866W        W34997  12.533   8.458  12.241  0.1006  0.1934  0.0688
19867W        W34998  15.677   0.063  11.301 -0.0090  0.1049 -0.0234
19868W        W34999   8.751   3.029   2.895  0.0275 -0.1735 -0.1511
19869W        W35000  18.279   2.503  15.780  0.0312 -0.0477  0.0132
19870W        W35001   9.181   7.491   6.488 -0.3271 -0.1238  0.2990
19871W        W35002  17.167  18.118  13.564 -0.0303  0.0558  0.1679
19872W        W35003   2.403   9.976  11.708 -0.1825 -0.1882 -0.1801
19873W        W35004  11.052  15.839  10.807 -0.2634  0.0400 -0.1869
19874W        W35005   4.084  13.372   4.820 -0.4301  0.0400 -0.1303
19875W        W35006   2.874  11.321  14.469  0.0351 -0.1752  0.1519
19876W        W35007   9.401   4.916  12.418  0.0159  0.1203  0.0039
19877W        W35008   1.992  13.458  15.212 -0.3134 -0.1126  0.1247
19878W        W35009   4.483   6.836  12.897 -0.0962  0.4289  0.2461
19879W        W35010   0.751   5.392   5.980  0.2897 -0.0226  0.2011
19880W        W35011  15.801   0.712   3.824  0.1015 -0.1426 -0.3074
19881W        W35012   6.343  12.743   3.832  0.1144 -0.1434 -0.1911
19882W        W35013  17.078  12.606   3.078 -0.3446  0.0598 -0.0414
19883W        W35014   0.881   1.078  12.431  0.1073 -0.1434  0.0548
19884W        W35015   5.363   1.583   0.789  0.0243  0.1344  0.1194
19885W        W35016  17.128   6.071   3.254  0.2607  0.0797 -0.0015
19886W        W35017   5.526   5.753  14.868 -0.1367  0.2544  0.0731
19887W        W35018   0.964   1.723  10.153  0.0203 -0.1856 -0.0654
19888W        W35019   5.291  13.062   9.915 -0.1706  0.0288 -0.0223
19889W        W35020  15.277  17.731  12.641 -0.0174 -0.0751 -0.1053
19890W        W35021   9.743   2.206   1.049  0.0088 -0.4345 -0.1452
19891W        W35022  17.497  10.933   3.955 -0.0595 -0.1063 -0.2030
19892W        W35023  16.586   9.444  11.102  0.1525 -0.2192  0.0404
19893W        W35024   7.745   4.160  16.093  0.0792 -0.2531 -0.1328
19894W        W35025  10.059   8.604   6.103  0.0267  0.1571  0.1295
19895W        W35026   0.267   5.991  12.340  0.0094 -0.2128 -0.0020
19896W        W35027   3.151  16.879  15.211 -0.1013 -0.3247  0.2984
19897W        W35028  16.770  13.078   0.210  0.0911 -0.0905  0.0341
19898W        W35029   9.377   5.394   3.464  0.0420  0.1981 -0.2732
19899W        W35030  11.908   1.772  11.631  0.0542  0.0562 -0.1042
19900W        W35031   0.381  14.574   2.378  0.2649  0.3031 -0.1670
19901W        W35032   4.060   6.606   0.194  0.0430 -0.2160 -0.0258
19902W        W35033  17.584   4.425   3.076 -0.1628 -0.0458 -0.1987
19903W        W35034   0.390  16.416  15.975  0.1266 -0.1156 -0.2283
19904W        W35035  16.292  11.150  13.160 -0.1221 -0.2812 -0.0398
19905W        W35036   9.842   8.259   1.036  0.1687  0.0664 -0.0365
19906W        W35037  10.466   3.884   6.011 -0.1084 -0.3393  0.0412
19907W        W35038  12.113  11.589  11.799 -0.0895  0.0478 -0.0687
19908W        W35039   3.260  15.406  14.427  0.1484 -0.0814 -0.0165
19909W        W35040  10.912  16.886  14.133  0.0950  0.1110  0.1990
19910W        W35041   3.566  14.913  11.705  0.0354  0.2740 -0.2248
19911W        W35042  14.080  10.472  11.965  0.1057 -0.0925 -0.3368
19912W        W35043  17.618   4.994  14.718 -0.0699  0.5942 -0.1839
19913W        W35044  11.228   8.362  12.309  0.1297  0.4038 -0.0866
19914W        W35045  14.490   4.019   1.988  0.1295  0.0408  0.1861
19915W        W35046   4.772   8.367  10.387 -0.0596  0.4358  0.3451
19916W        W35047  13.332  15.668  10.680  0.0227 -0.1623 -0.2189
19917W        W35048   9.669   9.327   2.520  0.2616  0.0046  0.0259
19918W        W35049   4.258   0.006  11.391  0.0900  0.0446  0.4308
19919W        W35050  12.385  15.459  11.548  0.3810  0.1495  0.1835
19920W        W35051   0.840   3.905   1.953  0.1001  0.2127 -0.0913
19921W        W35052   4.023   5.398  11.729  0.4090 -0.1942  0.1801
19922W        W35053  16.740   7.423  15.458 -0.0280  0.1868  0.0246
19923W        W35054  10.728   5.593   4.095 -0.1104 -0.0080 -0.3129
19924W        W35055  14.585   7.605  14.543 -0.1906  0.1509  0.2164
19925W        W35056   2.232  12.993   5.848  0.2513 -0.0991  0.3743
19926W        W35057   4.639   2.458  13.684  0.2212 -0.0468 -0.1041
19927W        W35058   7.510  17.463   1.695 -0.1715  0.0013  0.1234
19928W        W35059  17.792  12.390  12.342  0.5262  0.0035 -0.2873
19929W        W35060   4.764  12.003  12.397 -0.3239 -0.4458  0.1823
19930W        W35061   1.771  13.581   2.712  0.2904  0.1006 -0.2047
19931W        W35062   2.553  11.822  14.625  0.2024 -0.1383 -0.0194
19932W        W35063   2.359   7.212   3.690  0.0998 -0.1541  0.2087
19933W        W35064   1.906   1.132   0.224  0.0589 -0.0385  0.2076
19934W        W35065   7.538   6.972  12.019 -0.0425  0.3398 -0.1539
19935W        W35066  12.082   5.637  11.841 -0.3324  0.3319  0.0631
19936W        W35067  15.792   6.367   4.236  0.2891  0.0070  0.0181
19937W        W35068   4.972   8.329  15.125  0.1437 -0.2563  0.0352
19938W        W35069  10.210  13.640   2.760  0.0630  0.3063  0.2699
19939W        W35070   2.630   4.614   0.413 -0.1709  0.1638  0.1475
19940W        W35071   8.447   2.611   2.496 -0.3374 -0.0422  0.1268
19941W        W35072  16.264  14.775  11.070  0.1083  0.0158  0.0624
19942W        W35073   3.400   0.801  12.987  0.2491  0.1433  0.1367
19943W        W35074   8.407   4.883   5.092 -0.2058  0.0432 -0.3614
19944W        W35075   3.807  14.982   0.909  0.1770 -0.3287  0.1090
19945W        W35076  17.161  15.416   1.207 -0.1314  0.1962 -0.1315
19946W        W35077  13.978   3.223   5.000 -0.1371  0.0436  0.0064
19947W        W35078  10.781  10.703   3.390 -0.3729 -0.1173 -0.3601
19948W        W35079  15.526  10.228  15.291 -0.0852 -0.0245 -0.0797
19949W        W35080   5.752   9.872   5.092  0.0711  0.2735  0.2614
19950W        W35081   2.231  15.729  10.104  0.0588 -0.0227 -0.0658
19951W        W35082  12.818  16.243  10.951 -0.2586  0.3177  0.2437
19952W        W35083   3.399  15.342  11.820  0.0739 -0.5458  0.0101
19953W        W35084  11.808  14.431   4.953  0.2849  0.0036 -0.2876
19954W        W35085  14.895  11.622  14.371 -0.1909  0.2962  0.2613
19955W        W35086   5.349   8.709   2.938 -0.0480 -0.1529 -0.1543
19956W        W35087   8.889  12.742   3.369  0.0629 -0.1058  0.0708
19957W        W35088   3.132   5.460   4.908  0.1205 -0.2522 -0.1358
19958W        W35089   7.595   0.238  11.759 -0.0555  0.1930 -0.4457
19959W        W35090   9.416   8.637  13.269 -0.1702 -0.0333  0.0184
19960W        W35091  13.417   9.580   2.087 -0.1205  0.2396  0.0459
19961W        W35092   7.871  16.084   0.454 -0.0692  0.4053 -0.0404
19962W        W35093  14.719  12.935   0.327 -0.3111  0.0217 -0.1364
19963W        W35094  15.614  10.894   2.566  0.1499 -0.3548  0.1686
19964W        W35095  15.549  12.560   5.525 -0.2659  0.0346  0.0433
19965W        W35096  11.924   3.335   0.283  0.0532  0.0686  0.1935
19966W        W35097  14.432  10.209  15.598 -0.0745  0.2928  0.2648
19967W        W35098   4.735   1.311   0.428  0.4091 -0.2248  0.2131
19968W        W35099  16.112  13.826  12.402 -0.0115  0.1092  0.0229
19969W        W35100   4.865  11.449   2.637  0.0506  0.1615  0.1960
19970W        W35101  13.667   8.865   5.335  0.0346  0.0843  0.0468
19971W        W35102   4.242   1.895  10.612  0.0619 -0.1691 -0.1050
19972W        W35103  13.977   8.159   4.830 -0.0807 -0.0583  0.1929
19973W        W35104  13.564  12.116  12.745  0.1465  0.4796 -0.0856
19974W        W35105   6.458   9.490  14.620  0.0348 -0.0954  0.1396
19975W        W35106   9.157   8.743   0.301 -0.0015 -0.1023  0.3423
19976W        W35107   7.117   6.910   1.854  0.1263 -0.0192 -0.0470
19977W        W35108   7.089   6.317   6.374  0.2153 -0.0658  0.2875
19978W        W35109  15.196  12.900   4.734  0.0766 -0.0360 -0.1703
19979W        W35110   6.110  11.498   3.715  0.1009 -0.1337  0.0388
19980W        W35111   0.329   5.128   3.314  0.0590  0.3472 -0.0308
19981W        W35112   0.825   9.729   5.525  0.1660  0.2871  0.2013
19982W        W35113   5.225   8.449  13.825  0.1871  0.0637 -0.0812
19983W        W35114  16.600  10.320  15.106  0.0139  0.1350  0.1022
19984W        W35115  16.783   7.255  11.457  0.3827 -0.0182  0.0127
19985W        W35116  14.976  18.441   4.994 -0.2053 -0.1447 -0.0890
19986W        W35117  16.560  10.683   1.373 -0.0026 -0.0839 -0.3342
19987W        W35118   8.205   7.809   0.637  0.0654  0.2792  0.0981
19988W        W35119   3.165  12.167  15.334 -0.1181  0.2446  0.0560
19989W        W35120   6.808  16.568  11.573 -0.1373 -0.0482  0.0353
19990W        W35121  10.197   6.865   3.405 -0.2532 -0.1124  0.0073
19991W        W35122   5.742  14.636   5.756 -0.0296  0.1295  0.0345
19992W        W35123   9.526   6.401   1.695 -0.0199 -0.3203 -0.1669
19993W        W35124   3.305   7.872   6.015  0.2136  0.0706  0.1726
19994W        W35125  11.343  10.736  15.259  0.1785  0.1012  0.1275
19995W        W35126   8.913   6.249   3.351  0.1726  0.0580 -0.0585
19996W        W35127   8.948  16.336  15.954 -0.0261 -0.0870  0.1027
19997W        W35128   3.679  17.523   4.102  0.1116 -0.1531  0.1644
19998W        W35129  16.810   4.792  15.447 -0.1232  0.1399 -0.2087
19999W        W35130   8.290   2.272   5.922 -0.0993  0.0831  0.0673
20000W        W35131   5.788   8.205   6.472  0.4541  0.1831  0.2942
20001W        W35132  13.925   5.926  14.986 -0.4083  0.4530  0.2429
20002W        W35133  11.623  13.144  15.142 -0.1653  0.0878  0.3237
20003W        W35134  14.808  10.488   5.513  0.2539  0.1479  0.0876
20004W        W35135   1.281  12.400   2.199  0.0199  0.2919  0.2352
20005W        W35136  15.753   5.912  14.884  0.1577  0.0630 -0.0442
20006W        W35137  11.674   3.313  12.130  0.2703  0.0431 -0.1024
20007W        W35138   9.871   8.783  12.482 -0.1025  0.1936 -0.1047
20008W        W35139   7.977   8.719   5.926  0.0712  0.1836 -0.2442
20009W        W35140  10.628   4.829   5.358 -0.0810  0.2862 -0.0660
20010W        W35141   6.903   8.268   3.849 -0.0010 -0.1528  0.1052
20011W        W35142   2.574   0.914   4.175 -0.0729  0.0405  0.5448
20012W        W35143   8.443   7.441  11.989  0.0801  0.1506  0.0368
20013W        W35144   3.678   2.081   3.978 -0.1015  0.0692  0.2645
20014W        W35145   0.810  11.315  13.519 -0.1291 -0.0545 -0.0247
20015W        W35146   5.824  10.526   1.406 -0.1188  0.3727  0.0417
20016W        W35147  10.541  16.670   4.395 -0.2834  0.1177  0.0385
20017W        W35148   4.106  14.413  14.624 -0.0472 -0.4529  0.0261
20018W        W35149   3.310   6.763   0.225 -0.2906 -0.0181 -0.3150
20019W        W35150  14.584  11.559   1.799  0.0024 -0.1598 -0.1654
20020W        W35151   5.819   1.021  10.329 -0.3603 -0.0199 -0.0515
20021W        W35152   0.714   0.475  15.192  0.0872 -0.1026 -0.0001
20022W        W35153  14.532  13.324  11.836  0.0896 -0.0905  0.0510
20023W        W35154  17.971  10.537   0.624 -0.0010 -0.1571  0.0146
20024W        W35155   2.290   4.109  11.013 -0.0018 -0.0346 -0.0560
20025W        W35156   5.688  13.842  12.037  0.0777  0.1204 -0.0480
20026W        W35157  13.561   4.747   4.565  0.0274 -0.1362 -0.0313
20027W        W35158   2.558  11.408   3.131 -0.0782 -0.2980  0.0562
20028W        W35159   1.611  14.655   2.461  0.0165 -0.0673 -0.0228
20029W        W35160  13.629   0.569  10.645  0.1321  0.3397  0.0990
20030W        W35161  16.769  17.634  12.385  0.0432  0.1169 -0.1201
20031W        W35162  18.303   9.612  14.392  0.1169  0.0552 -0.0738
20032W        W35163  13.779   1.466  13.506 -0.0249  0.1514 -0.1657
20033W        W35164   2.567   5.782   0.863 -0.0755 -0.1102 -0.2634
20034W        W35165  11.780   4.032   1.435  0.2197  0.1932  0.0606
20035W        W35166   0.607   2.269   4.589  0.0170 -0.0456 -0.0178
20036W        W35167  17.573  15.147   2.635  0.0983 -0.1809  0.2807
20037W        W35168  15.039   3.119   5.273  0.0994 -0.0725  0.2207
20038W        W35169   6.851   4.118  14.287  0.2167  0.0713  0.1672
20039W        W35170   6.775  11.305  11.627  0.0039 -0.2639 -0.4462
20040W        W35171  14.401   9.913  12.588  0.0297 -0.1403  0.0488
20041W        W35172  11.505  17.231   3.933  0.3556  0.0422  0.0004
20042W        W35173  15.702   2.358   5.287 -0.3504 -0.0556 -0.2526
20043W        W35174   3.988   0.232   2.020  0.1284  0.0671  0.0677
20044W        W35175   7.483   9.482   4.252  0.0007  0.5556 -0.0861
20045W        W35176  11.867   2.693   4.385 -0.0396 -0.4450  0.0133
20046W        W35177  16.590   9.353  15.292 -0.0753 -0.1321 -0.0872
20047W        W35178  16.662  13.874  12.704 -0.1339  0.1903 -0.0305
20048W        W35179  12.507   6.392   4.299  0.1191 -0.0243  0.2510
20049W        W35180   3.067  13.566  10.381  0.0986 -0.3037  0.0040
20050W        W35181   4.853  14.356   3.246  0.2348  0.0319 -0.1188
20051W        W35182  13.185  14.043   4.150  0.0386  0.3145  0.1103
20052W        W35183  16.772   3.667   5.623  0.1033  0.0537  0.1300
20053W        W35184  17.770  13.185  12.804 -0.0166 -0.2503  0.0126
20054W        W35185  18.293   2.897  15.502 -0.0286 -0.1804 -0.1353
20055W        W35186   1.249   0.011   1.792  0.1824  0.1403  0.3377
20056W        W35187   4.198  10.817   3.220  0.0541 -0.0006 -0.0962
20057W        W35188   8.727  11.682   3.683  0.1619 -0.2425  0.0114
20058W        W35189  16.729  15.789  11.769  0.0020  0.2959 -0.3324
20059W        W35190   5.245  17.072   5.543  0.1231  0.0034  0.4076
20060W        W35191   6.356   8.933   1.630  0.3056 -0.4030  0.0319
20061W        W35192   2.115   5.925   5.236  0.0385 -0.0357  0.1225
20062W        W35193   4.748   6.786  13.480  0.3696 -0.1080 -0.2173
20063W        W35194  16.238   0.958   5.418  0.0482  0.1931 -0.0105
20064W        W35195   5.916   1.969   5.190  0.1308  0.3075  0.0617
20065W        W35196   7.030   8.117   3.397 -0.3620 -0.0211  0.1764
20066W        W35197   6.031  12.997  15.378  0.0111 -0.2123  0.3842
20067W        W35198   6.898   9.305  11.678  0.1803  0.3419 -0.1752
20068W        W35199   6.908   3.512   3.347 -0.0383 -0.1999 -0.0435
20069W        W35200   5.887  17.003   4.474 -0.0170  0.0529 -0.3094
20070W        W35201   4.640   7.708  13.933  0.1670 -0.1986  0.0883
20071W        W35202   7.615  12.720  11.723  0.0709  0.2059  0.2577
20072W        W35203   1.005  17.926  14.326  0.0154  0.0172 -0.2133
20073W        W35204   3.267  18.465  10.360 -0.2244 -0.2768 -0.2467
20074W        W35205  15.648  15.553   1.655 -0.0704  0.0975  0.0012
20075W        W35206  16.515  14.031   2.279 -0.2076 -0.0802  0.2446
20076W        W35207  11.347  15.556  13.551  0.0588  0.3557 -0.0897
20077W        W35208  17.625   9.836   2.384 -0.1070  0.2078 -0.0751
20078W        W35209  12.597   3.828  13.742  0.0490 -0.0998 -0.0425
20079W        W35210  11.391  12.189  15.740 -0.0310 -0.0987 -0.3038
20080W        W35211   3.677   2.032   3.475  0.0383  0.2191 -0.0409
20081W        W35212  10.430  13.185  11.141  0.0284 -0.1459 -0.2263
20082W        W35213   3.035  13.425   3.219  0.0963 -0.1189 -0.1690
20083W        W35214   5.776  12.996   1.826  0.0890 -0.1775  0.2509
20084W        W35215  16.669  15.732  15.909 -0.3021  0.1158  0.0674
20085W        W35216  14.502   7.572   3.627  0.1983  0.1028  0.1162
20086W        W35217   4.309   9.702  13.676  0.0911 -0.0089  0.0619
20087W        W35218  11.486  14.213  13.419 -0.1964  0.2804 -0.1727
20088W        W35219   2.835   0.552  15.453  0.0335  0.1393 -0.2315
20089W        W35220   8.451   1.843  13.711  0.2284  0.0754 -0.0397
20090W        W35221  10.634  11.167   3.577 -0.1309 -0.0851  0.1239
20091W        W35222   1.608   5.168  14.110  0.2376  0.0643  0.6241
20092W        W35223   3.252   7.656   0.130 -0.0331  0.0541 -0.2938
20093W        W35224   7.488  12.170   0.255 -0.0564 -0.2495 -0.2600
20094W        W35225   2.776   8.851  14.199  0.2110 -0.0459 -0.0035
20095W        W35226   7.286   4.280  11.722 -0.1488 -0.1387  0.0222
20096W        W35227  13.404  13.176   0.036 -0.2251 -0.2749  0.0395
20097W        W35228  10.365  11.765   1.522  0.3144 -0.0343 -0.0471
20098W        W35229   7.589  15.257   3.742  0.0020  0.2126  0.3757
20099W        W35230  15.470  11.120  10.149  0.2531 -0.1829  0.3384
20100W        W35231  16.312   0.125   1.550  0.0417  0.2869  0.3504
20101W        W35232   5.119   9.821  11.454 -0.0552  0.2102  0.0154
20102W        W35233  18.489   3.835   3.881 -0.0987 -0.0916 -0.1180
20103W        W35234   0.609   0.441  14.713  0.4859  0.1825 -0.0020
20104W        W35235  13.602  12.192   2.681  0.2513  0.4056  0.2117
20105W        W35236  15.631  15.067  15.211 -0.0858 -0.1494 -0.1299
20106W        W35237  12.037   0.692  11.640 -0.0289  0.0845 -0.1330
20107W        W35238   5.464   8.175  13.451 -0.0953 -0.0201  0.2792
20108W        W35239   4.465  14.735   0.006 -0.0541  0.1615  0.0123
20109W        W35240  13.767  14.818   4.230 -0.1345  0.0751  0.1972
20110W        W35241  12.587  11.037   2.048  0.0913 -0.0274  0.0304
20111W        W35242  12.242   4.036   4.270 -0.3267  0.2430 -0.4611
20112W        W35243  12.821   7.607   0.950 -0.0774 -0.4978  0.1841
20113W        W35244  14.977  16.258  14.802 -0.2219 -0.0285 -0.0250
20114W        W35245   4.838   6.166   0.162 -0.4316  0.2064 -0.1515
20115W        W35246  15.546  14.567  13.828 -0.0347 -0.0247  0.2486
20116W        W35247  16.205   4.332  13.832  0.1733 -0.3638 -0.0396
20117W        W35248  14.959   5.357   2.055 -0.0693  0.1078 -0.1528
20118W        W35249   1.703   3.913  12.565  0.3884  0.2641 -0.0271
20119W        W35250  14.234   5.648   5.376 -0.1696 -0.0447 -0.3900
20120W        W35251  13.513  16.925  12.533 -0.2751  0.1355  0.0174
20121W        W35252  10.976   6.382   0.929  0.0228  0.0949  0.2741
20122W        W35253   9.425  18.337   2.378 -0.0532  0.1926 -0.0350
20123W        W35254  15.479  17.029  15.038  0.1016  0.0310  0.1105
20124W        W35255   6.446  10.336  13.598 -0.0701  0.1136 -0.4546
20125W        W35256   6.001   4.100   5.149  0.2718 -0.0028  0.0935
20126W        W35257  13.013   1.804   2.860 -0.0448 -0.0317  0.0104
20127W        W35258   9.286   0.310   4.504 -0.1126 -0.1548  0.0851
20128W        W35259   2.636   5.839   5.044 -0.0160 -0.2127 -0.2271
20129W        W35260   7.582   4.991   0.370  0.1448 -0.1513  0.0799
20130W        W35261  16.064   3.263   2.350  0.0606 -0.1160  0.0926
20131W        W35262   0.111  17.807  14.141  0.1704 -0.1666  0.0651
20132W        W35263   9.285  18.039   4.948  0.0265 -0.1555  0.1219
20133W        W35264  16.426   3.172  14.822  0.1768  0.0347  0.0517
20134W        W35265  17.448  15.271  10.788  0.2103  0.2262 -0.0150
20135W        W35266   2.634   4.356  14.689  0.0166  0.0171 -0.0387
20136W        W35267   1.404  14.944   1.652 -0.2471 -0.0511  0.0374
20137W        W35268   7.665  17.830   5.011  0.0367  0.2602 -0.0376
20138W        W35269   5.893   9.958  11.338  0.1178 -0.2461  0.2453
20139W        W35270  16.714  17.888  10.798  0.0846 -0.0155 -0.0312
20140W        W35271  15.615   4.491   4.076  0.0713  0.0408  0.1287
20141W        W35272  14.055   8.914   1.933 -0.1077  0.2136 -0.0369
20142W        W35273   9.565  17.952   3.517 -0.0928  0.1937  0.2032
20143W        W35274  14.785  15.885  10.954  0.0693 -0.0945 -0.1783
20144W        W35275  11.717   8.932   4.694 -0.0106 -0.0590 -0.2050
20145W        W35276   1.662   2.002   3.984  0.0101 -0.0244  0.2600
20146W        W35277  10.642   6.513   5.718  0.2405 -0.1299 -0.2280
20147W        W35278   3.524   9.504  13.100  0.3291 -0.2976 -0.1304
20148W        W35279  14.466  16.915  10.685  0.2317  0.0164  0.0124
20149W        W35280  10.183  11.897   4.937 -0.1057  0.2068 -0.3505
20150W        W35281   9.144   7.609   4.272 -0.1594 -0.3385  0.0836
20151W        W35282   0.909  16.529  11.239 -0.0824  0.3525  0.1437
20152W        W35283  11.645  10.263   2.150 -0.0049 -0.0228  0.0735
20153W        W35284  11.390  14.118  12.850 -0.1433  0.1471  0.0721
20154W        W35285   6.646   2.015  15.783 -0.1094  0.2195  0.1066
20155W        W35286   5.451   6.778  11.372 -0.1026 -0.3364 -0.3468
20156W        W35287   2.803   5.192  12.622  0.0627  0.1510 -0.1105
20157W        W35288   5.076   0.410  11.745 -0.2478 -0.0051  0.0025
20158W        W35289  16.838  16.133   0.073 -0.0600  0.1356  0.0236
20159W        W35290  16.491   5.511   5.269 -0.0401  0.0536 -0.1990
20160W        W35291   7.838   5.214   2.195 -0.1225 -0.2143  0.0385
20161W        W35292   5.203  17.050  13.916  0.0197  0.0515  0.0098
20162W        W35293  10.663   9.474  13.164 -0.0195 -0.0853  0.0042
20163W        W35294   9.088   5.204  13.670  0.1829 -0.1309  0.1370
20164W        W35295  15.937   5.415  13.203  0.0242  0.1900  0.0492
20165W        W35296  12.286   9.114   1.284  0.2439 -0.0090  0.2112
20166W        W35297  14.237  10.315   1.175 -0.3530 -0.1304 -0.0931
20167W        W35298   5.035   9.120   2.806 -0.1682 -0.0651  0.0411
20168W        W35299   2.190  11.835  13.865  0.0589 -0.0259  0.2678
20169W        W35300   7.285  18.060  10.876  0.1653 -0.0640  0.1354
20170W        W35301  14.387  11.012  11.890  0.1416 -0.4072 -0.0563
20171W        W35302   8.857   7.957   1.273 -0.2650  0.0844 -0.0948
20172W        W35303  17.520   1.522   4.871  0.1554 -0.0505 -0.3087
20173W        W35304   5.285   0.824   2.859  0.1477  0.2198  0.0849
20174W        W35305   8.929   5.604   5.104  0.0991 -0.1281  0.1854
20175W        W35306  18.254   3.533  13.624  0.0246 -0.0740 -0.1067
20176W        W35307   9.892   0.215  12.014  0.3419 -0.1034 -0.0354
20177W        W35308  17.169   3.815   0.207 -0.0144  0.0883  0.0044
20178W        W35309   5.247   7.983   5.632 -0.0083 -0.2187 -0.1400
20179W        W35310   3.964   6.154  11.227  0.0912 -0.0359  0.3960
20180W        W35311   5.892  12.407   4.638  0.0609 -0.3149  0.2198
20181W        W35312  14.559  17.339  10.407  0.3572  0.0729  0.2716
20182W        W35313   9.642   6.072   2.068 -0.0245 -0.0781  0.1080
20183W        W35314   7.409  12.774  13.579  0.0910 -0.0408  0.0033
20184W        W35315   9.992   5.117   4.409 -0.0051  0.3141  0.2050
20185W        W35316  17.088  11.776   0.021 -0.2342 -0.2051 -0.1274
20186W        W35317   9.458   1.426  12.347  0.4123  0.0741 -0.1219
20187W        W35318  11.606  13.189   2.504 -0.2324 -0.1212 -0.1822
20188W        W35319  10.620  17.367   1.540 -0.2483 -0.2710  0.1001
20189W        W35320   7.320   7.575   1.529  0.3138  0.0996 -0.3109
20190W        W35321  11.448   1.375   1.124 -0.0647 -0.0644  0.1126
20191W        W35322   4.622   4.508   4.375 -0.0703 -0.1650  0.0749
20192W        W35323  13.556   2.382  13.103 -0.1266  0.3139  0.2848
20193W        W35324   3.443   1.134   2.608 -0.0028  0.0780 -0.0340
20194W        W35325  13.585   2.193   0.522  0.0690 -0.4116 -0.0125
20195W        W35326  10.333   3.257  14.657 -0.0592  0.0428  0.0587
20196W        W35327  11.631   3.465   2.992 -0.0928 -0.3514 -0.0452
20197W        W35328  10.082  10.275   2.218 -0.0593  0.3816 -0.0412
20198W        W35329   9.784  12.718   5.029 -0.1154  0.0176  0.0096
20199W        W35330   4.344  10.403   3.615 -0.0390 -0.1169  0.0583
20200W        W35331  16.936  13.233  10.526  0.1306  0.1299 -0.2031
20201W        W35332  10.386   8.233   0.330 -0.0622 -0.2653 -0.0219
20202W        W35333   7.772   6.510   2.787 -0.5338 -0.0932 -0.0808
20203W        W35334   7.751  12.535   5.107  0.2559 -0.0427  0.3620
20204W        W35335  10.769  18.083  15.547  0.0864 -0.1508 -0.2182
20205W        W35336  17.372   4.889  11.175  0.0702 -0.0470 -0.4931
20206W        W35337   1.883  14.409   2.115  0.1472  0.0318  0.2683
20207W        W35338  13.833   4.934  12.591 -0.1603  0.0954 -0.0376
20208W        W35339  12.404   4.636   1.194  0.0255  0.1390  0.0497
20209W        W35340   3.179  10.252  15.858  0.0853  0.0859 -0.0783
20210W        W35341  10.363  17.422   0.259 -0.0548  0.1254  0.0901
20211W        W35342   6.443   1.303  11.609  0.0507  0.1187 -0.1384
20212W        W35343   1.755  14.145  12.018 -0.4970 -0.0088 -0.0403
20213W        W35344  14.571  15.131  10.720  0.0679 -0.1606 -0.0612
20214W        W35345   6.557   9.407   4.638 -0.3608 -0.0903  0.2173
20215W        W35346  11.189  10.038   5.207  0.1316  0.1118  0.2198
20216W        W35347   8.878   9.178   1.964 -0.2940 -0.1759 -0.1547
20217W        W35348  11.592   2.348   5.028  0.1083 -0.3632 -0.0226
20218W        W35349  17.286   8.504  16.065 -0.1991 -0.1012  0.1886
20219W        W35350   2.745  12.395   4.336 -0.0893 -0.3469  0.2157
20220W        W35351  17.294   2.803   5.168  0.1475 -0.1482  0.4069
20221W        W35352   7.587  17.604   2.164  0.0256 -0.3870 -0.1957
20222W        W35353  18.489  13.159   0.989  0.1960 -0.1062 -0.0193
20223W        W35354  10.812  13.159  13.992  0.0348 -0.1633  0.0020
20224W        W35355   0.612   6.456  14.742  0.3826 -0.1817  0.1329
20225W        W35356  15.330  12.698   2.109  0.0353  0.2602  0.0606
20226W        W35357   9.460   0.885   1.005  0.2477  0.0372 -0.0339
20227W        W35358  10.002   7.333   5.903 -0.3284 -0.0414  0.0020
20228W        W35359   3.240  11.360  12.739  0.1326  0.1793 -0.3355
20229W        W35360   1.148   7.565  12.882  0.1225 -0.0434  0.0195
20230W        W35361   9.512   2.704  12.041  0.2301  0.0520 -0.4864
20231W        W35362  17.107   4.412  15.539  0.0297 -0.0710 -0.1352
20232W        W35363  18.245  11.187   1.570 -0.2135  0.1089  0.1904
20233W        W35364   5.287   8.385  11.713  0.5294  0.0396  0.0418
20234W        W35365   1.423   6.832  12.515 -0.2663  0.0240  0.0834
20235W        W35366  16.429   2.658   4.738 -0.3854  0.1381  0.3267
20236W        W35367   3.284  16.261   1.202  0.2091  0.2621  0.2514
20237W        W35368   7.992  11.716   5.705  0.1946  0.0437 -0.2223
20238W        W35369  15.046   1.158   3.722  0.1766 -0.2388  0.3796
20239W        W35370   5.664   4.382   4.295  0.1617 -0.1425  0.3721
20240W        W35371  15.802   3.205  14.619 -0.0469  0.1853 -0.0607
20241W        W35372   6.457   2.165   1.360  0.0095 -0.0047 -0.2939
20242W        W35373   5.670   7.661   5.662  0.0238 -0.1179 -0.2089
20243W        W35374  12.579   1.845   4.622  0.2397 -0.0759 -0.1336
20244W        W35375  11.427   5.436   4.902  0.2715 -0.0617  0.0564
20245W        W35376   2.396  11.746  10.556  0.0699  0.3265 -0.0778
20246W        W35377   0.018   5.537   4.335  0.0170  0.0156  0.0372
20247W        W35378  18.414  12.440   5.046  0.1057 -0.0138 -0.1068
20248W        W35379  16.190   7.141   0.362 -0.0818  0.1514 -0.0129
20249W        W35380   8.700   8.495  15.062 -0.1512  0.2329  0.0501
20250W        W35381  14.452   4.590   0.066  0.4925 -0.1640 -0.2924
20251W        W35382  10.325   0.435   4.320  0.0466 -0.1648  0.0753
20252W        W35383  14.118   5.371   2.497 -0.1878 -0.0586 -0.1395
20253W        W35384  12.826   0.878  10.121 -0.2692 -0.2444 -0.0193
20254W        W35385   6.956   9.599   4.950 -0.2829 -0.3160  0.1343
20255W        W35386   7.915  13.420  15.750  0.0100 -0.1081 -0.2594
20256W        W35387   1.219  14.614   4.497  0.1479  0.1246 -0.1395
20257W        W35388   1.644  16.463   3.239 -0.0884  0.1058 -0.0998
20258W        W35389   3.910  13.648  15.005 -0.1205  0.0882 -0.1882
20259W        W35390   8.665   1.537  12.364 -0.0428 -0.5202  0.0092
20260W        W35391   0.469   0.733  11.341  0.1183 -0.1423  0.2751
20261W        W35392   8.006   7.428  13.402  0.0937 -0.0287  0.3881
20262W        W35393  18.016  11.586  11.631 -0.2978 -0.0774  0.1444
20263W        W35394  14.129   2.113   4.904  0.0688 -0.0679  0.0842
20264W        W35395  12.020  16.214   2.433  0.2298  0.0469  0.1833
20265W        W35396  13.960   4.875   0.942  0.1633  0.0644  0.2822
20266W        W35397   6.635  14.923  11.089 -0.0729  0.0818  0.0817
20267W        W35398   3.751  16.465  15.021  0.0787 -0.0011  0.5088
20268W        W35399  10.686   1.137  12.649  0.0608  0.2525  0.2106
20269W        W35400  17.933   8.334  13.004 -0.0950 -0.0852 -0.3318
20270W        W35401   0.165   6.247   5.567  0.0474 -0.1540 -0.0014
20271W        W35402   9.660  10.637  15.987 -0.1320 -0.1604  0.1287
20272W        W35403   9.741  14.644  13.819 -0.2602  0.1203  0.1100
20273W        W35404   2.220   4.050  15.379 -0.0036  0.3219 -0.1727
20274W        W35405   3.489   7.554   4.893  0.0870  0.3144  0.2048
20275W        W35406  10.593  18.424  11.383 -0.0821  0.0063 -0.0856
20276W        W35407   9.018   7.628   6.025 -0.0849 -0.2128 -0.3596
20277W        W35408  18.442   7.600   4.071 -0.2982  0.1568  0.2117
20278W        W35409   7.093   5.270   4.656  0.1654 -0.0393  0.3938
20279W        W35410  17.429  16.006   3.396  0.0335 -0.0079  0.4200
20280W        W35411   3.376   4.843   3.700 -0.0049  0.0610  0.1591
20281W        W35412  10.447  11.418  11.900  0.1675 -0.2420 -0.4014
20282W        W35413  17.021   6.590   0.260 -0.0413 -0.4611 -0.1825
20283W        W35414   9.025   4.152   3.885 -0.0205  0.0012 -0.0629
20284W        W35415  12.617   9.511   5.451 -0.0007 -0.0841 -0.1824
20285W        W35416  11.493  17.289  16.058 -0.1276  0.3916 -0.0817
20286W        W35417  10.603  11.626  14.284 -0.0393 -0.0461 -0.0746
20287W        W35418   3.901  18.010  13.855  0.0556  0.0852 -0.1537
20288W        W35419   0.436   1.890   3.639 -0.2342  0.2339 -0.1325
20289W        W35420   6.826   2.559  14.168 -0.3495 -0.1634  0.1122
20290W        W35421   3.651   8.070  11.398  0.1252  0.1001 -0.1828
20291W        W35422  15.459   2.906   5.165  0.0943  0.0920 -0.2784
20292W        W35423   5.079  14.321  13.219 -0.0253  0.0599  0.1007
20293W        W35424   0.542  10.185  15.385 -0.2085 -0.1572  0.0161
20294W        W35425  17.508  11.060   1.779 -0.1041 -0.0614  0.4012
20295W        W35426  18.003   4.595  14.042 -0.1365  0.2009  0.0154
20296W        W35427   7.120  13.176   1.287 -0.0828  0.3176  0.4229
20297W        W35428   1.285  13.275   3.858 -0.0462 -0.1121 -0.0120
20298W        W35429   2.183  16.127   3.752 -0.0877 -0.0530 -0.0239
20299W        W35430   9.624   0.507   2.528  0.1878 -0.2011  0.0099
20300W        W35431  18.125   8.720   0.438  0.2286 -0.4536  0.1593
20301W        W35432  13.051   6.916  15.829 -0.0918 -0.0907 -0.0364
20302W        W35433   7.355  10.168  13.367  0.0258 -0.1507  0.0943
20303W        W35434   2.347  10.955  11.311 -0.1142 -0.0310 -0.0817
20304W        W35435   3.010  12.457   1.174 -0.1458  0.2096 -0.1092
20305W        W35436  10.061   1.086   5.581 -0.1239 -0.1674  0.2345
20306W        W35437  17.435   3.901   6.367  0.0361  0.0991  0.2312
20307W        W35438  17.915   0.081   0.443 -0.0302 -0.3213 -0.3649
20308W        W35439   5.043  10.626  15.056  0.4143 -0.2106 -0.4509
20309W        W35440   2.465  15.277   9.955 -0.0020  0.0719 -0.0751
20310W        W35441  18.193   4.639   1.931 -0.0866 -0.0576  0.1380
20311W        W35442   8.778  12.344   0.968  0.0832 -0.1220 -0.2574
20312W        W35443   9.644  13.677  11.639  0.1554  0.1689  0.2463
20313W        W35444   8.712   6.591   3.667 -0.4959  0.2993  0.0436
20314W        W35445   0.284  16.173   0.358 -0.0367  0.2106 -0.0596
20315W        W35446   9.084  18.108   1.201 -0.1119  0.1258 -0.0726
20316W        W35447   0.406  14.675  13.845  0.0787  0.5821  0.1595
20317W        W35448   1.829   0.568   9.933 -0.1720 -0.0989  0.2059
20318W        W35449   5.108  18.440   2.587 -0.0352 -0.3379 -0.0091
20319W        W35450  15.545  15.169  11.814  0.0616 -0.0266 -0.0578
20320W        W35451  17.309   7.049  13.324 -0.1822 -0.1410 -0.1109
20321W        W35452   4.791   5.430   5.915 -0.1078 -0.1170  0.3099
20322W        W35453  16.623  17.925   4.156  0.0309  0.0877 -0.1096
20323W        W35454  12.909  17.754  11.157 -0.0833 -0.3179  0.0284
20324W        W35455  14.164  15.542  11.117  0.2913 -0.1790  0.1242
20325W        W35456   6.824   4.863  11.531 -0.2230 -0.1231  0.0939
20326W        W35457   1.702   5.196   2.410  0.0766 -0.1780  0.0776
20327W        W35458  12.540  10.195  13.767  0.2378 -0.0630  0.1273
20328W        W35459  11.135   1.362   5.053 -0.3648  0.3525 -0.0595
20329W        W35460  17.338  12.808  12.010 -0.0506  0.1575  0.1212
20330W        W35461  10.060  14.775   5.260 -0.0725 -0.0591  0.1627
20331W        W35462  15.615   9.928   0.162  0.2063 -0.1181 -0.0165
20332W        W35463   1.445   9.140  13.806  0.3499  0.3652 -0.1090
20333W        W35464   6.660  15.968   4.508  0.0665  0.1484 -0.3812
20334W        W35465  15.668  17.682  11.701 -0.0390 -0.0281  0.0006
20335W        W35466   6.951  12.172  12.206 -0.0861  0.0331  0.2131
20336W        W35467   0.909   3.456   5.032  0.1195  0.0225 -0.2614
20337W        W35468   4.267   8.107   5.213  0.3603 -0.1107 -0.1648
20338W        W35469  16.445  14.840   0.589 -0.1329  0.2153 -0.0791
20339W        W35470  14.352   7.831   1.215  0.1570 -0.0690  0.1605
20340W        W35471   8.258   9.117  15.102 -0.1093 -0.0020 -0.0873
20341W        W35472  15.896   9.756  15.459 -0.0453 -0.0650 -0.1472
20342W        W35473   2.968  12.592  15.538  0.0248  0.0550 -0.0784
20343W        W35474   8.347   8.110  12.550  0.1923 -0.3186 -0.0443
20344W        W35475   5.383   8.040  15.819 -0.4926  0.1881 -0.0530
20345W        W35476   5.893   0.489   0.616  0.2139  0.6283 -0.0711
20346W        W35477   3.087   7.113   1.558 -0.3114 -0.1814  0.1207
20347W        W35478   2.380  16.299  11.433  0.1422 -0.1785  0.0850
20348W        W35479   2.614  13.116  14.816 -0.1112 -0.0791 -0.0501
20349W        W35480   4.953   6.099  12.945  0.0027  0.0511  0.1715
20350W        W35481   6.696   8.447  14.689  0.1168  0.0278 -0.3471
20351W        W35482   2.553   5.566   4.586 -0.0826 -0.0660  0.1141
20352W        W35483  14.530  13.683   3.910  0.0420 -0.0658  0.0420
20353W        W35484   4.276   8.980   5.191  0.0420  0.1923 -0.2832
20354W        W35485   7.437  10.325   5.474  0.0157 -0.1504 -0.0605
20355W        W35486  12.351  12.719   3.597 -0.1875  0.1791 -0.1392
20356W        W35487   9.118   6.456   5.598  0.0547 -0.1189  0.1426
20357W        W35488   2.786   6.019  14.346 -0.3642  0.4460  0.1840
20358W        W35489   9.973   1.343  14.371  0.0617 -0.0064  0.0743
20359W        W35490  15.874  13.515   0.510 -0.2247  0.3449 -0.2712
20360W        W35491  14.879   8.724  15.485  0.0897 -0.0846 -0.1363
20361W        W35492  16.759  18.214  14.506  0.0500  0.2410 -0.2003
20362W        W35493   9.759  18.384  13.464 -0.0107 -0.3082  0.0663
20363W        W35494   6.978   5.585  14.851 -0.2417 -0.1419  0.2704
20364W        W35495  18.017  10.306   4.730  0.1928  0.0721  0.0583
20365W        W35496  17.235   8.877   5.222  0.0358  0.1886  0.0603
20366W        W35497   2.814   1.709   3.329  0.2270 -0.0068  0.1842
20367W        W35498   9.127   7.722  12.829 -0.0258  0.0960 -0.0049
20368W        W35499   9.101   3.797   0.790 -0.3547  0.1378  0.0414
20369W        W35500  12.855  11.999   4.648 -0.0805  0.2092  0.0674
20370W        W35501  15.594  14.341  15.313  0.3527 -0.6195 -0.2952
20371W        W35502   8.440   1.513  12.909 -0.0984  0.0515 -0.0306
20372W        W35503   9.031  10.864  15.307  0.1924  0.2752  0.0146
20373W        W35504   6.730   8.551  13.542 -0.2875  0.3572 -0.1236
20374W        W35505   9.240  17.897  14.461  0.3011 -0.1653  0.1272
20375W        W35506  13.042   2.906   1.688  0.0128  0.0703  0.2851
20376W        W35507  11.591  10.989  14.687 -0.0446 -0.2416 -0.4347
20377W        W35508  14.000  13.037   3.329 -0.2483 -0.0659  0.1387
20378W        W35509  15.975  14.367   0.324  0.5044  0.2847 -0.1837
20379W        W35510   5.313   6.889   5.547 -0.0215  0.2263  0.2906
20380W        W35511   7.106  10.905  15.769  0.0787  0.3373  0.1339
20381W        W35512  12.087   3.057   0.694 -0.1610 -0.2190  0.0524
20382W        W35513   6.013  13.088   4.908 -0.2373  0.2169 -0.0601
20383W        W35514  16.359   1.370   3.327  0.1609  0.0819  0.0588
20384W        W35515  18.449   8.790  11.809 -0.1559  0.1196 -0.0667
20385W        W35516  14.584   0.918   1.134 -0.1091  0.3291 -0.1333
20386W        W35517   6.567   2.113  13.413  0.1004  0.2986  0.1714
20387W        W35518  15.090   5.424  12.124 -0.0512 -0.0954  0.0316
20388W        W35519   4.755   0.484   4.671 -0.0841  0.0052  0.3119
20389W        W35520   9.861  12.878   2.328  0.3338  0.0091  0.1477
20390W        W35521  11.326   8.360  15.813 -0.1996  0.1519  0.3154
20391W        W35522  16.941   6.632  15.834  0.2964 -0.3278  0.0723
20392W        W35523  14.158  13.737   4.652  0.2454 -0.0212 -0.1643
20393W        W35524  15.024   6.677   3.729 -0.3965  0.2945  0.1975
20394W        W35525  11.237  13.834   6.172 -0.3768  0.1787 -0.0698
20395W        W35526  13.245  15.369  12.079 -0.0023 -0.1735  0.3491
20396W        W35527   5.287  15.117  15.226  0.0421 -0.1290  0.0060
20397W        W35528   6.825  11.059   0.108  0.0772  0.1228  0.3555
20398W        W35529  17.086   2.480  13.550  0.2406 -0.0198  0.2165
20399W        W35530   5.871   1.397  12.373  0.1150 -0.2106  0.1189
20400W        W35531   0.567   1.212  11.274 -0.0288 -0.0558  0.0262
20401W        W35532   4.027  14.691  13.161 -0.1733  0.2698  0.2775
20402W        W35533   0.701  15.084  11.253  0.3522  0.0906 -0.1714
20403W        W35534  17.857   3.675  15.251 -0.0476  0.1357 -0.0428
20404W        W35535   2.708   5.989  11.326  0.0500  0.1984 -0.0452
20405W        W35536  13.631   4.669   6.441  0.0242 -0.0300 -0.0733
20406W        W35537  14.564  10.363   3.489 -0.0796 -0.0431 -0.1841
20407W        W35538   4.686  15.147  15.899 -0.1032  0.0492 -0.0896
20408W        W35539  12.097  12.789  16.010 -0.1829  0.2180 -0.0325
20409W        W35540   9.207   8.489  12.480 -0.2087  0.0535  0.0460
20410W        W35541  14.760  17.970  13.593 -0.2522 -0.0990  0.0592
20411W        W35542  11.422   3.942  15.054  0.4465  0.3385 -0.0343
20412W        W35543  13.390  17.522  15.948  0.0651 -0.1289  0.1489
20413W        W35544   9.084  13.475  11.325  0.3140 -0.3674  0.0299
20414W        W35545   5.891  14.939   2.206  0.2126 -0.0251  0.1728
20415W        W35546   7.446   1.801  10.929 -0.2163 -0.1115 -0.0408
20416W        W35547  11.613   1.781  12.652  0.0184 -0.1686 -0.5170
20417W        W35548   1.771  17.881   1.040  0.2598  0.0524 -0.1919
20418W        W35549  13.296   6.558   1.684  0.3400 -0.2701  0.0785
20419W        W35550  16.544  15.077  13.388  0.1510 -0.1350  0.0653
20420W        W35551   3.932   6.894  15.273 -0.0626 -0.1811  0.0742
20421W        W35552  14.373   8.180  11.668  0.0544  0.1732 -0.0119
20422W        W35553  12.018  11.780  15.098  0.0801 -0.0904 -0.1682
20423W        W35554  16.176   8.203  12.990 -0.2034  0.0084 -0.0693
20424W        W35555   5.465  12.412   5.686 -0.2552 -0.2588 -0.0263
20425W        W35556   5.743  17.903  14.485  0.0449  0.3982  0.1853
20426W        W35557   4.590  13.974   2.169  0.0036  0.0360  0.0958
20427W        W35558   4.159  13.397   0.426  0.0976 -0.1883 -0.0750
20428W        W35559  15.862   6.097   0.902  0.0042 -0.2140 -0.0921
20429W        W35560   1.223  17.634  15.198  0.0123  0.0332 -0.1321
20430W        W35561  16.814  11.104   3.867  0.3796 -0.1270 -0.2804
20431W        W35562  11.378   4.450   3.735  0.0133  0.0261  0.1757
20432W        W35563   2.958  12.048   3.974  0.0542  0.3438  0.2714
20433W        W35564   6.081  13.062   2.275 -0.0825 -0.2793 -0.0043
20434W        W35565   2.206   3.275  11.876  0.0137 -0.1216  0.0527
20435W        W35566   4.956   5.336   4.876 -0.2828 -0.2805  0.3121
20436W        W35567   3.676   3.205  11.360  0.1481 -0.2911  0.1124
20437W        W35568  14.830  10.688   2.934 -0.1143 -0.1163 -0.1444
20438W        W35569   7.624  12.114  11.055  0.0742  0.0671 -0.2948
20439W        W35570   5.647  13.329   0.980  0.2127 -0.3532  0.3941
20440W        W35571  15.922   5.655   1.034 -0.5786  0.2886  0.0943
20441W        W35572   0.629  14.003   4.003  0.0957  0.2562 -0.2735
20442W        W35573  10.714   8.688   0.493  0.0642  0.0073  0.2170
20443W        W35574   1.720   5.906   2.693  0.0968 -0.0877 -0.0392
20444W        W35575   8.401  17.048   2.650 -0.1398 -0.0645  0.1586
20445W        W35576  16.370   8.051   4.887  0.3818  0.3064 -0.1837
20446W        W35577  18.083  14.882   1.441  0.1942 -0.0996 -0.0015
20447W        W35578  14.350   9.246  12.563  0.2681 -0.0776 -0.1989
20448W        W35579  13.508   4.934  12.088 -0.4600 -0.1258  0.0264
20449W        W35580   3.388  15.057   1.908 -0.2037 -0.2057  0.0318
20450W        W35581  17.246   1.692  13.147  0.0984  0.0190  0.0447
20451W        W35582  17.884   1.079  14.973  0.0539 -0.1509 -0.1816
20452W        W35583   7.323  14.418  15.348 -0.0963  0.1926 -0.1186
20453W        W35584  12.214   4.318   1.543  0.0128 -0.3010 -0.0425
20454W        W35585   8.068   2.716   3.884  0.1710 -0.0309  0.0792
20455W        W35586   1.442   4.625  15.642  0.4366  0.0628 -0.2630
20456W        W35587  13.482  17.537   0.892  0.3802  0.3209  0.0238
20457W        W35588   4.700  14.145   5.034  0.2012 -0.1085  0.2153
20458W        W35589  14.797   9.905  14.498  0.0135 -0.0244  0.2997
20459W        W35590  14.874   3.409   0.396  0.0920 -0.3073  0.1931
20460W        W35591   5.877   2.942   5.011 -0.3334  0.1340  0.2326
20461W        W35592  12.386  15.019  12.996 -0.0760 -0.0326  0.1708
20462W        W35593  12.928  17.910   4.609  0.0425 -0.0669  0.3239
20463W        W35594   7.315  13.296  10.623 -0.3614  0.0418 -0.2777
20464W        W35595  12.814  16.164  13.460  0.3231  0.0143 -0.2658
20465W        W35596  15.535   2.394  15.950 -0.0123  0.1239  0.1741
20466W        W35597   2.165   2.211   1.654 -0.1684 -0.1000 -0.1948
20467W        W35598  10.236  17.953  11.526  0.1619 -0.2591  0.0007
20468W        W35599  14.754  12.044   0.364 -0.1459 -0.2108  0.3419
20469W        W35600  10.330  11.496  14.652  0.0390  0.1975 -0.2603
20470W        W35601   4.128   9.274  11.988  0.0576  0.2819  0.1010
20471W        W35602  17.795   1.971  11.105 -0.1764  0.2756 -0.0808
20472W        W35603  14.670   5.993   4.677 -0.0135 -0.0271  0.0839
20473W        W35604   1.002   2.861  15.691 -0.0045  0.1431 -0.1483
20474W        W35605  16.354  12.121  12.762  0.0512 -0.1404 -0.1802
20475W        W35606  15.060   7.612  11.908 -0.0088 -0.0836 -0.2809
20476W        W35607   5.786  11.320  13.885  0.1351  0.0486  0.2058
20477W        W35608  13.701  14.550   4.705 -0.0681 -0.1413  0.3752
20478W        W35609   4.822  17.907  13.354  0.1957 -0.3396  0.6096
20479W        W35610   7.643   5.355   5.335  0.3674  0.0870 -0.1544
20480W        W35611   0.699  16.628   1.096  0.2091 -0.0144 -0.0621
20481W        W35612  12.467   0.123   2.145 -0.1143 -0.1896  0.4751
20482W        W35613   6.225  15.107  12.678  0.2159 -0.0847  0.1402
20483W        W35614   0.944   5.636  14.336  0.1833  0.0953 -0.5147
20484W        W35615   6.748   0.710   2.481  0.1775  0.0851 -0.0908
20485W        W35616   9.965  13.347  12.126 -0.2825  0.0958 -0.0667
20486W        W35617  15.991   1.736   3.361 -0.0783  0.2473 -0.1575
20487W        W35618   0.587   0.649  10.590 -0.1933  0.0752 -0.0450
20488W        W35619  15.707   8.708  12.225  0.0818  0.1153  0.2897
20489W        W35620  10.572   0.594   5.137  0.1067 -0.0613  0.0756
20490W        W35621   5.318  15.124  13.757 -0.4004  0.1102 -0.0070
20491W        W35622  14.931  10.828  15.645  0.2239 -0.1310  0.1737
20492W        W35623   0.967   6.132   5.432 -0.0111 -0.1124  0.0841
20493W        W35624   1.652  11.358  13.182 -0.0012  0.1763 -0.2822
20494W        W35625   1.737   4.504   1.881 -0.4318  0.0093  0.1492
20495W        W35626   2.444   3.020  10.294 -0.1165  0.1982 -0.2074
20496W        W35627   5.805  13.308   9.853 -0.3923 -0.0128  0.0217
20497W        W35628   2.071   9.868  12.077 -0.1730 -0.0782 -0.2567
20498W        W35629  17.053  12.549   4.618 -0.2776 -0.0645  0.3634
20499W        W35630   1.716   8.067   4.272  0.1867 -0.0886  0.1444
20500W        W35631  17.436  13.088  16.020  0.2160  0.2240  0.3248
20501W        W35632   5.962   5.409  14.745  0.2018 -0.0829 -0.1801
20502W        W35633   8.662   9.429   2.372  0.2270  0.1095  0.2105
20503W        W35634  13.004  15.703   0.718 -0.1439  0.1075  0.1009
20504W        W35635   3.858  10.905  13.160 -0.0561  0.1550  0.0047
20505W        W35636  15.937   3.912  11.471 -0.1087 -0.0081  0.1240
20506W        W35637   5.452   6.670   1.655  0.1723  0.1455 -0.1194
20507W        W35638   0.488  12.577  13.005 -0.1399 -0.0577  0.1572
20508W        W35639   5.518  15.996  14.492  0.0244 -0.2440 -0.3335
20509W        W35640   5.496   2.453  16.034  0.1522 -0.0512 -0.0527
20510W        W35641   7.328  11.000   0.089 -0.2557 -0.1465  0.1421
20511W        W35642   9.745   4.301   1.537 -0.3111 -0.1099  0.0460
20512W        W35643  17.139   1.625  15.985  0.0645 -0.0110  0.1016
20513W        W35644   6.322  15.435   1.966  0.1436 -0.0087 -0.3784
20514W        W35645   7.057  18.367  13.106 -0.0424  0.0489  0.3077
20515W        W35646  12.337   7.729   0.898  0.0116 -0.1402 -0.2731
20516W        W35647   7.450   4.226  14.349  0.4455 -0.1001 -0.1026
20517W        W35648   0.558   8.691  11.829  0.0569  0.1168 -0.0265
20518W        W35649   2.846   6.428  13.955 -0.0832  0.2516 -0.0883
20519W        W35650   0.737   1.136  10.668  0.1640 -0.3863 -0.2012
20520W        W35651  15.637   2.685   3.364  0.0590  0.2980 -0.1067
20521W        W35652  17.438   4.569  15.996 -0.0293  0.1815  0.2357
20522W        W35653   2.142  13.496   2.356 -0.1616 -0.3353  0.1270
20523W        W35654  12.418   2.739   0.513 -0.2228 -0.0962  0.1984
20524W        W35655  18.387   5.406   2.378 -0.2074  0.1442 -0.0795
20525W        W35656   5.089   3.111   3.182 -0.0250  0.0281 -0.1324
20526W        W35657  18.434  16.488   0.173 -0.2663 -0.0599  0.1685
20527W        W35658  14.338  18.207   9.969  0.0489  0.1411  0.3956
20528W        W35659   8.594  11.787   1.651  0.0272  0.1409  0.2777
20529W        W35660  12.669   8.857  14.279 -0.2304 -0.2919  0.0010
20530W        W35661   2.908   7.553   4.963 -0.1407  0.2666 -0.2107
20531W        W35662  18.470  16.144  15.905 -0.1957 -0.3185 -0.1787
20532W        W35663  15.726  18.170  15.895 -0.1401 -0.0581 -0.1133
20533W        W35664  14.970  17.255  15.263  0.2494  0.0397  0.0824
20534W        W35665  13.084  16.314   9.904  0.1153 -0.2026  0.2227
20535W        W35666  11.184  11.080   2.043  0.0250 -0.1558  0.0289
20536W        W35667  14.104   2.008   5.477  0.0208  0.0210 -0.0692
20537W        W35668  16.126  13.764  14.832  0.0382 -0.5944  0.3900
20538W        W35669   4.981  13.632   1.915 -0.0016  0.0072  0.2369
20539W        W35670   6.307   9.506   0.062 -0.1680 -0.0217 -0.2959
20540W        W35671  13.358  11.008   0.235 -0.2051  0.1109  0.0154
20541W        W35672   1.235   7.584  14.863 -0.0225 -0.0674  0.3254
20542W        W35673   4.783  14.105   4.207 -0.1375  0.2508  0.1396
20543W        W35674   3.511   1.703  16.089 -0.2532  0.1570 -0.0812
20544W        W35675   8.789  12.027  13.946 -0.2428  0.0262  0.0091
20545W        W35676   2.845   8.444  15.031  0.2170  0.2502  0.1301
20546W        W35677   2.756   6.399   3.334 -0.1011 -0.1030  0.2104
20547W        W35678  15.888  15.905  15.089  0.1415  0.2118 -0.1356
20548W        W35679  15.208   6.316   4.494  0.1343  0.0469  0.2883
20549W        W35680   2.724   0.702   2.994  0.3540 -0.2904  0.1439
20550W        W35681   5.286  15.943   0.395 -0.1083 -0.2549  0.1709
20551W        W35682   1.380  11.363   3.246  0.1046  0.1425  0.0899
20552W        W35683   8.353   3.077   5.572  0.0626 -0.0685  0.2010
20553W        W35684   7.933   9.449  15.672  0.2361 -0.1266 -0.4530
20554W        W35685   5.397  10.630  16.027 -0.2342  0.0542 -0.0032
20555W        W35686  13.505   5.185   0.934  0.0382 -0.3469  0.1097
20556W        W35687  10.253   7.376   1.022 -0.0068 -0.0314 -0.0240
20557W        W35688   3.822  13.781  11.650 -0.1187 -0.1003 -0.2871
20558W        W35689   8.219   9.082   6.098  0.1176  0.0068  0.0563
20559W        W35690   6.460   1.000  10.975  0.2272  0.0335  0.0604
20560W        W35691   2.767  12.974   4.783  0.0234 -0.4231 -0.2097
20561W        W35692  14.907   1.815  11.445 -0.3105 -0.2286  0.2176
20562W        W35693   0.654  11.971  10.988 -0.3451 -0.2628  0.0131
20563W        W35694   0.533   4.348  14.877 -0.0864  0.0958 -0.2674
20564W        W35695   5.212   4.353   0.660  0.0569 -0.0600  0.1327
20565W        W35696   0.313  12.530   0.573 -0.0465 -0.0186 -0.0217
20566W        W35697   6.497   2.828   0.646  0.0878  0.4213 -0.0627
20567W        W35698  16.670  11.220   1.413 -0.2040  0.0689 -0.0681
20568W        W35699   5.093   2.179   2.059 -0.1215  0.3166 -0.0049
20569W        W35700   5.358  11.204   4.818  0.0293  0.1149 -0.0274
20570W        W35701   9.727   7.893  13.114 -0.0283  0.2939 -0.1653
20571W        W35702  14.557  15.700   0.243 -0.2730  0.1437 -0.1265
20572W        W35703   0.572   8.924   6.234 -0.1047  0.0205  0.0007
20573W        W35704   4.691  12.453  11.179 -0.2420 -0.0280  0.0577
20574W        W35705   4.659  13.313  14.675 -0.0396  0.1000  0.1414
20575W        W35706  16.399   4.815  12.617 -0.0245 -0.0821 -0.0032
20576W        W35707   1.272  15.171  11.602 -0.0103 -0.0451  0.0067
20577W        W35708   8.097  16.482   1.662 -0.2061  0.0347  0.1593
20578W        W35709   4.805  11.704   5.097 -0.2648 -0.1088  0.0042
20579W        W35710  17.046  13.338  14.847 -0.1174  0.2971  0.2731
20580W        W35711   5.828   7.186  15.116 -0.0338 -0.3484  0.2965
20581W        W35712  11.219   0.943   5.353 -0.1246 -0.0701  0.0137
20582W        W35713   6.646   2.988  15.470 -0.1322 -0.0908 -0.1396
20583W        W35714  14.000  17.457  11.638  0.1259  0.1418  0.1447
20584W        W35715   8.547   3.697  15.610 -0.2284 -0.2014 -0.2140
20585W        W35716  13.803   1.473   2.742 -0.1579 -0.0071 -0.2159
20586W        W35717  12.834   8.309  10.281  0.0364 -0.0252  0.1349
20587W        W35718   2.052  10.632   3.484  0.3071 -0.2396 -0.0170
20588W        W35719   1.514   1.930   3.454  0.0775  0.2017  0.0013
20589W        W35720  15.459  13.754  15.515 -0.5316 -0.0382  0.1423
20590W        W35721  15.340   4.071  10.551  0.0592 -0.0915 -0.0261
20591W        W35722   1.322  13.671   2.011 -0.1661  0.0098 -0.2154
20592W        W35723   8.776   9.937   2.470  0.0056 -0.3540 -0.0162
20593W        W35724  12.469   5.835  12.699 -0.6326 -0.0196  0.0532
20594W        W35725   2.106  14.790   2.425 -0.0188 -0.1341  0.1332
20595W        W35726   5.723   0.685  15.423  0.2588 -0.1372 -0.2047
20596W        W35727   0.903   8.792  12.817 -0.2470  0.1706  0.5165
20597W        W35728   1.686   9.873  12.370  0.0366 -0.0537  0.0797
20598W        W35729   5.431   7.910   1.512  0.1005 -0.3371  0.0496
20599W        W35730   8.889   5.469  15.118 -0.0385 -0.0892 -0.0942
20600W        W35731   3.113   6.019   2.618 -0.0148  0.1059 -0.0658
20601W        W35732  15.201  16.335  13.227  0.1302  0.0499  0.0788
20602W        W35733  18.050  13.238   5.316 -0.2752 -0.4366  0.2725
20603W        W35734   0.637   2.198  12.751 -0.0412 -0.2596 -0.0757
20604W        W35735   8.114  15.974   4.127  0.3831  0.2760 -0.0055
20605W        W35736   5.214   8.949  11.754 -0.2276  0.2226  0.0606
20606W        W35737   2.480  14.122  10.752  0.1257 -0.0209 -0.1527
20607W        W35738  14.597   5.184  15.621 -0.0336 -0.1437  0.0383
20608W        W35739   9.401  13.254   4.478 -0.1833 -0.0656  0.2743
20609W        W35740  18.230   3.106   3.182  0.2216 -0.0578 -0.0189
20610W        W35741  14.565  18.028   5.080 -0.0416 -0.3515  0.2443
20611W        W35742   6.551  17.826  12.166 -0.0352  0.1778  0.0156
20612W        W35743   6.610   8.962  12.707  0.2151 -0.0266 -0.1432
20613W        W35744  15.451   5.968   2.053 -0.0180  0.1989 -0.0634
20614W        W35745  11.255   1.555  14.667 -0.2294  0.5074  0.1584
20615W        W35746   7.563  10.028  14.066 -0.1553  0.0103  0.0494
20616W        W35747   4.467  13.930   1.656  0.0196 -0.1226  0.0372
20617W        W35748   3.021  14.126   3.868  0.0287 -0.1434  0.2812
20618W        W35749  13.036   6.978   1.853 -0.0569 -0.4176 -0.0544
20619W        W35750  16.904   6.784  11.642  0.1008  0.2397 -0.0017
20620W        W35751   4.695   2.044  12.958 -0.0929  0.2055 -0.1627
20621W        W35752  14.772  12.154  15.993 -0.1403 -0.1838  0.0579
20622W        W35753   4.227   3.312  11.477  0.2882  0.1917  0.0507
20623W        W35754  14.065   6.820   5.001  0.0432  0.1322 -0.0161
20624W        W35755  14.927  10.004  12.579  0.5840 -0.1373  0.1451
20625W        W35756   1.285   0.468  13.453 -0.0888  0.0342  0.2083
20626W        W35757  14.577  14.551   4.292  0.0250 -0.0098 -0.2513
20627W        W35758   0.560   4.980  15.754 -0.2341 -0.1647 -0.3347
20628W        W35759  14.817  17.265   0.495  0.1288 -0.1704 -0.2226
20629W        W35760   3.458   0.866  13.497 -0.0141 -0.4245  0.1620
20630W        W35761  10.315  16.053  15.764  0.1232  0.0144 -0.0224
20631W        W35762  16.391  12.820   4.272  0.0923 -0.2055  0.4086
20632W        W35763  10.503   4.887   4.413 -0.2811 -0.1191 -0.0288
20633W        W35764   9.523   7.751   4.532  0.1714  0.1804  0.1360
20634W        W35765  16.217   4.215   1.107 -0.2972 -0.2361  0.0205
20635W        W35766   7.106   6.140   4.732 -0.0135  0.1524 -0.1403
20636W        W35767   5.991  10.058  10.775 -0.1408 -0.2392 -0.2741
20637W        W35768   9.445  14.796   3.072  0.0704  0.0379 -0.0301
20638W        W35769   6.572   1.155   4.719 -0.0283 -0.1196 -0.0498
20639W        W35770   8.187  16.606  14.623  0.2008  0.4014 -0.1834
20640W        W35771  10.871  17.868   1.541  0.1515 -0.0615  0.2242
20641W        W35772  10.111   9.754   2.430 -0.3659 -0.1316  0.0473
20642W        W35773  10.072   2.790   2.141 -0.1260  0.0985  0.1355
20643W        W35774  16.281   5.591   3.972 -0.1790 -0.0043 -0.1498
20644W        W35775  17.783   3.210   1.569 -0.2879 -0.0715  0.0235
20645W        W35776   4.884  14.364   1.787 -0.0267 -0.2183  0.0697
20646W        W35777  13.707   3.089   4.551  0.1638  0.0477 -0.2368
20647W        W35778   6.130   4.097   1.063  0.1771 -0.0655  0.4686
20648W        W35779   3.707  18.363   5.172  0.1305 -0.1244  0.0817
20649W        W35780  14.572  12.174  12.597 -0.0768 -0.2132  0.2179
20650W        W35781  14.874  13.893  14.375  0.0655 -0.1421 -0.0451
20651W        W35782   8.981   1.753   2.829 -0.1048 -0.3029 -0.2889
20652W        W35783  17.172  13.163   3.965  0.5396  0.2900  0.1396
20653W        W35784  11.711   6.975   1.217  0.5399  0.1628 -0.0580
20654W        W35785  13.914  11.478  14.421 -0.1906  0.1533  0.2495
20655W        W35786  13.528  10.253  15.748  0.0925  0.0237  0.0241
20656W        W35787   1.249   0.348   2.540  0.2393  0.2041 -0.1010
20657W        W35788   0.612  15.957  11.986 -0.5644  0.0022  0.3087
20658W        W35789   9.903   7.092   4.916  0.2834  0.2618 -0.0709
20659W        W35790   8.352   1.069  13.583  0.1262 -0.0437  0.1878
20660W        W35791   1.030  11.747   3.276  0.0717 -0.1354 -0.0977
20661W        W35792   2.517   9.137   2.526 -0.2219 -0.0894 -0.3109
20662W        W35793   9.418   9.565  12.160 -0.0531 -0.3566  0.0371
20663W        W35794  10.766   9.043   4.141  0.2431  0.1731  0.0949
20664W        W35795   4.402  10.966  13.216  0.0292 -0.0512 -0.0992
20665W        W35796   9.872  12.826   4.169  0.1762 -0.4438  0.5499
20666W        W35797   2.201   3.561   1.142  0.0735 -0.2876  0.0759
20667W        W35798   1.786  17.895   8.873 -0.1639 -0.1103  0.1074
20668W        W35799  15.834  17.320  15.433  0.0033  0.1221  0.2085
20669W        W35800   8.800  14.864  14.621  0.1278  0.0703  0.2180
20670W        W35801   3.125   9.802   1.366  0.1918 -0.1297 -0.1949
20671W        W35802   3.486   2.023  15.658  0.1064 -0.1385  0.1950
20672W        W35803   1.251   3.190  13.537 -0.1032  0.0835  0.0916
20673W        W35804  10.080  17.311  15.655  0.0753 -0.0854 -0.0078
20674W        W35805  15.596   1.214   2.206 -0.3825  0.0406  0.1586
20675W        W35806   0.510  13.557   5.746 -0.3401 -0.1225  0.4399
20676W        W35807  10.054   4.106  11.924  0.3420 -0.0343  0.3158
20677W        W35808  12.718  10.512  14.862 -0.2463 -0.0763  0.1437
20678W        W35809   2.510   6.862  15.590  0.0577  0.1693 -0.2433
20679W        W35810  14.233  17.409   0.440 -0.0269 -0.0181  0.0724
20680W        W35811  11.380   6.281   1.760  0.0636 -0.0192  0.1118
20681W        W35812  13.887   0.084  12.094 -0.1770  0.1979  0.1842
20682W        W35813   2.950  17.386   1.845  0.0334 -0.0765 -0.1590
20683W        W35814  10.516   8.321  12.870 -0.0613 -0.3845  0.0039
20684W        W35815  16.136  11.621   2.125  0.0188 -0.1228  0.0174
20685W        W35816   8.734   7.305  15.474 -0.1006 -0.2735  0.0883
20686W        W35817  10.565   0.582   1.076 -0.2231 -0.1076 -0.2835
20687W        W35818  10.712  12.687   1.428  0.3484 -0.0698  0.0862
20688W        W35819  13.919  10.103  13.502 -0.0790 -0.1280  0.0766
20689W        W35820  13.143   1.967   3.511  0.0411 -0.1884  0.2740
20690W        W35821   5.510  17.813   4.450 -0.0725  0.1028 -0.0308
20691W        W35822   5.542   1.079  12.203 -0.1101  0.2132  0.0818
20692W        W35823  14.442   2.977  15.534 -0.0412 -0.2307  0.1006
20693W        W35824   3.456  14.621  14.115 -0.0604 -0.0062 -0.4644
20694W        W35825   7.214  14.426   1.665  0.0521 -0.3425 -0.0728
20695W        W35826   4.768   7.083   4.333 -0.0827 -0.2119 -0.2265
20696W        W35827   4.133   4.062  14.851  0.3696 -0.3927  0.1856
20697W        W35828   4.355   9.222  12.480 -0.1019  0.2387  0.1385
20698W        W35829   7.015   4.092   0.226  0.1075  0.0416 -0.0851
20699W        W35830   4.493  15.101  15.423  0.0425 -0.1742 -0.1041
20700W        W35831  15.134  11.760   0.056  0.2067 -0.1019  0.0945
20701W        W35832   4.338  11.200  12.237 -0.1937 -0.2561  0.3219
20702W        W35833   8.488   1.822  14.182 -0.2529 -0.1293 -0.2896
20703W        W35834   3.692   7.684   3.964  0.0706 -0.1560  0.1405
20704W        W35835   8.477   8.350   4.782  0.2379  0.1598 -0.1773
20705W        W35836   0.032   5.856  11.801 -0.0248 -0.1020  0.0972
20706W        W35837   7.260   0.984  12.887  0.3748  0.1499 -0.3111
20707W        W35838  17.216  13.349   2.752 -0.0041  0.0876 -0.3385
20708W        W35839  16.538   5.697  11.667  0.2538  0.4430  0.0263
20709W        W35840   4.023   3.333   0.582  0.0674 -0.2426 -0.2261
20710W        W35841   5.851   1.033  14.109 -0.4606 -0.0554 -0.1018
20711W        W35842   8.003   3.244   4.043 -0.2989 -0.4874  0.1145
20712W        W35843  13.393   7.227  12.000 -0.1915 -0.0585  0.1170
20713W        W35844  17.154  10.943   3.633 -0.4286  0.1927  0.1499
20714W        W35845   0.438   4.070   0.225  0.1957 -0.1131 -0.4447
20715W        W35846   9.332  14.116   1.452  0.2352 -0.0055 -0.0019
20716W        W35847   4.207  18.203   3.845 -0.3033  0.0525 -0.1663
20717W        W35848  14.332  17.064   0.022  0.0968  0.0865  0.2467
20718W        W35849   8.531  14.143  12.982 -0.1909  0.3064 -0.1753
20719W        W35850   8.671   9.331  14.586  0.2375 -0.0494 -0.0455
20720W        W35851   7.311  10.716  15.342 -0.2289 -0.3219 -0.1843
20721W        W35852   6.182   7.796   4.115  0.0870 -0.1924 -0.0230
20722W        W35853  15.486  15.515  10.888  0.0665  0.0828 -0.0047
20723W        W35854   9.305   8.029  13.283 -0.1347 -0.0361  0.2089
20724W        W35855   2.360  17.578   1.062 -0.0775  0.4112  0.2136
20725W        W35856   6.731  10.504  12.919 -0.0332 -0.1197  0.0177
20726W        W35857  14.339   3.093  13.704 -0.0067 -0.1485  0.1565
20727W        W35858   4.449  11.341   4.993 -0.0166 -0.1187  0.0344
20728W        W35859  14.916  11.410   3.691  0.0791 -0.0314  0.2914
20729W        W35860   2.205   4.040  12.616 -0.0883  0.1116  0.0076
20730W        W35861   2.980  18.061  10.269 -0.0498 -0.2032  0.2808
20731W        W35862   7.668  12.245   1.624  0.2051  0.0187 -0.0890
20732W        W35863   9.196  15.809   3.263 -0.1086  0.0614 -0.4066
20733W        W35864  17.928   5.576  12.444 -0.2437  0.0727  0.0385
20734W        W35865   2.367  13.757   0.329  0.2667 -0.1039 -0.2201
20735W        W35866  13.326  14.707  14.011  0.1360  0.1279  0.1553
20736W        W35867   9.636  15.213  14.574 -0.1223  0.0982 -0.1847
20737W        W35868  15.320  10.121   4.896  0.2551  0.3671 -0.2798
20738W        W35869   9.067  16.350   2.096 -0.1952 -0.1141  0.0794
20739W        W35870   9.671   6.347  12.985  0.2689  0.0934  0.0108
20740W        W35871   9.372  14.470   4.068 -0.0097 -0.0249  0.0881
20741W        W35872   3.382  13.940  10.963  0.4115  0.0777 -0.0872
20742W        W35873  13.441  18.357  14.703 -0.1621 -0.0057  0.0562
20743W        W35874  17.462  13.448   2.322 -0.1041  0.1089 -0.2128
20744W        W35875   0.523  11.235   3.098  0.0042 -0.0593 -0.2462
20745W        W35876   5.283   4.322  11.696  0.5891 -0.1547 -0.0938
20746W        W35877   8.297  15.962   3.637 -0.0977 -0.0404  0.0627
20747W        W35878   1.618   7.364   3.350 -0.2578  0.2156 -0.0621
20748W        W35879  10.890   8.625  13.084  0.3153  0.0577 -0.3311
20749W        W35880  11.669  16.793  15.437  0.2523  0.0798 -0.4887
20750W        W35881   2.002   4.543  14.494  0.0661 -0.1048 -0.2271
20751W        W35882  13.299   3.640   4.638 -0.1857  0.0928  0.1187
20752W        W35883   0.736   4.077   3.385 -0.5580  0.1592 -0.3572
20753W        W35884   6.562  11.012   3.570 -0.1247 -0.5608 -0.0229
20754W        W35885   3.068   9.813  13.547 -0.1469 -0.1157  0.2899
20755W        W35886   7.876  12.051   3.865  0.2611 -0.1233  0.0949
20756W        W35887  15.364   0.116  12.043  0.1481  0.2762 -0.0488
20757W        W35888  15.582   8.849   1.379  0.1400 -0.0944 -0.2256
20758W        W35889  15.195   9.654  14.819  0.1976  0.5157 -0.0706
20759W        W35890  12.821  12.274   3.193  0.3871  0.2283 -0.2282
20760W        W35891  10.347  13.797   5.012 -0.1088 -0.0410 -0.1155
20761W        W35892  17.033  17.542  14.978  0.1662  0.0875 -0.0411
20762W        W35893  16.799   7.497   4.666 -0.0690  0.2496 -0.1578
20763W        W35894  10.946   0.582   5.554  0.2854  0.0705  0.0284
20764W        W35895  11.181   4.711   2.410  0.0000 -0.1173 -0.1921
20765W        W35896  16.020   3.044   4.044  0.2432  0.0048 -0.0429
20766W        W35897   9.692  12.752  14.500 -0.2426 -0.0805 -0.2330
20767W        W35898   1.108  14.131   2.765  0.1764 -0.0236  0.0354
20768W        W35899   8.374   7.875   3.877  0.1388  0.0451  0.1763
20769W        W35900   6.391   9.946  15.892  0.1425  0.1129  0.0540
20770W        W35901   6.212  15.182  15.805 -0.1139 -0.1718 -0.1098
20771W        W35902   3.704  10.872   3.370  0.0126  0.0322  0.0098
20772W        W35903   3.858  15.803   1.821 -0.0073  0.0146  0.0040
20773W        W35904  13.288  15.454  11.144  0.0303  0.0799 -0.1777
20774W        W35905  12.266  17.994   0.378 -0.2402 -0.1704 -0.1316
20775W        W35906  16.876   8.777   0.019  0.1371 -0.2187  0.2126
20776W        W35907   4.499   0.191   1.955  0.0851 -0.1537 -0.0383
20777W        W35908   5.351  15.567   1.981  0.0111  0.2818 -0.1462
20778W        W35909   2.740  16.474   2.542  0.3598 -0.0143  0.0941
20779W        W35910   4.961   5.391  14.877 -0.2433  0.0807  0.2426
20780W        W35911  14.421  10.066  13.494  0.0178 -0.0285 -0.0738
20781W        W35912   4.148   8.233   4.346  0.0706 -0.1936 -0.2667
20782W        W35913   3.454  18.228  13.608 -0.3835 -0.0391  0.1153
20783W        W35914  12.988   7.949   2.250 -0.1758 -0.0344 -0.0219
20784W        W35915   6.770   8.469   1.513  0.1132 -0.1457 -0.0000
20785W        W35916  17.824  10.202   3.328 -0.0280  0.0607 -0.0274
20786W        W35917  15.686   5.044  13.376  0.1449  0.3200 -0.2019
20787W        W35918   2.774   4.851   2.846 -0.0497  0.1508  0.0608
20788W        W35919   8.166  15.703  12.434 -0.0012 -0.3243 -0.2928
20789W        W35920   9.184  10.079   2.152  0.1273 -0.0796  0.0283
20790W        W35921  10.284   6.735   4.573 -0.0953 -0.1240  0.1274
20791W        W35922   1.833   4.452   4.570 -0.4281 -0.1642 -0.0189
20792W        W35923  15.820  14.618  14.976 -0.0082 -0.1135 -0.2920
20793W        W35924  12.979   5.937  15.787  0.0528 -0.0168 -0.4034
20794W        W35925   2.296   5.548  13.282 -0.0906  0.1566  0.1992
20795W        W35926  11.703   9.729   0.754 -0.2542 -0.1039 -0.1025
20796W        W35927   1.935  13.615   1.235 -0.1215  0.1779  0.2214
20797W        W35928   4.375   7.649   3.079 -0.1096 -0.1168  0.0816
20798W        W35929  17.666  10.329   1.030  0.0779 -0.2475  0.1284
20799W        W35930   0.585  18.247   3.844 -0.2115 -0.0245 -0.0190
20800W        W35931  18.109  11.407   4.390  0.0150  0.1922 -0.4458
20801W        W35932   2.574   2.257  15.230  0.1645  0.0765  0.2338
20802W        W35933   6.988  15.966  14.083 -0.0769  0.2201  0.0875
20803W        W35934   6.740   6.530   4.445 -0.0343 -0.1612 -0.1439
20804W        W35935  11.151  14.012  12.334  0.1454  0.2464 -0.0854
20805W        W35936  17.893   4.349  12.566  0.2077 -0.3489  0.4097
20806W        W35937   5.595   9.011  12.711 -0.0770  0.2416  0.1463
20807W        W35938  13.479   9.354  13.824  0.1272 -0.2149 -0.1055
20808W        W35939   2.867  10.198   0.669  0.0689 -0.1171 -0.0788
20809W        W35940  17.052  12.744  15.091 -0.0052 -0.0737  0.0130
20810W        W35941   3.104   1.237   2.171  0.0965  0.0571  0.2048
20811W        W35942  16.486  12.487  12.349  0.2188  0.0438  0.1848
20812W        W35943  10.386  14.624   4.530 -0.1712 -0.0791 -0.1670
20813W        W35944   7.427   3.471  14.173 -0.2731 -0.2155  0.0131
20814W        W35945  12.015   5.344   5.726  0.1529 -0.1065 -0.3177
20815W        W35946   4.278  10.921   0.683  0.0726 -0.2031 -0.0849
20816W        W35947   3.524   2.191   1.130  0.1746  0.0895  0.1478
20817W        W35948   2.019  12.936  11.537 -0.0377 -0.1082  0.0836
20818W        W35949  14.635  12.843  11.376  0.0413  0.0609 -0.1727
20819W        W35950  17.849   6.780   6.432  0.3519 -0.1264 -0.2978
20820W        W35951   5.037   1.781  14.798  0.0427 -0.1343 -0.0547
20821W        W35952  18.156  10.103  15.532  0.0840 -0.0687  0.0278
20822W        W35953   4.031   4.246   9.890 -0.2049  0.0016  0.1642
20823W        W35954   5.798  17.291  15.406 -0.0548  0.2342 -0.2549
20824W        W35955   1.513   0.506   5.146 -0.0709  0.0631  0.3350
20825W        W35956   2.744   2.666  10.043 -0.0384 -0.0019  0.0305
20826W        W35957  12.080   2.854  13.732 -0.1948 -0.1459 -0.3114
20827W        W35958   9.864   5.617  12.340 -0.1626  0.2508 -0.1624
20828W        W35959   4.605   4.167   2.867  0.3372  0.0467  0.5386
20829W        W35960  13.476  17.807  13.464 -0.1778 -0.1963 -0.2680
20830W        W35961   1.015  12.788  12.911 -0.0425 -0.2771 -0.0716
20831W        W35962   8.963   3.777   4.446 -0.0597 -0.1570 -0.0235
20832W        W35963   0.827  17.334  12.223 -0.1630  0.5017  0.0004
20833W        W35964  18.408   6.822   2.827 -0.1802 -0.7381 -0.3856
20834W        W35965   7.911   9.422   3.932  0.1667 -0.0917 -0.1458
20835W        W35966   7.486   4.923   6.211 -0.2145  0.1787  0.1026
20836W        W35967  13.856   1.828   2.267  0.2758 -0.1227 -0.3582
20837W        W35968   9.789   3.183   0.433 -0.1406 -0.1580  0.1970
20838W        W35969   8.782   0.214  15.039  0.1234 -0.0889  0.1160
20839W        W35970   9.263  13.591   0.889 -0.2480 -0.0140 -0.1651
20840W        W35971  16.188   9.742  11.366 -0.0366  0.0644 -0.1453
20841W        W35972   9.131   0.874   1.403  0.2418  0.0770 -0.1745
20842W        W35973  13.072   3.953   5.870 -0.0467  0.0233 -0.1520
20843W        W35974   5.505  11.346  15.411  0.0484 -0.0405  0.0439
20844W        W35975   6.631   4.584  13.724 -0.1256  0.0558 -0.0451
20845W        W35976  10.291   1.172   2.353  0.1754 -0.3822 -0.0888
20846W        W35977   9.920  18.432   3.660  0.0624 -0.0937 -0.1450
20847W        W35978   4.086   5.890  12.621  0.0734  0.3125 -0.1399
20848W        W35979   1.516   9.837   3.323  0.0024 -0.0613 -0.0325
20849W        W35980  16.608   8.210  11.986  0.0673  0.1419  0.0089
20850W        W35981  11.814  17.757  14.748 -0.0490  0.0532  0.0160
20851W        W35982  11.645  12.536   2.449 -0.3711 -0.0472  0.2088
20852W        W35983   7.028  11.689  16.100 -0.0806 -0.1796  0.2045
20853W        W35984  11.762  18.003  12.528 -0.1966  0.1150  0.1204
20854W        W35985   7.435  10.301   1.312  0.0199  0.0476  0.0542
20855W        W35986  11.203  11.938  13.172  0.2421 -0.0467 -0.0151
20856W        W35987  10.593  17.763   6.190  0.1067  0.3190 -0.0073
20857W        W35988  14.953  15.623  13.089 -0.0191  0.1868  0.0051
20858W        W35989  16.075   9.158   0.509 -0.1271  0.1122 -0.0876
20859W        W35990  13.177   4.246  15.973 -0.2368  0.1399 -0.0153
20860W        W35991  17.329  11.980  13.840  0.0261  0.0777 -0.2457
20861W        W35992   6.811  10.208  15.997 -0.0341  0.2318  0.0953
20862W        W35993  14.233   0.623  11.086  0.0437 -0.1867 -0.1147
20863W        W35994   1.992   3.801  10.607  0.0643 -0.0364  0.3333
20864W        W35995   2.031   0.906   2.340  0.0396 -0.0794 -0.1619
20865W        W35996   5.149   9.794   4.217  0.0387  0.1699  0.3798
20866W        W35997   4.113  12.221  11.962 -0.0720 -0.2279 -0.0096
20867W        W35998   7.834   8.547  13.362  0.0106  0.0417  0.0876
20868W        W35999  10.882   0.903  14.198  0.3733 -0.1274  0.1854
20869W        W36000   5.589   7.714  13.575 -0.3844  0.0172  0.1720
20870W        W36001  14.700  11.950   0.925  0.0130  0.1894 -0.1670
20871W        W36002   7.132   2.923  15.471 -0.2751  0.1394  0.0648
20872W        W36003  11.705  15.239  13.449 -0.0004 -0.2045 -0.0136
20873W        W36004   4.259   3.753  14.040  0.1612 -0.2657 -0.0198
20874W        W36005   9.668   3.882   1.192 -0.4390  0.1851  0.1252
20875W        W36006  17.014  10.873   1.232 -0.1808 -0.1737  0.0478
20876W        W36007   8.562   6.854   0.504  0.1221  0.0760 -0.2396
20877W        W36008  11.215  12.998   3.810  0.0191  0.0580  0.1414
20878W        W36009  18.436  15.060   3.744 -0.2260  0.2430 -0.2993
20879W        W36010   9.238  13.564   1.770  0.1965 -0.0646  0.0965
20880W        W36011  16.748  13.850   3.517 -0.0145 -0.0568  0.1191
20881W        W36012   5.663  16.964   3.068  0.2994  0.0115  0.1124
20882W        W36013  16.673   1.713  14.430  0.4900 -0.3427 -0.2980
20883W        W36014  15.107   6.803  12.897  0.0872  0.2607  0.2719
20884W        W36015  12.312  13.608  15.647 -0.0403  0.2498  0.3388
20885W        W36016   8.049   3.930   2.239 -0.1812  0.0302  0.0393
20886W        W36017   0.373   8.179   4.641 -0.2950 -0.6231 -0.2259
20887W        W36018   9.099   0.284   5.472  0.2192 -0.2950 -0.0478
20888W        W36019  10.337  12.382  12.099 -0.1271  0.0782 -0.0414
20889W        W36020  18.092  13.379   3.335  0.0993  0.1490 -0.0925
20890W        W36021   9.013  11.732  12.377  0.0398 -0.1912  0.2650
20891W        W36022  10.983  12.314  14.469  0.1076  0.0653  0.0749
20892W        W36023  15.145   4.962   3.421  0.0142 -0.1111 -0.1834
20893W        W36024  13.842  17.361  14.650  0.2315  0.1822  0.0433
20894W        W36025  18.374  14.984  14.919 -0.3813 -0.0747 -0.2923
20895W        W36026  16.928   9.328  10.727 -0.4349  0.2517 -0.1151
20896W        W36027   9.782  12.860  11.035 -0.2210  0.1208 -0.2134
20897W        W36028   9.428  16.506  11.407  0.2197  0.0548 -0.0496
20898W        W36029   0.353   9.056   5.219 -0.1458 -0.1635  0.0052
20899W        W36030   5.770  18.480   2.982  0.0471 -0.2290 -0.1199
20900W        W36031   0.996  18.165   2.182 -0.0065  0.1137 -0.0323
20901W        W36032   3.266   3.373  14.505 -0.2615 -0.1930  0.0040
20902W        W36033  17.847  16.584  11.627  0.2461 -0.0879 -0.2277
20903W        W36034  14.921   3.321   3.642 -0.0916  0.0609  0.3400
20904W        W36035   5.558  16.544   2.158 -0.0586  0.6784  0.1247
20905W        W36036   0.884  13.633  14.436  0.6231 -0.0064 -0.0472
20906W        W36037  16.887   1.336  10.705  0.1542 -0.2865 -0.1614
20907W        W36038  18.193   1.239   4.647 -0.1817  0.1716 -0.2061
20908W        W36039  11.848  10.438   1.154  0.1263 -0.1877 -0.1505
20909W        W36040  15.931  10.875  11.011 -0.0628  0.0212  0.1153
20910W        W36041  15.285   2.159   2.288  0.2383 -0.1341 -0.2353
20911W        W36042   3.744  12.774  14.784 -0.2159  0.0181 -0.0101
20912W        W36043   4.754  16.041  10.141  0.0201  0.0441 -0.2341
20913W        W36044   4.267  10.584  12.883  0.2781 -0.2334 -0.0964
20914W        W36045   9.783  10.522  12.418  0.1123  0.0609  0.3491
20915W        W36046   9.401   7.076   0.976  0.1292 -0.0054 -0.0626
20916W        W36047   9.372   2.408   3.359  0.1070  0.2129 -0.2227
20917W        W36048  15.636   4.662  12.163  0.2743 -0.1954 -0.0066
20918W        W36049  10.859  11.964   4.416 -0.1289  0.0020  0.1000
20919W        W36050   8.776   6.015   5.756 -0.0478 -0.1075  0.1202
20920W        W36051   7.118   1.730  11.266  0.0994  0.0020 -0.1780
20921W        W36052   9.738   2.234   1.643 -0.0389  0.1762  0.3014
20922W        W36053  11.821  13.717   1.107  0.0473 -0.1112  0.2030
20923W        W36054  17.126   4.763   2.998  0.0487 -0.2242 -0.1617
20924W        W36055  12.643  15.583   2.769 -0.1341  0.0686 -0.1620
20925W        W36056   6.090  16.065  11.007  0.0880  0.0769 -0.2380
20926W        W36057   1.030   3.702   3.468 -0.0350  0.4096  0.0444
20927W        W36058   4.904   0.528  14.053 -0.0742  0.2812 -0.0192
20928W        W36059  15.721   7.031   2.490  0.4051 -0.1265  0.0096
20929W        W36060   0.321   8.918  15.625  0.2008  0.0636 -0.0903
20930W        W36061   2.593  10.988   0.020 -0.0505 -0.3832  0.0056
20931W        W36062   0.949  13.844  12.550 -0.0576 -0.0267 -0.3053
20932W        W36063   9.443   1.415   2.522 -0.1482 -0.3428 -0.1897
20933W        W36064   1.145   5.461  12.265 -0.4423  0.2246 -0.0430
20934W        W36065   7.862   5.011   4.500  0.3166 -0.4614  0.1739
20935W        W36066  18.305   0.501   1.299  0.1688  0.1670 -0.0677
20936W        W36067  12.034  13.652   1.725 -0.2079  0.5054  0.2384
20937W        W36068  12.349  15.363   4.298  0.0618  0.2236 -0.1783
20938W        W36069   2.983  16.418  14.735 -0.5085 -0.0261 -0.0030
20939W        W36070  16.990  10.469   0.437  0.0802 -0.0475  0.0619
20940W        W36071  14.128   1.263  14.791  0.0791  0.1142  0.0606
20941W        W36072  13.089   2.888   4.071 -0.0017  0.0104  0.0133
20942W        W36073   3.170  14.400  14.558 -0.3205 -0.3747  0.0296
20943W        W36074   7.118  17.600   5.065 -0.0421 -0.3351 -0.0094
20944W        W36075  18.328   8.142   4.847 -0.1728 -0.2035  0.5119
20945W        W36076  11.055   7.803   4.367 -0.0660 -0.2201  0.3033
20946W        W36077   0.625   2.070   4.116  0.1037 -0.2000 -0.0364
20947W        W36078  10.578   4.185  15.862 -0.0770  0.2525 -0.1586
20948W        W36079   7.765   3.745   5.112  0.0292  0.1527  0.1565
20949W        W36080   9.128  15.158  14.882  0.0767 -0.0274 -0.0821
20950W        W36081  11.481   7.905  12.334 -0.3343 -0.0326 -0.2519
20951W        W36082   9.461   1.226   1.466 -0.1680 -0.1999 -0.2650
20952W        W36083  18.242  10.169  14.366 -0.0761 -0.2584  0.1074
20953W        W36084  17.653  13.331   1.334  0.1989  0.0468 -0.0438
20954W        W36085   3.839   1.784  11.028 -0.1940  0.2540 -0.1043
20955W        W36086   4.037  16.234  10.460  0.1624  0.1349 -0.0366
20956W        W36087  10.896   7.582   6.240 -0.2982 -0.0211 -0.4948
20957W        W36088   5.028   7.928  12.882  0.2550 -0.0220 -0.0686
20958W        W36089  14.657  13.069  13.843  0.2335 -0.0228 -0.3183
20959W        W36090   9.544   1.459   0.335  0.0863  0.0813 -0.2694
20960W        W36091  16.589  17.275  11.129  0.0595  0.0214 -0.0454
20961W        W36092   7.516   7.508  13.307 -0.1002  0.0101  0.3148
20962W        W36093   7.981  15.560  13.733 -0.0991  0.1090 -0.0519
20963W        W36094   7.112   2.500   2.062  0.0905 -0.1536 -0.0617
20964W        W36095  13.531  15.689  12.454 -0.1228 -0.2616 -0.2164
20965W        W36096  17.420   4.245   2.452 -0.1686  0.0409  0.1679
20966W        W36097  12.788  16.233  11.522  0.1386  0.0040 -0.0736
20967W        W36098   5.222  11.753  11.186 -0.0242  0.1090 -0.0078
20968W        W36099  12.034   3.222  11.746 -0.0544 -0.1551  0.0802
20969W        W36100   7.917   2.866  12.423 -0.0995  0.2350 -0.1848
20970W        W36101  12.074   4.592   6.331 -0.1014 -0.0494  0.0294
20971W        W36102  15.023  18.177   5.398  0.1814 -0.2235 -0.0172
20972W        W36103  15.932  14.175   1.205 -0.1436  0.0301 -0.2731
20973W        W36104   9.719  12.938  10.539 -0.0311 -0.2196 -0.1694
20974W        W36105  10.368   3.762   1.745  0.1937 -0.1153 -0.2568
20975W        W36106   1.522   3.999  14.032 -0.1093  0.1918  0.2955
20976W        W36107  10.607  12.359   2.341  0.1046  0.0526  0.2289
20977W        W36108   7.717   0.638  12.996 -0.0812  0.1816  0.3607
20978W        W36109   8.280  17.855  13.670  0.2002  0.1884 -0.1345
20979W        W36110  10.198   7.736   2.010  0.0975 -0.1878  0.2512
20980W        W36111   4.235   1.285   2.239  0.3492 -0.0511  0.3129
20981W        W36112   4.068   7.848   5.578  0.0101 -0.1220  0.1220
20982W        W36113  16.110  14.642   3.418 -0.2432 -0.0828  0.0436
20983W        W36114  11.526   0.708  12.780  0.1783  0.1608 -0.0705
20984W        W36115  17.884   0.677  12.283  0.1601 -0.2275  0.4084
20985W        W36116  10.848   7.906  15.506  0.0651 -0.0213  0.3123
20986W        W36117   2.091   0.488  15.182  0.0347  0.1973  0.0126
20987W        W36118   2.975   7.446   1.191  0.0329 -0.0431  0.2692
20988W        W36119   0.358  18.022  15.117 -0.2048  0.0332  0.0730
20989W        W36120   6.546   4.387   0.143 -0.3506 -0.0849  0.0548
20990W        W36121  16.321   5.942   1.077 -0.0996 -0.2868  0.1049
20991W        W36122  10.076  17.961  14.965 -0.1587 -0.2301 -0.1054
20992W        W36123   7.889   1.437   4.804  0.0089  0.0719  0.0748
20993W        W36124   8.982  16.065   2.882  0.1888 -0.0350 -0.0376
20994W        W36125   4.398  11.757   2.071 -0.3476 -0.1887  0.1708
20995W        W36126  13.992  11.604   1.395 -0.0924 -0.0948  0.2747
20996W        W36127   3.085  18.025   4.774 -0.0143  0.0682  0.0544
20997W        W36128   3.807  15.510  11.595  0.2932  0.1408  0.0204
20998W        W36129   2.600   0.213  11.331 -0.1570 -0.2458 -0.1695
20999W        W36130   2.187   8.093   5.183  0.0105 -0.0855 -0.2933
21000W        W36131  15.921  10.408   0.590 -0.1321  0.0550 -0.1607
21001W        W36132   4.719   3.013   0.489  0.0749 -0.0554 -0.2487
21002W        W36133   4.799   8.776   3.113  0.1397  0.0877  0.0010
21003W        W36134   4.009   3.908  10.804 -0.4182  0.2555 -0.2378
21004W        W36135  10.416   4.579  14.897  0.0426  0.0063  0.1771
21005W        W36136  11.208   7.272  11.753  0.3015  0.3154  0.0136
21006W        W36137  14.935   9.563   3.874  0.0220 -0.0189  0.2628
21007W        W36138  14.076  14.641  14.921  0.2039 -0.1353  0.1618
21008W        W36139  13.057  11.635   4.936 -0.0657  0.0005  0.2110
21009W        W36140  11.807  12.118   4.681 -0.1610 -0.2323 -0.0821
21010W        W36141  14.643   0.926  14.907 -0.1813  0.0072  0.0933
21011W        W36142   0.016   0.232  13.763 -0.1020  0.0215  0.1356
21012W        W36143   8.114  12.921   4.934 -0.2623 -0.1181 -0.2922
21013W        W36144   2.045  16.037  14.130 -0.3415  0.0455  0.1131
21014W        W36145  17.949  12.756   5.363 -0.0427  0.0851  0.3557
21015W        W36146   7.154   1.863   4.294  0.0733 -0.0086 -0.2389
21016W        W36147   8.126  16.849   1.273 -0.2734  0.2499  0.3187
21017W        W36148   4.084  16.515  16.045 -0.0641 -0.0105 -0.0934
21018W        W36149   0.890  12.000   2.257 -0.0997 -0.0190  0.0772
21019W        W36150  16.986  10.344   1.431  0.0097 -0.0901  0.3399
21020W        W36151   9.774  17.046   2.154  0.1361  0.3370  0.0371
21021W        W36152  14.967   8.675   4.391 -0.3651 -0.1429 -0.1078
21022W        W36153  15.251  16.594  11.981  0.2010 -0.1789 -0.5559
21023W        W36154  13.977   3.119  12.106 -0.1882 -0.2341 -0.0368
21024W        W36155  13.045  15.696   3.609  0.4007 -0.1388 -0.1704
21025W        W36156  13.671   9.808  13.861 -0.3591 -0.0502  0.1274
21026W        W36157   6.187   0.785   3.431  0.1056  0.2355  0.1193
21027W        W36158  10.823   7.373   4.439 -0.0066  0.0590 -0.1123
21028W        W36159   3.705   9.223   2.280 -0.1028  0.1604 -0.2072
21029W        W36160  16.982  18.378   0.824 -0.1370 -0.0820  0.0095
21030W        W36161   3.517   3.454   2.616 -0.0208  0.1060  0.0055
21031W        W36162  13.744  18.169   2.375 -0.2974  0.3219  0.2002
21032W        W36163  17.936   0.499  13.473  0.2408  0.1383 -0.2447
21033W        W36164   4.131   1.229   3.144  0.0535 -0.3722  0.0217
21034W        W36165   3.823   8.150   1.372  0.2054  0.2785 -0.2432
21035W        W36166  18.202   9.186   0.446 -0.0859 -0.1980  0.0959
21036W        W36167   9.382   3.231  13.281  0.1604  0.1899  0.0222
21037W        W36168   2.264  15.210   0.645  0.1470 -0.0950  0.0377
21038W        W36169   2.948   4.659  10.944 -0.0631  0.0336 -0.1127
21039W        W36170  13.718   7.636  12.359 -0.4227 -0.2147  0.3200
21040W        W36171  18.053   6.997   3.071  0.0309 -0.1219 -0.0142
21041W        W36172   4.014   9.041   1.333 -0.3929  0.1261  0.0848
21042W        W36173  14.526   4.472  14.329 -0.1703  0.1247  0.1280
21043W        W36174  13.115   4.811  14.860 -0.0971 -0.1747  0.1333
21044W        W36175  10.828  14.289  11.917  0.0013 -0.2483  0.0182
21045W        W36176  17.876  16.665   9.625  0.0728  0.0097  0.1952
21046W        W36177  18.294   9.928   1.566 -0.0013  0.0605  0.1117
21047W        W36178  14.886   0.026  12.128 -0.1051 -0.2627 -0.0112
21048W        W36179   6.210  11.571   0.664 -0.1062  0.2184 -0.1679
21049W        W36180  12.479  17.335   4.516 -0.1102 -0.0633 -0.5073
21050W        W36181  14.123  17.986   4.168 -0.0748 -0.2064 -0.1640
21051W        W36182  11.158   9.770  15.201 -0.0338  0.0111  0.0196
21052W        W36183   4.601   5.068  12.580  0.0585  0.1243  0.3295
21053W        W36184  14.505  11.778  15.787 -0.0247  0.3266 -0.0922
21054W        W36185  14.232   1.832   1.066  0.1213 -0.0726 -0.3329
21055W        W36186   5.418  17.252  11.267  0.1817  0.1010 -0.4601
21056W        W36187   7.439  15.578  15.253 -0.2735 -0.0431  0.0308
21057W        W36188   1.293   5.991  11.157 -0.1165 -0.2062  0.1957
21058W        W36189  12.043   0.334   2.592  0.2188 -0.2900  0.0787
21059W        W36190   8.670  10.882   0.281  0.4598  0.1384  0.0601
21060W        W36191   8.048   8.515  11.278  0.1697  0.0279 -0.2097
21061W        W36192  16.498   4.482   1.400 -0.1063  0.0075 -0.1678
21062W        W36193  10.268  13.667  11.324  0.2214 -0.0451 -0.4075
21063W        W36194  15.184  10.651   4.592  0.1875  0.1465  0.0695
21064W        W36195   9.956  11.194   1.806 -0.0171 -0.2094  0.2523
21065W        W36196   8.789  17.972  10.238 -0.0223  0.1109 -0.3960
21066W        W36197  14.166   8.496  11.323  0.4131 -0.0959 -0.3189
21067W        W36198   6.599   1.666   0.619  0.0570 -0.1621  0.1584
21068W        W36199  17.605   5.887   2.740  0.2558 -0.1609 -0.1506
21069W        W36200  17.090   7.647   5.572  0.0198  0.1737  0.3429
21070W        W36201  11.418   4.945   2.883  0.1488  0.0312 -0.1117
21071W        W36202   1.741   0.403   3.366 -0.0066  0.0000  0.2131
21072W        W36203  12.494   4.083  16.102 -0.0647  0.0226  0.0442
21073W        W36204   9.387  18.372   3.659  0.0793 -0.1244  0.0707
21074W        W36205   9.419   6.420  13.478  0.3510  0.2829 -0.0785
21075W        W36206  16.364   0.690  10.306  0.3391 -0.0855 -0.1152
21076W        W36207  18.406   8.163  15.583  0.0263 -0.1903 -0.0336
21077W        W36208   6.695  12.195   1.582 -0.3926  0.1429 -0.1755
21078W        W36209  15.407  14.757   2.805 -0.2163 -0.1786 -0.1020
21079W        W36210   4.461   3.360  14.265  0.1135  0.2076  0.0095
21080W        W36211   8.998   5.382   6.293  0.0707 -0.2665  0.0063
21081W        W36212  15.468   1.997   1.807  0.0203 -0.2518  0.2751
21082W        W36213  17.783  11.867   4.823 -0.1778  0.1620  0.1757
21083W        W36214  13.630  18.426  11.604  0.1518  0.1385  0.4837
21084W        W36215  17.059   3.621   4.560 -0.0088 -0.0325  0.1410
21085W        W36216  15.823   5.859  12.979 -0.0080  0.0295  0.0098
21086W        W36217   9.501   8.758  14.757  0.4402 -0.0945 -0.1311
21087W        W36218   4.077   4.163  11.335  0.0469  0.3663 -0.1515
21088W        W36219   8.023   5.083  12.796  0.0962  0.0407  0.2520
21089W        W36220   3.951   4.200   4.827 -0.4229 -0.3302 -0.0725
21090W        W36221  14.492   6.232   1.052  0.0998 -0.2514  0.4107
21091W        W36222   1.416   5.099   3.192  0.1260 -0.4138 -0.0949
21092W        W36223  16.377   3.944  12.067 -0.0043 -0.3164  0.1110
21093W        W36224  14.855   7.975   3.400  0.2323  0.5230  0.0402
21094W        W36225  12.836  13.093  11.968 -0.2778 -0.0129 -0.4247
21095W        W36226  14.078   6.910  14.126  0.0102 -0.2567 -0.2313
21096W        W36227   7.603   7.381  11.637  0.1590 -0.2011 -0.0344
21097W        W36228   7.022  13.862   2.667 -0.0421 -0.4277 -0.2862
21098W        W36229  15.903  13.003   0.317 -0.2355  0.0334  0.0570
21099W        W36230   1.130  15.190   1.100 -0.2190 -0.1363  0.1490
21100W        W36231  11.975   9.956   4.823 -0.0507 -0.0994  0.1340
21101W        W36232  17.093   0.316  10.951 -0.1245 -0.2488  0.3024
21102W        W36233  12.967   3.767  15.209  0.0609  0.0070  0.1219
21103W        W36234  16.244   4.346  11.245  0.2120 -0.0835  0.0072
21104W        W36235  16.401  16.072  13.411  0.2615  0.3117  0.3150
21105W        W36236  17.627   5.398   2.591 -0.1536  0.2003 -0.2417
21106W        W36237   7.227   8.266   5.098 -0.0635 -0.0242  0.1047
21107W        W36238  10.836  16.726  15.819 -0.3113  0.1698  0.0695
21108W        W36239  18.343  11.413   0.450 -0.0252 -0.0643  0.0484
21109W        W36240   5.842  13.541   4.285 -0.1875  0.0410  0.0027
21110W        W36241   5.347  13.199  12.849 -0.0450  0.1949  0.0039
21111W        W36242  10.658   9.889  10.836  0.0683 -0.1014 -0.2388
21112W        W36243  17.066  16.696   3.451  0.2907 -0.0460  0.1424
21113W        W36244   5.860  16.523  10.877  0.1601  0.5450  0.0962
21114W        W36245  17.711  16.896   4.143  0.3436 -0.2332 -0.0993
21115W        W36246   5.315  11.670   1.066  0.0601  0.0497 -0.2037
21116W        W36247  17.617   7.563  11.098 -0.0483  0.1616  0.2901
21117W        W36248   6.719   8.428   4.304  0.1790  0.1542 -0.1580
21118W        W36249  17.042   7.196   2.548  0.1590  0.0749  0.2537
21119W        W36250  15.377   0.428  11.079  0.0656  0.2214 -0.1159
21120W        W36251   5.886   1.385   4.050 -0.3757  0.0800  0.0384
21121W        W36252   4.247  12.624  14.924  0.2228  0.3068  0.0914
21122W        W36253  10.036   6.678   3.989 -0.1069 -0.4356 -0.0301
21123W        W36254   8.259  15.604   3.113  0.0700 -0.1366 -0.0326
21124W        W36255  14.213   8.785  12.631 -0.0466 -0.0937 -0.1405
21125W        W36256   3.910  12.814  11.297 -0.2042  0.0041  0.1232
21126W        W36257  18.123  13.609   4.111  0.0096 -0.2379  0.2431
21127W        W36258   4.321   1.774  11.117 -0.3380 -0.0674 -0.0415
21128W        W36259  17.630   4.119   4.013 -0.2712 -0.4999 -0.0483
21129W        W36260  12.053   1.609   1.843  0.3090 -0.0352 -0.0214
21130W        W36261  14.786  12.468   4.829 -0.2320 -0.2780 -0.0714
21131W        W36262   0.902  17.656  10.361  0.0173 -0.2962  0.1051
21132W        W36263  16.165  15.594  15.838 -0.2598 -0.3971  0.0467
21133W        W36264  15.990  17.334   4.608  0.1095  0.1544  0.0942
21134W        W36265   0.736   7.541   1.437 -0.0230 -0.1017 -0.3111
21135W        W36266  13.937   8.212   1.194 -0.0439  0.1953  0.0951
21136W        W36267  11.981   7.868  12.296  0.0394 -0.0312  0.1423
21137W        W36268  11.880   2.837  14.792 -0.1472 -0.0655  0.5782
21138W        W36269  16.684  13.993  11.367  0.0128 -0.1000 -0.2896
21139W        W36270  10.697   7.325  14.855 -0.0720  0.2115  0.3230
21140W        W36271  10.870  10.159  11.232  0.2091  0.1284  0.0530
21141W        W36272   2.674  14.711   0.752 -0.0336  0.2614 -0.0355
21142W        W36273  17.612   8.665   3.239  0.3772 -0.2587 -0.2218
21143W        W36274   7.376   3.278   4.024 -0.1775  0.2075  0.1153
21144W        W36275   0.040   7.702  15.368  0.2524 -0.0106  0.1007
21145W        W36276  12.640  17.535  10.716 -0.4510 -0.1918 -0.0396
21146W        W36277   6.593   1.181   2.196 -0.1443 -0.2439 -0.1586
21147W        W36278   3.938   6.395  14.204 -0.0967  0.2447  0.1945
21148W        W36279   1.366   0.858  13.782 -0.0153 -0.0198 -0.2111
21149W        W36280   9.708   4.529  13.086  0.0182  0.0546  0.1571
21150W        W36281  17.050  16.486  12.932 -0.2123  0.2163 -0.1053
21151W        W36282   3.904   2.776   0.686  0.0547  0.4993  0.2380
21152W        W36283  16.482   2.739  15.764 -0.1498 -0.0929 -0.0015
21153W        W36284   0.320   6.413   2.582  0.2005  0.1492  0.1700
21154W        W36285   9.291   2.399   0.090 -0.1993 -0.2318  0.2394
21155W        W36286  15.295  13.462  15.895 -0.4107  0.0830 -0.3245
21156W        W36287  14.147  10.071  13.042  0.0170  0.1149 -0.2372
21157W        W36288   0.639   0.587   4.218 -0.1044 -0.1556 -0.0523
21158W        W36289   8.420  15.264  13.434 -0.2873 -0.3602 -0.0729
21159W        W36290   8.633   5.623   1.238 -0.1089 -0.0258  0.0778
21160W        W36291   0.268   3.441   9.806 -0.0722  0.1038  0.2867
21161W        W36292  13.649   0.104   1.405  0.0498  0.3010 -0.0352
21162W        W36293  16.356   5.870  14.156  0.0099  0.4387  0.0979
21163W        W36294   0.491   1.447  12.586  0.3133  0.3752  0.0469
21164W        W36295  10.961   4.567   0.485  0.0037 -0.2907 -0.0738
21165W        W36296   3.263  15.700  10.150  0.2201  0.0313  0.4687
21166W        W36297   1.279   4.777   2.073  0.0589  0.1564 -0.1849
21167W        W36298  12.959  17.206  14.447  0.2618  0.0147  0.0555
21168W        W36299  10.298   4.680   1.141 -0.0012  0.2596  0.3305
21169W        W36300   7.890   4.194  12.647  0.3016 -0.2002  0.1050
21170W        W36301  11.123  17.673   4.354  0.0703  0.1942  0.4442
21171W        W36302   7.959   8.155  12.026 -0.1847  0.1413  0.2114
21172W        W36303  14.377   7.886   6.359  0.0607  0.3000  0.2219
21173W        W36304   3.684   5.753   3.015  0.0669  0.1477 -0.2974
21174W        W36305   2.914  17.883  11.801 -0.2452 -0.2564 -0.0230
21175W        W36306   9.042  14.071   0.116  0.1702  0.2209 -0.1459
21176W        W36307   6.196   9.350   5.932  0.1023  0.2758  0.1920
21177W        W36308  15.789   6.964  13.617  0.1243 -0.1383  0.2041
21178W        W36309   7.341   0.540  10.803 -0.0390 -0.2404  0.3021
21179W        W36310   5.218   9.907   1.137  0.5006  0.1198  0.0659
21180W        W36311   3.642   1.273  15.046 -0.0279 -0.0020 -0.0888
21181W        W36312   5.782   0.688   3.743 -0.0490  0.1011  0.1069
21182W        W36313   5.426   7.936   5.185  0.3906 -0.0575  0.0218
21183W        W36314  11.577  15.953   0.345 -0.1035  0.1347  0.2481
21184W        W36315  17.373   3.109  11.732  0.3697 -0.0534  0.0347
21185W        W36316  11.603  15.438  12.552  0.3379  0.0420  0.0288
21186W        W36317   9.331  10.283  12.563  0.0371  0.0348 -0.1934
21187W        W36318   1.424  17.705  11.422 -0.0865  0.0938 -0.3867
21188W        W36319  16.071   8.466  11.941  0.2684 -0.2818  0.1243
21189W        W36320  10.318   1.408   4.867  0.2663  0.0017 -0.1326
21190W        W36321  14.451   7.144   5.877 -0.0441 -0.2435  0.0272
21191W        W36322  13.501  17.778  12.979 -0.3013 -0.0005  0.0745
21192W        W36323   9.459   2.169  11.282 -0.1332  0.1841 -0.0621
21193W        W36324   1.860  10.491  12.886  0.0373 -0.3426  0.0610
21194W        W36325  12.976  16.456  11.955 -0.0797  0.4727 -0.0454
21195W        W36326   4.374  16.564  14.683  0.1508 -0.0469  0.5084
21196W        W36327  12.539  17.549  13.798  0.1554 -0.3196  0.0481
21197W        W36328   9.835  11.195   2.975 -0.1567  0.1431  0.2179
21198W        W36329  13.041  18.334   5.121 -0.2776 -0.4908 -0.0700
21199W        W36330   6.900  18.196  12.072 -0.0832  0.2176  0.3567
21200W        W36331  13.091   2.225  14.950 -0.1394  0.0938  0.0767
21201W        W36332   7.758   3.984  11.733  0.1923 -0.0088 -0.2158
21202W        W36333  16.224  15.542  10.711 -0.0603  0.0960 -0.1587
21203W        W36334  12.166   4.686   2.374  0.1021  0.0841  0.0744
21204W        W36335   9.505  17.418   5.176  0.0872  0.1638 -0.3149
21205W        W36336   4.346   9.786   6.096 -0.0702  0.1886  0.0008
21206W        W36337  10.542   9.716   0.057 -0.1164 -0.0225  0.0115
21207W        W36338  15.056   2.366   4.540  0.3056 -0.0994 -0.3097
21208W        W36339  16.987  11.063  11.578  0.1035 -0.4316  0.0726
21209W        W36340  18.279   6.081   5.118  0.0806 -0.2484 -0.0378
21210W        W36341   7.106   4.523  16.019 -0.2056 -0.1549 -0.0921
21211W        W36342   3.153   5.628  11.260  0.1281 -0.0509  0.0696
21212W        W36343  16.214  12.233   5.465 -0.3959 -0.3308 -0.0325
21213W        W36344  15.768   9.103  14.859 -0.3537  0.0777  0.0787
21214W        W36345   5.976  15.646   2.696  0.2578 -0.1474 -0.0166
21215W        W36346  13.951   7.867  12.860  0.0506  0.0349  0.1908
21216W        W36347  16.130  16.088   5.018 -0.0322 -0.1907  0.3079
21217W        W36348   6.315   9.938   1.796 -0.0009 -0.1560 -0.0382
21218W        W36349   7.571   9.079   2.378 -0.0762 -0.2119  0.1625
21219W        W36350  13.989   0.780  10.156 -0.2241 -0.0296 -0.0860
21220W        W36351  11.011   0.166  13.579  0.2901 -0.2477  0.0415
21221W        W36352  14.751  18.292   2.118 -0.1418 -0.0773 -0.1214
21222W        W36353   3.834  13.733  11.130 -0.2293 -0.1402 -0.2022
21223W        W36354  17.887   3.307   3.923 -0.0925 -0.2319 -0.0145
21224W        W36355   4.285   5.282   5.242  0.2190 -0.1413  0.0923
21225W        W36356   9.944   1.791   1.776  0.0958 -0.2972 -0.0762
21226W        W36357   7.649   3.891   2.503 -0.0428  0.2176  0.0596
21227W        W36358   0.575   6.175  13.263  0.0496  0.2272  0.0584
21228W        W36359   4.244  13.634  11.390 -0.0863 -0.1677  0.0715
21229W        W36360   4.374   0.801  15.109  0.0594  0.0597  0.0596
21230W        W36361  17.512   5.512   4.174  0.2168  0.2144 -0.0007
21231W        W36362   9.469   8.628   1.086 -0.2826  0.0451 -0.0095
21232W        W36363   2.973   2.053   3.007 -0.4747 -0.1747  0.0182
21233W        W36364   2.992  11.816  12.617  0.0340 -0.0628  0.0421
21234W        W36365  15.915  12.109   2.956  0.1920  0.0302  0.0828
21235W        W36366  11.147   7.498  16.020 -0.1138  0.1202  0.1062
21236W        W36367   4.828  12.130  11.549 -0.1626 -0.3536  0.3392
21237W        W36368  12.100  10.833   5.007 -0.1765  0.3472  0.0259
21238W        W36369  17.750   1.474   3.734 -0.1234  0.3536 -0.0073
21239W        W36370  13.167   2.493  12.144 -0.0234 -0.1848 -0.2256
21240W        W36371   7.964   3.712  11.095 -0.0766 -0.0147 -0.1167
21241W        W36372   6.499   7.134   2.666 -0.0874 -0.0406  0.2206
21242W        W36373  17.939  14.826   5.322  0.1916 -0.0929 -0.2887
21243W        W36374  10.525   1.288  13.663  0.0023 -0.2478  0.0306
21244W        W36375  17.336  10.644  11.444 -0.0063 -0.0184  0.0860
21245W        W36376  14.678  17.119  15.729  0.2150  0.0809 -0.1187
21246W        W36377  15.034  13.901  15.392 -0.2945  0.1011  0.4664
21247W        W36378  16.880   4.365   2.403 -0.0579 -0.0714  0.0120
21248W        W36379   7.092   9.299  15.506 -0.0515  0.0719 -0.4672
21249W        W36380  15.112  14.640   4.237 -0.0315  0.1954  0.1313
21250W        W36381  17.508   7.349   5.253 -0.1407  0.0127 -0.0521
21251W        W36382   6.987  12.021  10.506 -0.1564 -0.0822 -0.0140
21252W        W36383   8.954  14.787  12.016  0.3254 -0.0979 -0.0252
21253W        W36384   4.345   5.471   5.741 -0.0128  0.1762  0.0278
21254W        W36385   2.167   4.794   2.112 -0.1101 -0.0356 -0.0359
21255W        W36386   1.476   6.971   1.328  0.0557 -0.0276  0.2191
21256W        W36387  13.509   0.672  13.088  0.1312  0.0937 -0.1484
21257W        W36388   5.108  14.976   1.088 -0.1012  0.1268  0.0366
21258W        W36389  17.945   4.622   0.834  0.1443 -0.0727 -0.1843
21259W        W36390  13.459   9.811  12.640  0.1403 -0.2759  0.1922
21260W        W36391  10.570   3.375   0.196  0.0125 -0.0732 -0.2801
21261W        W36392  15.364   1.890   4.635  0.1056 -0.1459 -0.0588
21262W        W36393   3.798   5.832   4.502  0.0070  0.0443 -0.2089
21263W        W36394   2.581   0.491  12.786  0.4429 -0.0691 -0.0287
21264W        W36395  14.900  12.437   4.342  0.0598 -0.2561  0.0793
21265W        W36396   5.552   3.407   3.314  0.0017 -0.0896 -0.0854
21266W        W36397   0.897   7.872   0.028  0.1785  0.1006 -0.1152
21267W        W36398  11.563  13.723  11.861 -0.0381  0.3769  0.2373
21268W        W36399  13.345  13.646  15.160  0.2319 -0.0451 -0.1661
21269W        W36400   9.506   8.194  14.176 -0.2315  0.1213  0.4199
21270W        W36401   6.404   6.762  11.387  0.0598  0.2306  0.3275
21271W        W36402   2.756  11.997  13.535  0.4653 -0.1840  0.1901
21272W        W36403   2.133  12.551   4.401  0.0774 -0.0360 -0.2104
21273W        W36404  17.794   1.736  15.251 -0.1444 -0.2577  0.3174
21274W        W36405  16.812   9.248  14.269  0.0883 -0.0060  0.2764
21275W        W36406   4.156   2.399   1.448  0.1092  0.1811  0.3155
21276W        W36407  10.306   6.877   5.103 -0.0578 -0.2781 -0.0124
21277W        W36408  17.788   0.895   0.702 -0.0395 -0.0388  0.2515
21278W        W36409  13.330   8.210   4.049 -0.0777  0.1260  0.1717
21279W        W36410   2.481   5.889   1.984  0.0190  0.0108 -0.0245
21280W        W36411   7.932   8.798   0.382  0.0828 -0.0799 -0.0159
21281W        W36412   0.666  10.230   4.403  0.0334  0.1222  0.1853
21282W        W36413   8.590   8.130   0.719 -0.1155 -0.2236  0.2228
21283W        W36414   5.232   6.861   3.306 -0.3328  0.3193 -0.1638
21284W        W36415   1.406   0.159   0.317 -0.0764 -0.0160  0.0732
21285W        W36416   6.660   5.979  13.925 -0.0427  0.2926 -0.1661
21286W        W36417   1.744  12.848   0.826  0.0060 -0.1931 -0.2658
21287W        W36418   4.891  17.598  12.458 -0.0071 -0.0703 -0.1612
21288W        W36419   7.841  10.245   0.626 -0.1816 -0.0716  0.1439
21289W        W36420  12.265   3.913  11.827 -0.1977  0.2530 -0.1713
21290W        W36421   9.146  16.107   0.334 -0.0482  0.1056 -0.2228
21291W        W36422  11.110   8.019  11.354 -0.1789 -0.0805  0.3262
21292W        W36423  12.557  14.718  12.610 -0.0055  0.2175 -0.1713
21293W        W36424  17.877   7.849   3.252  0.3274 -0.1628  0.0870
21294W        W36425  11.444   0.328  15.537  0.0134 -0.2862 -0.0870
21295W        W36426  13.899   7.060   0.174 -0.1433  0.4963 -0.2372
21296W        W36427   4.806   8.262   4.396  0.0731  0.1665 -0.0623
21297W        W36428  10.603   6.596   3.299  0.1183 -0.1393 -0.3107
21298W        W36429  15.425  10.436  12.461 -0.1885  0.0571  0.4375
21299W        W36430   6.177  15.746  15.055  0.0696  0.1625 -0.3105
21300W        W36431   4.150   9.673  16.002 -0.0747 -0.2100  0.0562
21301W        W36432  14.352  12.877  11.902 -0.3646  0.0329 -0.1758
21302W        W36433  13.179  13.744   3.729  0.2602  0.0279 -0.1003
21303W        W36434   4.108  17.391   1.937  0.2263 -0.1077  0.0800
21304W        W36435  11.220  11.565  13.721  0.1181 -0.0307  0.2555
21305W        W36436   3.090   8.485   4.607  0.5183 -0.0302  0.2214
21306W        W36437   9.985   0.605   5.298 -0.0540  0.0081 -0.1354
21307W        W36438   5.485   9.874  13.054  0.0537  0.0564  0.2186
21308W        W36439   1.861  12.427  12.236 -0.1438  0.1029 -0.0456
21309W        W36440  13.098   9.756  12.987 -0.2657 -0.1130 -0.2652
21310W        W36441  16.706   0.534  11.397 -0.5486  0.4036  0.4898
21311W        W36442   8.538   7.365  13.545 -0.1745  0.1468  0.0636
21312W        W36443   2.731   5.851  13.258 -0.1354 -0.0142  0.1005
21313W        W36444   7.212   3.376  14.811  0.0698 -0.1902  0.0875
21314W        W36445  16.970   3.993  13.576 -0.0455 -0.2324  0.1340
21315W        W36446   4.305   0.055   1.524 -0.5121  0.2738  0.1972
21316W        W36447   3.855   6.819   2.754 -0.0396 -0.1497  0.0957
21317W        W36448  15.591   3.183   1.604  0.2639  0.2959  0.1068
21318W        W36449  16.612  11.222  12.424  0.0398 -0.1103  0.1212
21319W        W36450   1.467  13.077  13.902  0.1118  0.2033 -0.0816
21320W        W36451   3.453   1.152  12.650  0.1833  0.0874  0.1266
21321W        W36452   1.693   0.514  14.776  0.0052  0.0436 -0.0804
21322W        W36453   5.960   8.034  15.187  0.0363  0.1312 -0.4170
21323W        W36454  14.408   8.298  15.551  0.3275  0.0073 -0.1821
21324W        W36455   0.262   2.549   4.988 -0.2571 -0.2652 -0.0539
21325W        W36456   2.326  14.915   1.720  0.0160 -0.0303  0.1908
21326W        W36457   5.806   9.203   5.690 -0.1753 -0.1678 -0.1808
21327W        W36458   2.367  13.387   1.381 -0.1415 -0.0364  0.0409
21328W        W36459  16.672   1.323   0.536 -0.4308 -0.0054  0.1961
21329W        W36460   7.693   4.250  13.195  0.0444  0.1700  0.0585
21330W        W36461   6.269   7.726   3.606 -0.3051 -0.1216 -0.1593
21331W        W36462  16.211   6.294   2.775  0.2127 -0.2238 -0.0156
21332W        W36463  11.596   3.282   1.479  0.1255  0.0207 -0.0058
21333W        W36464   8.536   7.655  15.768  0.2618 -0.1990 -0.0377
21334W        W36465   9.651   3.826  12.074 -0.0644  0.1152 -0.1439
21335W        W36466  10.782  17.174  13.420 -0.0389 -0.3721  0.1775
21336W        W36467  15.390   4.825   1.188  0.0733  0.3422 -0.1999
21337W        W36468  13.371   6.719   3.248 -0.1171 -0.0528 -0.1798
21338W        W36469   4.185   7.466   1.644  0.1042  0.0695 -0.2827
21339W        W36470  11.319   6.663  13.998 -0.2692 -0.1916  0.2075
21340W        W36471  11.285   7.099   0.959  0.1879 -0.0473  0.0746
21341W        W36472   8.902   8.216   6.959 -0.1574 -0.3064 -0.4521
21342W        W36473  17.776  14.908  11.012 -0.0933 -0.2966  0.0065
21343W        W36474  16.263   7.076   1.476 -0.1456  0.4467  0.2204
21344W        W36475   7.672  14.493  12.682 -0.0666 -0.3330 -0.0703
21345W        W36476   1.108   1.587  15.824  0.0647  0.0292 -0.0421
21346W        W36477  11.474  13.398   2.993 -0.0667  0.1120 -0.0416
21347W        W36478   9.915   7.903   0.114  0.3005 -0.0827 -0.0094
21348W        W36479   5.311  15.479  12.610 -0.1532  0.1698 -0.0258
21349W        W36480  12.899  16.936  13.986 -0.3597 -0.2034 -0.0471
21350W        W36481  10.087  17.847   2.221  0.1443 -0.0053  0.1694
21351W        W36482   5.733   6.547  13.060  0.1956  0.2097 -0.3666
21352W        W36483  17.247  12.373   9.864  0.0640 -0.0424 -0.3491
21353W        W36484   5.356   2.531   3.738  0.1703  0.0237 -0.4203
21354W        W36485  11.869  12.596   6.019  0.0600  0.1147  0.1615
21355W        W36486   4.970   3.699  10.345  0.3483  0.0218  0.0806
21356W        W36487   6.974  15.555  15.517  0.1817  0.1298  0.0039
21357W        W36488   5.110  14.678  12.856  0.2564  0.0011  0.2022
21358W        W36489  14.948  16.897   0.811 -0.0427  0.1732  0.0986
21359W        W36490   2.677   8.094   0.536 -0.5300  0.0197  0.0203
21360W        W36491   0.720   0.473   2.022  0.0217 -0.0313 -0.1674
21361W        W36492   9.347  12.390   2.961 -0.2485 -0.1240 -0.0216
21362W        W36493  11.705   1.419  11.986  0.0719 -0.0827  0.1081
21363W        W36494  11.394  15.393  11.500 -0.1651 -0.1844 -0.1426
21364W        W36495   5.791   6.883  16.024  0.2558  0.1105  0.0349
21365W        W36496   1.751   5.922   4.831 -0.0278 -0.2450 -0.1354
21366W        W36497  14.894   8.356   1.195 -0.2727  0.0468  0.1643
21367W        W36498   4.556   2.494  14.704 -0.2779  0.2291 -0.0779
21368W        W36499  12.288  14.051   3.524 -0.2886  0.0843  0.4933
21369W        W36500   5.559   5.444  11.818 -0.0693  0.1708 -0.0710
21370W        W36501  13.151   8.379   3.416 -0.0116  0.0778 -0.2382
21371W        W36502   0.128   2.908  15.871 -0.1739 -0.1382 -0.0840
21372W        W36503   0.591   4.641  15.366 -0.1658 -0.1253 -0.0193
21373W        W36504   2.091   0.848  15.860 -0.0818 -0.1566 -0.0588
21374W        W36505  13.386   2.713  11.682 -0.0410  0.2063  0.2590
21375W        W36506  10.477  14.162   2.330  0.2999 -0.4171 -0.0371
21376W        W36507  12.548  13.270  11.420  0.3931 -0.1336  0.0264
21377W        W36508  15.269   8.087   0.006 -0.0998 -0.5172 -0.0829
21378W        W36509   6.934  10.512  12.496 -0.3336 -0.0581 -0.3186
21379W        W36510   7.079  15.065  14.614  0.3765 -0.0257 -0.3296
21380W        W36511   1.456  16.528  11.342  0.1565  0.0939 -0.0606
21381W        W36512  17.831   4.055  13.526 -0.0583  0.3320 -0.0325
21382W        W36513  18.019  12.958   1.014  0.0042 -0.0447 -0.2007
21383W        W36514  16.239   4.244   1.929 -0.2370  0.2110  0.2886
21384W        W36515   0.099   3.893  12.594  0.1316 -0.0782  0.1072
21385W        W36516   8.717  13.448   3.152 -0.0287 -0.1035  0.0843
21386W        W36517  11.038   2.987  14.393 -0.2199 -0.0443 -0.3712
21387W        W36518   9.898  18.192   0.697 -0.0290  0.2437 -0.3351
21388W        W36519  13.457  15.329   1.601 -0.1948 -0.1744 -0.3640
21389W        W36520  15.309   4.666  11.196  0.1263  0.1181 -0.0628
21390W        W36521   8.498   0.328  14.267  0.1111  0.1438 -0.3070
21391W        W36522   1.686   7.131   4.266  0.5126 -0.1147  0.1344
21392W        W36523  13.590  14.666  12.527 -0.0411 -0.2895  0.4755
21393W        W36524   3.045   9.610  14.507 -0.1981 -0.1234  0.1419
21394W        W36525   1.626  11.149   2.119  0.3175  0.1475 -0.1339
21395W        W36526  13.458   1.721   1.389 -0.2110 -0.0588 -0.2270
21396W        W36527   6.445  16.933  11.523 -0.0754 -0.0537  0.1889
21397W        W36528   6.571   2.010  10.897 -0.1345  0.0622  0.0279
21398W        W36529  12.505  13.460  12.260  0.0305 -0.0483  0.2582
21399W        W36530   8.965  14.835   2.335  0.1564 -0.0478  0.0348
21400W        W36531  14.821  16.094  14.175  0.0127 -0.1924 -0.0063
21401W        W36532   6.991  15.165  12.359 -0.1041  0.3617 -0.0360
21402W        W36533  13.740  16.385   0.214 -0.1123 -0.1307  0.0647
21403W        W36534   9.592   5.131  14.753  0.1086 -0.0086  0.2641
21404W        W36535  14.113  15.476   0.320  0.2222  0.1240  0.3228
21405W        W36536  16.059  16.876  15.729  0.1837 -0.2782 -0.1546
21406W        W36537   8.436  10.492  11.465 -0.1825  0.1978  0.3821
21407W        W36538   8.169  13.051   1.141 -0.0814 -0.1868  0.3417
21408W        W36539  15.759  17.593  11.075  0.0681 -0.0310  0.2031
21409W        W36540   1.209   1.227  14.665  0.3334 -0.4379  0.3579
21410W        W36541  15.766   5.421   6.168  0.0590  0.1153 -0.0593
21411W        W36542  11.882  15.295   3.971  0.3885 -0.0546  0.2229
21412W        W36543   2.641  18.405   0.664  0.0342 -0.0510  0.0638
21413W        W36544   7.583   5.873  16.084  0.2942 -0.1693  0.0370
21414W        W36545   6.726   5.919  11.824 -0.1570 -0.0535 -0.1857
21415W        W36546  16.487  12.688  10.184  0.1024 -0.0663 -0.1719
21416W        W36547  15.202   2.556  14.798 -0.1131 -0.1769 -0.0168
21417W        W36548   4.306   9.203   0.452  0.2275  0.0719 -0.0466
21418W        W36549   6.812  14.493  10.732  0.2298  0.1800  0.1032
21419W        W36550   9.333   3.030  15.271  0.1041  0.0773  0.1228
21420W        W36551   3.471  13.790  12.659  0.2025  0.1787  0.2088
21421W        W36552  17.979  12.326  11.839  0.1571  0.3011 -0.0764
21422W        W36553  13.850   6.641   3.420  0.0357 -0.0822  0.2260
21423W        W36554   6.430   6.599  15.226  0.0021  0.1447  0.4069
21424W        W36555  13.876   8.225  12.488 -0.3112  0.2314  0.1453
21425W        W36556   7.780  18.267   3.000 -0.1673 -0.1065 -0.0856
21426W        W36557   7.598   9.069   1.333  0.3480 -0.2468 -0.0273
21427W        W36558  11.981  16.853   5.805  0.1031  0.0305  0.0198
21428W        W36559   5.090   3.406   0.440  0.1764  0.1202 -0.1753
21429W        W36560   7.211  11.625   0.888 -0.0364  0.0370  0.0247
21430W        W36561  10.395   6.849  14.591  0.2000  0.0268 -0.0072
21431W        W36562   4.202   8.364   5.666  0.2814 -0.1718 -0.2982
21432W        W36563  12.649   8.016   5.996  0.2117 -0.2868 -0.0263
21433W        W36564   9.791   2.042  12.997  0.0347 -0.2560  0.1551
21434W        W36565   9.775  11.821   5.886  0.1060 -0.3539 -0.1451
21435W        W36566   1.655   5.538  10.266  0.0530  0.2772 -0.0997
21436W        W36567  13.830  15.130   2.823  0.0091 -0.1995 -0.1238
21437W        W36568   9.692   9.908   3.553 -0.0919  0.4890  0.1997
21438W        W36569  11.153   7.015  15.111 -0.1658  0.0509 -0.0433
21439W        W36570   9.736   2.389   2.151  0.1970  0.2697  0.1403
21440W        W36571   0.840   3.073  14.031  0.1648  0.2739 -0.6356
21441W        W36572  14.774  16.558  13.299  0.0404 -0.0211 -0.0809
21442W        W36573  11.782   2.224   4.538 -0.0906  0.2653  0.1722
21443W        W36574   4.610   0.578  10.327 -0.1361 -0.1303 -0.0847
21444W        W36575   8.718   0.392   4.552 -0.2657  0.1448  0.3127
21445W        W36576   4.720   8.648   3.605 -0.3703 -0.0427 -0.1103
21446W        W36577   1.081   1.510  10.577  0.0915 -0.4391  0.2160
21447W        W36578  18.427  16.392   2.737 -0.2135  0.1815  0.1044
21448W        W36579   2.882  12.404  13.848 -0.0226 -0.1014  0.0810
21449W        W36580   9.877  17.941  13.161  0.0659  0.1164 -0.0715
21450W        W36581   5.145   8.280   2.924  0.4920 -0.1284 -0.2180
21451W        W36582   6.569  14.398   3.450 -0.0478 -0.2096  0.2287
21452W        W36583   3.855   7.294  13.284  0.0117  0.0725  0.1143
21453W        W36584  15.881  12.164   0.278  0.1610  0.2427 -0.1170
21454W        W36585  15.270  10.551  15.859  0.1748  0.1932  0.1941
21455W        W36586   1.054   8.877   2.282 -0.2316  0.1623 -0.0659
21456W        W36587   5.532  12.912   1.439  0.2777 -0.1703  0.1490
21457W        W36588   2.157   1.033  13.425  0.0122  0.3514 -0.2910
21458W        W36589  12.561   0.790   4.671  0.0731 -0.1781  0.0028
21459W        W36590   2.267  12.454  14.949  0.0404  0.1055 -0.0996
21460W        W36591  14.752   6.021  15.195  0.1285 -0.3399 -0.1993
21461W        W36592   2.583  14.564  12.853  0.1443 -0.0952  0.0647
21462W        W36593  17.556  17.569  14.936 -0.1178  0.2373 -0.0134
21463W        W36594  15.676   2.396  10.421 -0.1650 -0.3466 -0.1486
21464W        W36595  18.268   7.630   3.467 -0.0271 -0.0897 -0.0147
21465W        W36596  10.698   6.380  12.095  0.1405  0.1838 -0.1786
21466W        W36597   6.200   6.384   3.018 -0.1340  0.1183 -0.0387
21467W        W36598   1.728  16.302   4.655  0.0451  0.1273 -0.1970
21468W        W36599   4.854   1.977  11.371  0.2741 -0.4265  0.0947
21469W        W36600  12.593  11.854  12.336 -0.1242  0.0800  0.3149
21470W        W36601  11.389  14.651   4.088 -0.1221  0.2880  0.0472
21471W        W36602  17.775  14.408  11.326 -0.2404  0.3809 -0.2053
21472W        W36603  13.682  11.562  11.877  0.1362  0.0201 -0.1759
21473W        W36604   0.110  13.536   5.066 -0.0622 -0.1649 -0.2322
21474W        W36605  13.659  13.677   4.040  0.0624 -0.0403 -0.0209
21475W        W36606  16.725   5.319  12.505 -0.1027  0.1890 -0.1348
21476W        W36607   7.247   6.644   4.685  0.0063 -0.2611  0.0821
21477W        W36608  10.872  16.398   5.161  0.1546 -0.0158 -0.4639
21478W        W36609   4.864  16.049  15.298 -0.1765  0.0037 -0.0818
21479W        W36610  17.826  12.049  11.491 -0.1065  0.2377  0.1267
21480W        W36611   0.273   3.113  10.185  0.0401  0.0674 -0.3052
21481W        W36612  14.230  16.804  10.263 -0.0641 -0.1438  0.2019
21482W        W36613   3.539   0.176   2.198  0.4366  0.1528  0.0642
21483W        W36614   4.125  10.223  11.471  0.4413 -0.1468  0.2254
21484W        W36615   3.096   9.362   0.994 -0.3226 -0.1414  0.2276
21485W        W36616   4.779  11.660   1.114 -0.0662 -0.1260 -0.1809
21486W        W36617  10.166   9.968   3.761 -0.1804  0.1269  0.0029
21487W        W36618  10.163   8.441   4.381 -0.1761 -0.0607  0.2666
21488W        W36619   5.983  11.370   2.721  0.1157 -0.0259  0.3600
21489W        W36620   8.430   8.922   6.514  0.2910 -0.2896 -0.3919
21490W        W36621   1.055   0.269   4.405  0.0977 -0.3501  0.2992
21491W        W36622   7.090  17.560  14.154  0.0442 -0.0816 -0.0258
21492W        W36623   7.632  18.210   1.132 -0.4381 -0.1971  0.0423
21493W        W36624   8.521  16.420   4.968 -0.0762 -0.0133 -0.2302
21494W        W36625  16.286  12.809  13.371  0.4394  0.2570 -0.0145
21495W        W36626   8.975   4.483   0.602 -0.2588 -0.1418  0.0550
21496W        W36627  14.348   7.810   2.586  0.0450  0.1598 -0.1405
21497W        W36628  11.419  10.354   6.093  0.1950  0.0279  0.2923
21498W        W36629  11.460   4.385  14.741  0.1343 -0.1707 -0.1667
21499W        W36630  13.474  18.002  11.902 -0.1732 -0.1052 -0.3981
21500W        W36631   2.265  11.473   1.834 -0.3456  0.0612  0.0783
21501W        W36632  10.550  14.180  11.108  0.0301 -0.1491  0.0828
21502W        W36633   4.977  11.093  14.680 -0.1925 -0.1932 -0.0536
21503W        W36634  14.520   8.647   5.342 -0.0319 -0.1197  0.1879
21504W        W36635   3.935   8.658  12.983 -0.1514 -0.0662 -0.1342
21505W        W36636  16.470  18.306   2.929  0.0368  0.1363 -0.0447
21506W        W36637  15.264  17.357  12.955 -0.1517  0.0093 -0.2283
21507W        W36638  15.761   1.625   3.823 -0.0407  0.0825 -0.1578
21508W        W36639   9.451   2.580  14.459 -0.3494 -0.1436  0.1980
21509W        W36640   0.888  12.144   3.667  0.0831 -0.2399 -0.2068
21510W        W36641  16.091   3.077  15.999 -0.1266 -0.0039  0.1832
21511W        W36642  14.814   0.641   2.554  0.1355  0.1727  0.3327
21512W        W36643  10.083   2.671  12.762  0.2430 -0.0612 -0.0237
21513W        W36644   6.942  13.289  11.624  0.1068 -0.0096  0.3082
21514W        W36645   0.453   0.905   4.592  0.0710  0.2163 -0.0181
21515W        W36646   3.470   8.263   0.136  0.3801  0.0182 -0.0382
21516W        W36647  17.901   3.156   2.731 -0.0914  0.2321 -0.1228
21517W        W36648   4.942   9.640   6.259 -0.0436  0.1047 -0.1572
21518W        W36649   7.234   0.243   5.839 -0.2547 -0.1098  0.0334
21519W        W36650   3.597  11.194   1.355  0.1587  0.0951  0.0324
21520W        W36651  14.554  17.170   4.344  0.2462 -0.2341 -0.0257
21521W        W36652   2.323   3.513   5.358 -0.1517  0.1177 -0.1670
21522W        W36653  14.853  15.300   2.569  0.0886 -0.1582 -0.1676
21523W        W36654   7.364   0.561   1.843 -0.2038 -0.0744 -0.1121
21524W        W36655  10.111  11.027  11.865  0.3710 -0.1449 -0.0601
21525W        W36656  15.998   0.225  15.198 -0.2692  0.1945 -0.0408
21526W        W36657  10.179  16.653  15.581  0.2013 -0.1020  0.1502
21527W        W36658  11.943   8.974   5.142  0.1710  0.0750 -0.2739
21528W        W36659   7.540   8.655   5.683  0.0934  0.1242 -0.0891
21529W        W36660  11.840   8.011   0.031  0.0578  0.1746 -0.3628
21530W        W36661  17.656   0.109   4.181 -0.0046 -0.1406 -0.0078
21531W        W36662   8.378   0.467   1.781  0.3616  0.1042 -0.0649
21532W        W36663  15.376   4.998   2.026  0.0534  0.2607  0.0888
21533W        W36664   1.907   3.756  15.151 -0.3862 -0.1148  0.1801
21534W        W36665   2.531   9.401  15.374 -0.1256  0.0483  0.0352
21535W        W36666  10.485   2.269  14.237 -0.1334  0.1404  0.1934
21536W        W36667   1.034  15.953   0.835  0.2141 -0.2378  0.1991
21537W        W36668   9.036   0.824   4.535 -0.1674  0.1356  0.1184
21538W        W36669  13.729   5.607  15.308  0.1563 -0.1000  0.1728
21539W        W36670   2.055  10.187  16.085  0.1844 -0.1791 -0.0898
21540W        W36671  12.586  11.897  11.794 -0.2042 -0.1370 -0.0541
21541W        W36672  10.958   1.537  12.231  0.0872 -0.1820 -0.2888
21542W        W36673  13.830   3.757  15.647  0.0453  0.2151  0.4489
21543W        W36674  11.255   5.940   5.584  0.2360 -0.1475 -0.1799
21544W        W36675  10.570   7.000  13.570  0.2707  0.2308  0.0811
21545W        W36676   0.215  11.316   3.932  0.0122  0.0695 -0.0484
21546W        W36677   5.788  18.450  13.528  0.1494 -0.0274  0.3280
21547W        W36678  11.404   5.114  12.696  0.0020 -0.0273 -0.2556
21548W        W36679  18.039   6.858  10.859  0.0493  0.0178 -0.1946
21549W        W36680  11.697   4.249   3.390 -0.0498 -0.2454  0.1707
21550W        W36681  16.482   3.254  13.815 -0.3922 -0.1709 -0.0473
21551W        W36682  13.906   1.286  12.787 -0.0865  0.0986  0.1587
21552W        W36683   9.336   3.863  12.542 -0.2392 -0.2154 -0.0747
21553W        W36684   8.222   0.417   2.324  0.1937 -0.0375 -0.1767
21554W        W36685  10.982  16.359   0.934  0.1945  0.1153 -0.1349
21555W        W36686  17.234  16.790  15.790  0.1371  0.1334  0.1673
21556W        W36687   1.962   7.843  11.340 -0.1495 -0.4065  0.3373
21557W        W36688  12.343  10.646  10.292  0.3613 -0.1345  0.1921
21558W        W36689   4.182   5.699   1.626  0.2172 -0.2633  0.0785
21559W        W36690   4.188   7.383   0.394  0.0389 -0.0152  0.1516
21560W        W36691   6.196   9.004  15.968  0.0384  0.2159 -0.0730
21561W        W36692   5.371   5.328   5.274  0.1732 -0.3357 -0.0347
21562W        W36693  17.456  15.420  16.018 -0.1938  0.0812 -0.1425
21563W        W36694  10.749   2.186   5.719 -0.0978 -0.1472  0.1013
21564W        W36695  15.692  15.250   5.342  0.0446 -0.2250  0.0745
21565W        W36696  14.063   0.009   3.366  0.0026 -0.3180  0.0060
21566W        W36697   2.017  17.180   2.192 -0.0854 -0.0351  0.0894
21567W        W36698  12.636  15.144  13.475 -0.0688  0.1017  0.0955
21568W        W36699  12.368   8.025  14.382 -0.3121  0.2204 -0.1312
21569W        W36700   5.555   7.444  13.135 -0.0498 -0.2054  0.0807
21570W        W36701   5.767   2.667  14.200 -0.1403 -0.0039  0.1282
21571W        W36702  10.667  10.007  14.368 -0.0567 -0.0211  0.1556
21572W        W36703   8.933  12.870   3.868 -0.0433  0.2010  0.0493
21573W        W36704   3.614  16.006   1.476  0.3569  0.1785  0.1507
21574W        W36705   0.317  11.067  15.613 -0.1420 -0.0690  0.1080
21575W        W36706   0.310   1.512  11.743  0.0408 -0.1546 -0.0310
21576W        W36707   2.736  15.698  10.118  0.2973  0.0085 -0.2230
21577W        W36708   5.809   9.757  16.014  0.2097 -0.0095  0.4413
21578W        W36709   8.332   1.372  14.418  0.2752  0.0402 -0.0919
21579W        W36710   3.633   9.913  10.745  0.3140  0.0954 -0.2217
21580W        W36711   9.267   6.648   2.865  0.2896 -0.2578  0.0337
21581W        W36712  15.885  10.649  15.200  0.3552 -0.2651 -0.0958
21582W        W36713  17.920  13.661  12.774 -0.3703 -0.1968 -0.1698
21583W        W36714   7.759  10.285   5.106 -0.1041 -0.4550 -0.5157
21584W        W36715  15.346   0.963  13.275 -0.0623  0.0468 -0.0077
21585W        W36716   6.622   2.780   0.160  0.3124 -0.0928 -0.0826
21586W        W36717   6.544   7.581  13.133 -0.0013  0.4875  0.2919
21587W        W36718  14.100   0.001   4.271 -0.0468 -0.2149 -0.2803
21588W        W36719   3.649   0.024   0.291 -0.0385  0.0953  0.0917
21589W        W36720   2.201   7.121   1.427  0.0653 -0.0475  0.1178
21590W        W36721  10.267   7.635  13.008 -0.1246 -0.1762 -0.1524
21591W        W36722   2.511  17.732  10.236  0.1996 -0.0329  0.0219
21592W        W36723  10.322  11.338   5.056 -0.0634 -0.1724  0.0205
21593W        W36724  16.735  13.546   4.014  0.4128  0.1727  0.2932
21594W        W36725  12.247  15.180   5.128  0.0583 -0.0237 -0.2733
21595W        W36726  11.063   7.921   5.333  0.1816 -0.5042  0.0161
21596W        W36727  15.154  13.737   4.166 -0.3905 -0.0962  0.1110
21597W        W36728   7.286   3.227  10.669  0.2844 -0.2401  0.1074
21598W        W36729   4.878  12.947   5.156 -0.3242 -0.2584 -0.2190
21599W        W36730  11.498   5.549  14.114 -0.1911 -0.1723 -0.1294
21600W        W36731   5.618  17.510  13.161 -0.1435 -0.0070 -0.0558
21601W        W36732   3.239   7.230  13.933  0.0217  0.3779 -0.1817
21602W        W36733   1.528  10.058  10.842 -0.0013  0.0407 -0.2551
21603W        W36734  14.576  11.828  14.054  0.3651  0.2233 -0.0036
21604W        W36735   3.241   0.680  11.990 -0.0599 -0.0920 -0.0808
21605W        W36736   4.038   0.195   3.392 -0.0491  0.0174 -0.0030
21606W        W36737   3.841   3.243  14.406  0.0767 -0.0594  0.0423
21607W        W36738  17.117   8.077  11.189  0.2276  0.0883 -0.1843
21608W        W36739   6.564   2.555  13.730  0.1500  0.1185 -0.0479
21609W        W36740   8.209   3.352  15.768  0.4115 -0.0514  0.0126
21610W        W36741   7.151  17.909  14.994 -0.1919  0.0022  0.0764
21611W        W36742  12.610  12.667   4.618 -0.0685 -0.5296 -0.2465
21612W        W36743  17.719  13.466  11.571 -0.1417 -0.0362 -0.2643
21613W        W36744   5.753  16.304  13.569 -0.0903 -0.0282 -0.1965
21614W        W36745   4.725  14.840   0.790  0.0861  0.1030 -0.1331
21615W        W36746   3.382   8.324  14.336  0.0074  0.2496 -0.1038
21616W        W36747   7.360   9.429   0.944  0.0657 -0.0115 -0.2793
21617W        W36748   9.097   4.116   0.271 -0.1262  0.0871  0.3751
21618W        W36749  13.796   6.074   0.005 -0.1414  0.1396  0.2629
21619W        W36750   5.484  14.693   1.298 -0.1437 -0.0343  0.0477
21620W        W36751   3.068   8.929   0.709 -0.0726 -0.1011 -0.0398
21621W        W36752   5.855  16.947  14.539  0.0742 -0.0031 -0.1110
21622W        W36753   9.959   5.997   1.054  0.2343 -0.3055  0.1294
21623W        W36754  17.723   9.991  12.241 -0.0204  0.3475  0.2220
21624W        W36755   4.148   4.137  14.350 -0.0730  0.0769 -0.0112
21625W        W36756   6.317  14.991  14.011 -0.0864 -0.0503 -0.0244
21626W        W36757  17.384   5.583  12.354  0.3747  0.2162  0.0889
21627W        W36758  18.192  14.043  11.355 -0.1737  0.1294  0.1955
21628W        W36759  12.492   1.624  14.545  0.0808 -0.2651 -0.2412
21629W        W36760   7.584  10.173   2.886  0.2592  0.3271 -0.0659
21630W        W36761   4.700   8.431  13.010 -0.0768 -0.0497 -0.3181
21631W        W36762   9.810  18.022  14.506  0.1300  0.1984  0.1461
21632W        W36763  18.332   9.838  12.946  0.0098 -0.2332 -0.2432
21633W        W36764  14.364   4.104   0.030  0.2566 -0.3233 -0.2811
21634W        W36765  14.999  14.890   0.256  0.3457 -0.3239 -0.1048
21635W        W36766  14.223   8.821  13.556  0.0262  0.0479 -0.2619
21636W        W36767  11.883  11.784   3.653 -0.0277  0.3494 -0.2514
21637W        W36768   8.033   4.492  13.480  0.2421 -0.1550 -0.0529
21638W        W36769   3.183  12.732  12.459 -0.0601 -0.0819 -0.6291
21639W        W36770  15.295   1.557   1.977 -0.0070  0.0382 -0.1397
21640W        W36771   0.057  12.592  15.822 -0.1461  0.2851 -0.1007
21641W        W36772   6.259   2.785   5.425  0.1629 -0.0907  0.1696
21642W        W36773  12.072  11.835  14.545  0.1507  0.2690  0.1749
21643W        W36774   4.175   3.083  15.357 -0.2501 -0.1298  0.2867
21644W        W36775  15.978   0.911  14.187 -0.1035  0.0825  0.0940
21645W        W36776   0.582   4.166  15.429 -0.1493  0.1235  0.1726
21646W        W36777   4.047   4.518  13.467 -0.0895  0.0514 -0.3597
21647W        W36778   2.837   8.150   2.795  0.1890 -0.0721  0.0407
21648W        W36779  11.918  17.925   3.226 -0.0250  0.2018 -0.1192
21649W        W36780   2.751  12.935  13.797 -0.0282  0.2074 -0.2244
21650W        W36781   5.773  14.846   4.848 -0.4708 -0.0569 -0.1016
21651W        W36782   1.355   0.806  12.470 -0.0381  0.0719 -0.2011
21652W        W36783  16.606   3.440   2.502 -0.2697  0.0845 -0.1519
21653W        W36784  15.145  14.697  12.787 -0.2555 -0.0356  0.1430
21654W        W36785   0.563   6.938   1.512  0.1796  0.1792 -0.0318
21655W        W36786   2.184  17.590  14.771  0.0473  0.0636 -0.2716
21656W        W36787   8.986   6.747  14.077  0.1213 -0.1890  0.0040
21657W        W36788   0.806   2.746   0.946  0.3175 -0.3414 -0.2783
21658W        W36789  14.072   2.479  12.083  0.0129  0.2587 -0.1448
21659W        W36790   2.341  11.534  16.060 -0.1139  0.1061 -0.2732
21660W        W36791   7.538   8.991   3.827 -0.1738 -0.0817  0.0649
21661W        W36792  16.374  13.494   1.604 -0.1301 -0.1006  0.0200
21662W        W36793  14.371   9.515  12.989  0.0317 -0.1718 -0.0866
21663W        W36794   6.244   4.630   0.890 -0.2711  0.1473  0.1410
21664W        W36795  17.423   1.846  11.803 -0.1869  0.0106 -0.0514
21665W        W36796  13.635  12.799   2.247 -0.2414 -0.0214 -0.2530
21666W        W36797  10.127  11.534   4.447  0.0962  0.0173 -0.0183
21667W        W36798   7.587   1.926   2.705  0.0836  0.3078  0.1161
21668W        W36799   1.045   4.155   3.764  0.2460  0.0855 -0.1463
21669W        W36800  14.743   4.843   3.185  0.2981  0.0878  0.4766
21670W        W36801   7.785  16.723  14.945 -0.3886  0.2019  0.0066
21671W        W36802  16.247  15.585  14.834 -0.2600  0.3722  0.0619
21672W        W36803  11.811   2.208  11.321 -0.0283 -0.1863 -0.1684
21673W        W36804  18.373   2.910   3.664 -0.0383 -0.1193  0.0595
21674W        W36805   8.238   0.558   3.933 -0.1996 -0.0435 -0.0604
21675W        W36806   4.100  11.017  15.100  0.2840 -0.0010  0.2168
21676W        W36807   7.786  11.413   2.961 -0.1204 -0.0327  0.1957
21677W        W36808  17.041   0.141  13.178 -0.2853 -0.3567 -0.2133
21678W        W36809  17.985  14.670   0.647  0.2964  0.1473  0.1136
21679W        W36810  10.971  11.090  15.743  0.2040  0.2104 -0.0992
21680W        W36811   0.660  11.277   5.267  0.1370 -0.0468 -0.0767
21681W        W36812   8.642   2.672   4.908  0.0092  0.1211 -0.1307
21682W        W36813  12.021  11.214  14.974  0.2930  0.0558  0.1083
21683W        W36814  17.417   0.650  15.546 -0.0140 -0.0988 -0.1343
21684W        W36815  14.448  17.401  12.806 -0.1003 -0.0402  0.0606
21685W        W36816   0.088  17.298  13.331  0.2859  0.0532 -0.3249
21686W        W36817   7.010   8.929   3.066 -0.1129 -0.1532 -0.3143
21687W        W36818  14.072   9.574  12.388 -0.3283 -0.0642  0.0346
21688W        W36819   2.852   5.585   1.727 -0.0176 -0.2741  0.0119
21689W        W36820  14.590   5.928   5.828 -0.1586  0.1404  0.1165
21690W        W36821  15.199  16.814   5.814  0.1823 -0.2054  0.1096
21691W        W36822   5.245   9.236  13.176  0.0420 -0.3618 -0.1305
21692W        W36823   6.664  14.024  13.480  0.0267 -0.1534  0.1144
21693W        W36824  14.890   5.920   0.825 -0.2689  0.1673 -0.0984
21694W        W36825   3.582   7.525  14.215  0.3520 -0.0013  0.3738
21695W        W36826   8.548   1.674   4.418  0.1541 -0.1277  0.4669
21696W        W36827   2.005  17.391  12.977 -0.1928 -0.1477 -0.0600
21697W        W36828   7.950   1.739  11.068  0.0037 -0.1833  0.0726
21698W        W36829  11.916   2.717  15.566  0.3879 -0.1991 -0.0509
21699W        W36830  11.684  13.254  12.816  0.0494  0.0042 -0.4355
21700W        W36831   5.559   0.824  11.207 -0.0954  0.2354 -0.4502
21701W        W36832  12.358  14.979   4.627  0.1023  0.0212 -0.0021
21702W        W36833   4.110  11.081  10.850  0.1389 -0.0951 -0.0547
21703W        W36834   9.549   8.301  14.609 -0.0111  0.2013 -0.3964
21704W        W36835  17.822   2.533  14.826  0.1850 -0.2123  0.0117
21705W        W36836   7.409  15.637  13.862 -0.0156  0.2056  0.1450
21706W        W36837   0.475  10.228   3.115  0.0381 -0.0656  0.1083
21707W        W36838  10.462   6.268   2.135 -0.1620 -0.1689 -0.1415
21708W        W36839  13.221   4.814  15.395 -0.0375  0.0760 -0.1702
21709W        W36840  16.458  18.413   1.101  0.2974 -0.3774 -0.0994
21710W        W36841   5.728   1.063  13.279  0.2541  0.3154  0.1676
21711W        W36842   6.494   2.066  12.255 -0.2742 -0.1939  0.5070
21712W        W36843   1.181   5.793  13.035  0.1692 -0.0307  0.2588
21713W        W36844   7.800   5.121   3.460 -0.4668 -0.1320  0.0542
21714W        W36845   9.063   7.835   0.720  0.1560 -0.0046  0.2046
21715W        W36846   6.274  11.144  10.126 -0.3572 -0.1576  0.1608
21716W        W36847  12.117   7.061  13.133  0.0621  0.1175 -0.1969
21717W        W36848   2.812  17.030  14.801  0.2203  0.2495  0.1091
21718W        W36849  11.204  15.435   0.758 -0.1723 -0.0110 -0.0498
21719W        W36850   9.094   9.013  14.533 -0.2520 -0.0867  0.2567
21720W        W36851  14.570  14.609   3.813 -0.1815  0.1529  0.0025
21721W        W36852  15.596   6.892  13.097 -0.3906  0.0229  0.1478
21722W        W36853   1.010   9.647   0.570 -0.0251 -0.1412  0.2297
21723W        W36854   6.270   6.400   0.619  0.1325  0.1019  0.2273
21724W        W36855  11.441   0.429   3.399 -0.2993  0.0007 -0.0365
21725W        W36856   4.337   6.137   5.933  0.2812 -0.4032 -0.0393
21726W        W36857   9.201   1.261   4.243  0.1945 -0.2375 -0.1487
21727W        W36858  10.760  17.858   0.248 -0.1096 -0.2604  0.1265
21728W        W36859  12.828  17.118   5.138 -0.1975  0.0492 -0.1533
21729W        W36860  12.396   3.238  15.432  0.1278 -0.2589 -0.0932
21730W        W36861  15.576  15.043   1.058  0.3053 -0.1772  0.1193
21731W        W36862   4.704  12.375   3.871  0.1089  0.0443  0.0210
21732W        W36863   3.282  17.198  14.776 -0.1132  0.0113  0.2950
21733W        W36864   6.977  11.894  14.175  0.2184  0.2648  0.0003
21734W        W36865   1.926   2.139   2.976  0.0810 -0.2447 -0.0565
21735W        W36866   2.252   9.738   3.327  0.1190 -0.0245 -0.0657
21736W        W36867   3.027  18.323  10.773 -0.1334  0.3256  0.2607
21737W        W36868   8.025  16.193  14.886 -0.0609  0.1424 -0.0151
21738W        W36869  17.307   6.132  12.593 -0.0145  0.2829  0.0643
21739W        W36870   2.334  14.355  11.119 -0.3855  0.2674 -0.0586
21740W        W36871  10.185  13.686  11.813  0.0850  0.1651 -0.0496
21741W        W36872   1.034   2.554   5.128 -0.1572  0.5975 -0.2649
21742W        W36873   6.114  12.655  14.619 -0.2781 -0.3282  0.0967
21743W        W36874  16.296   5.702  12.098 -0.1129 -0.2044  0.0253
21744W        W36875   0.303  13.519   0.826  0.1775  0.1935  0.0703
21745W        W36876   9.680  12.743  11.547  0.1087  0.1242 -0.0981
21746W        W36877  17.316  18.299   1.280  0.1843  0.0941  0.0394
21747W        W36878   1.773   1.168   2.969 -0.3434  0.2941  0.1421
21748W        W36879  13.930   9.461   3.958  0.1858 -0.4510  0.0932
21749W        W36880  17.561  14.684   2.354  0.0374  0.3155  0.1487
21750W        W36881  18.225   2.195   3.933 -0.3763 -0.0620 -0.0059
21751W        W36882  14.612   4.486  13.402  0.3064  0.0776  0.0163
21752W        W36883   3.632   4.499  11.525  0.1469  0.3397  0.2065
21753W        W36884   2.626  16.965  13.189  0.3364 -0.0985  0.1359
21754W        W36885  16.768  16.470  13.431 -0.0625 -0.1455 -0.1074
21755W        W36886   5.002   8.340   0.648  0.0953 -0.2687 -0.2236
21756W        W36887  13.370  18.469   5.461 -0.1060  0.1097  0.2676
21757W        W36888  16.621  16.234   4.814  0.1231  0.3784  0.0562
21758W        W36889  13.062  10.722   5.137 -0.1403 -0.1253 -0.1968
21759W        W36890   2.362  12.565   3.954 -0.0322 -0.0590  0.4570
21760W        W36891   7.997   6.639  12.851 -0.1416  0.1853  0.1979
21761W        W36892  15.025  16.761   3.935  0.2196 -0.3237  0.1077
21762W        W36893  14.669   0.453  12.088  0.0049 -0.1463  0.0498
21763W        W36894   2.945  17.564   0.971  0.0720  0.1082 -0.1894
21764W        W36895   7.476  17.510   2.666 -0.4567  0.2741  0.1331
21765W        W36896   1.667   9.150  11.543  0.4768  0.3904  0.2373
21766W        W36897   5.155   5.134  14.002  0.0693  0.2454  0.0886
21767W        W36898  15.419  12.123  11.536 -0.0192 -0.3227  0.0141
21768W        W36899  15.675   8.337  13.878 -0.0026  0.4942 -0.1799
21769W        W36900   6.599  16.158   3.173  0.0295  0.2786  0.4010
21770W        W36901   3.615   3.290   1.611 -0.2122 -0.1495  0.1052
21771W        W36902  15.915   6.799  12.683 -0.1078 -0.1521 -0.3067
21772W        W36903  14.548   9.152   5.255  0.2935  0.0612  0.3398
21773W        W36904  12.504   3.240   5.126  0.0236 -0.2380  0.1339
21774W        W36905   0.337  13.509   4.525  0.0691  0.1606 -0.1366
21775W        W36906  17.096  14.395   4.205 -0.4350  0.0899  0.2195
21776W        W36907   6.235  12.435   2.205 -0.0352 -0.2803 -0.1773
21777W        W36908   8.223   5.924  12.835  0.1126  0.1630  0.2370
21778W        W36909  16.123  16.139  11.106  0.2900 -0.2035 -0.2673
21779W        W36910  17.985   7.138  11.308 -0.4844 -0.1175  0.0320
21780W        W36911  16.821   8.130   2.107  0.0703  0.0838  0.2308
21781W        W36912   3.091   2.073   2.529 -0.1107  0.0781 -0.1774
21782W        W36913   4.908   0.760   3.696 -0.1917  0.0335 -0.0664
21783W        W36914   3.629  16.759  12.595  0.0335 -0.1273 -0.4606
21784W        W36915  10.744   5.967   3.723  0.0965  0.0530 -0.0796
21785W        W36916  15.893   9.596   3.400 -0.1091  0.1771  0.1663
21786W        W36917  10.066   6.625  11.593  0.1664  0.2245 -0.1902
21787W        W36918   2.733   0.079   1.164 -0.0855  0.1876 -0.0210
21788W        W36919  16.330   6.592   1.733 -0.1032 -0.2270 -0.1872
21789W        W36920  12.022   3.020   1.200  0.1594 -0.3345  0.0466
21790W        W36921   4.520   2.000   3.631  0.0638 -0.1310  0.2774
21791W        W36922  15.464  13.742  13.019  0.2301  0.0914 -0.2367
21792W        W36923   2.752   9.447  14.869  0.1474  0.2606 -0.0987
21793W        W36924   5.835  11.607   1.603 -0.3473  0.0739  0.2381
21794W        W36925   8.844  18.164   2.900 -0.1473  0.5480 -0.0239
21795W        W36926  14.603  15.991  15.749 -0.1075 -0.0474 -0.2529
21796W        W36927   5.798  15.471   4.507 -0.3162  0.2294 -0.0879
21797W        W36928  13.495   0.257  15.655 -0.2864  0.0756  0.2616
21798W        W36929  17.821  14.162  15.134  0.2032 -0.0419 -0.2100
21799W        W36930   2.394   6.321   1.089 -0.2482 -0.3061  0.0759
21800W        W36931   7.204  12.581  15.958 -0.1210 -0.0811 -0.1663
21801W        W36932   5.216  17.283  10.751 -0.0043  0.2065  0.0888
21802W        W36933  10.272   6.922   0.767  0.1147  0.0137 -0.3068
21803W        W36934   9.844   3.271  15.882  0.1012  0.0128  0.1220
21804W        W36935  15.633  15.574   3.830  0.3861 -0.0833  0.1274
21805W        W36936   2.168  11.105   2.825  0.1374 -0.2415 -0.1813
21806W        W36937  11.012   2.664   4.466 -0.0459 -0.0528  0.2340
21807W        W36938  11.262  17.809  14.118 -0.1906  0.2007 -0.0517
21808W        W36939   0.147  17.932   1.834 -0.1985 -0.1772  0.0596
21809W        W36940  12.315  17.337   3.946  0.0662 -0.1604  0.1812
21810W        W36941   7.161  11.772  13.722 -0.0657 -0.2834 -0.2771
21811W        W36942   3.142  15.256  15.115  0.0145 -0.0712  0.1517
21812W        W36943   6.044  14.920  14.538  0.2984  0.3173  0.1755
21813W        W36944   8.970  17.741   1.511  0.0301  0.2833  0.0637
21814W        W36945  16.245   9.011  12.827 -0.0661 -0.0423  0.0742
21815W        W36946   9.632  17.228  11.999 -0.3595 -0.0340  0.3892
21816W        W36947   7.090  17.533   0.201  0.2166  0.0590 -0.0835
21817W        W36948  14.576   4.104  14.044 -0.2399  0.0467  0.2834
21818W        W36949  10.271   1.364   4.215 -0.0765 -0.0143 -0.0566
21819W        W36950   4.272   3.221  10.927  0.2193  0.1923 -0.0693
21820W        W36951   9.452   5.881   4.002 -0.0136 -0.0705  0.0504
21821W        W36952   2.116   7.306   4.693  0.1748 -0.0115 -0.1037
21822W        W36953   4.446  11.383   3.420 -0.2549 -0.0762  0.0986
21823W        W36954   0.978   0.761   2.376  0.2660 -0.0137  0.2038
21824W        W36955   6.118   2.511   2.502  0.1450  0.0291  0.1327
21825W        W36956  10.313   6.011  13.999  0.4459 -0.3295  0.3364
21826W        W36957   9.847   5.429  13.266 -0.0476 -0.0174 -0.2184
21827W        W36958   2.748   2.169  10.230 -0.0533  0.0766 -0.3123
21828W        W36959   4.937  16.907   2.082  0.1417 -0.1793  0.1372
21829W        W36960   3.575  13.395   3.462  0.4774  0.1947  0.0781
21830W        W36961   3.658  15.061  14.997  0.0059  0.2325  0.0448
21831W        W36962   1.333   2.908  12.493 -0.1567  0.0155 -0.1121
21832W        W36963   8.027  13.078  10.010  0.2256  0.1731 -0.1040
21833W        W36964   4.015   3.541  13.402 -0.4846 -0.1467 -0.0465
21834W        W36965   2.399   7.678  15.754 -0.4068  0.3302 -0.2749
21835W        W36966   3.520  16.930  11.382  0.2010 -0.1920  0.1570
21836W        W36967  17.213  12.241   1.812  0.1814  0.0846 -0.1825
21837W        W36968  15.651   3.695  12.919  0.2959  0.0081 -0.0760
21838W        W36969   4.726   6.143   1.607  0.1744  0.1683 -0.0976
21839W        W36970   3.558   0.876  14.019  0.0440  0.3304 -0.3022
21840W        W36971   8.493  11.886  15.654  0.2861  0.0182  0.0494
21841W        W36972  13.643  14.413  11.584 -0.0690 -0.2632  0.1654
21842W        W36973  13.068   6.464  13.156  0.2362 -0.1994  0.1895
21843W        W36974  15.786  14.079  11.527 -0.1261  0.1848 -0.0420
21844W        W36975   1.016  15.551  11.419  0.1135  0.0689  0.2046
21845W        W36976   0.027   6.852  12.459 -0.3885 -0.1453  0.1006
21846W        W36977  11.786   0.242  11.321 -0.3038  0.1797 -0.1310
21847W        W36978   0.999  14.317   0.381  0.3985 -0.2618 -0.1471
21848W        W36979   6.101   2.787  14.517  0.0207 -0.1457 -0.2790
21849W        W36980   5.120   2.622   2.359 -0.2218  0.1193  0.1951
21850W        W36981   4.187  13.310   1.723  0.1003  0.3461 -0.0447
21851W        W36982   3.822   0.835   9.940 -0.1393  0.2310 -0.0347
21852W        W36983   7.479  12.476  15.044  0.0309  0.1148 -0.0067
21853W        W36984   6.893  11.725   4.071  0.0183 -0.1145  0.1771
21854W        W36985  13.813   0.522   5.467  0.3085 -0.1271 -0.2591
21855W        W36986  13.592   3.498   5.125 -0.0283 -0.0595 -0.2732
21856W        W36987   0.348  10.783   3.223  0.1886 -0.1991 -0.0242
21857W        W36988  15.258   5.559   0.588  0.0144  0.0610  0.1010
21858W        W36989  10.244   5.648  11.855 -0.2835  0.2790 -0.2733
21859W        W36990   6.334   3.056  15.879  0.0991 -0.1729 -0.1141
21860W        W36991  11.065  17.264   4.665 -0.0261 -0.2718  0.1388
21861W        W36992  13.811   8.198  14.366 -0.2617  0.2855  0.1229
21862W        W36993  15.577   8.154   2.250 -0.1460 -0.1465 -0.1469
21863W        W36994   6.825  13.631   4.160 -0.0502 -0.2046 -0.0525
21864W        W36995  15.206   1.624   3.775  0.2245 -0.1105 -0.0895
21865W        W36996   1.489   7.190   2.906  0.1016 -0.0013  0.1252
21866W        W36997   9.337  15.365   5.399 -0.0529 -0.0258  0.1447
21867W        W36998   2.595  17.573  14.033 -0.4769 -0.0129  0.1774
21868W        W36999   4.366   0.908  10.679  0.2204 -0.3117 -0.2681
21869W        W37000   5.525  12.006  10.908 -0.0803 -0.4084  0.1376
21870W        W37001   1.161  12.288  15.296 -0.0898 -0.0580  0.0719
21871W        W37002  11.004   5.747  14.195 -0.1201  0.1022  0.3922
21872W        W37003  17.411  13.778  13.446  0.3489  0.2470 -0.1557
21873W        W37004   0.362  16.744  10.673  0.1907 -0.3014 -0.0438
21874W        W37005  17.097  17.836   3.407  0.1826  0.0825  0.1261
21875W        W37006  17.810  16.486  10.673 -0.0383  0.0890  0.4494
21876W        W37007  17.531  12.229  13.479  0.4549  0.0566 -0.1667
21877W        W37008  16.142   5.761   4.518  0.1778 -0.1048  0.0484
21878W        W37009   8.892  16.635   3.996  0.2883 -0.0259  0.2958
21879W        W37010  15.855  11.065   0.457  0.0610 -0.2354 -0.2894
21880W        W37011   8.054   5.444  11.300 -0.2862  0.1574  0.4537
21881W        W37012  11.710   5.981  13.997 -0.0575 -0.0431  0.0653
21882W        W37013   1.358   7.352   2.297 -0.1365 -0.1080  0.2698
21883W        W37014  14.818  16.278   1.057  0.1126 -0.0234  0.0386
21884W        W37015   5.761  13.597   0.140 -0.0285 -0.1357 -0.2493
21885W        W37016  11.892   1.869  12.133  0.0319 -0.3347  0.1484
21886W        W37017   3.496  17.361   3.604 -0.2064 -0.0578 -0.0085
21887W        W37018  15.674  11.017   3.284 -0.0958  0.2494 -0.3047
21888W        W37019   7.422  10.511  11.669  0.2322  0.1488 -0.2269
21889W        W37020  14.629   7.270  13.104  0.1499  0.2457 -0.1649
21890W        W37021  10.135  17.606  12.912  0.2295 -0.2795  0.1573
21891W        W37022   3.088   2.140  12.050  0.0560  0.1461 -0.0147
21892W        W37023  10.780  10.874   2.254 -0.1746 -0.3785 -0.0236
21893W        W37024   6.740  11.026  15.328  0.2126  0.0065 -0.1309
21894W        W37025   1.129  17.458   3.256 -0.1109  0.0458 -0.4516
21895W        W37026  13.166   4.048   3.722  0.2753 -0.0260  0.0143
21896W        W37027  16.724   2.237  12.368 -0.2075 -0.0584 -0.1469
21897W        W37028   6.164  16.940  11.108  0.0053  0.1612  0.2040
21898W        W37029   7.988  11.736   0.892 -0.0434  0.3477 -0.0525
21899W        W37030   4.232   4.778   1.363  0.1245  0.1087 -0.0434
21900W        W37031   0.225   4.741   5.395  0.4409 -0.2311  0.1808
21901W        W37032   1.400  10.395  15.244  0.1841  0.0435  0.0980
21902W        W37033  14.069   3.715   5.054  0.0866  0.0521  0.1869
21903W        W37034  13.955  16.811  10.767  0.1170 -0.0505 -0.2265
21904W        W37035   6.024   6.144  15.233  0.2661 -0.0623  0.1152
21905W        W37036   3.640  15.454  15.433 -0.1312  0.3751  0.1185
21906W        W37037   0.544   8.758   2.149  0.0131  0.1132 -0.2039
21907W        W37038  13.294  18.124   3.117 -0.2903  0.0111  0.0341
21908W        W37039   0.999   3.778   0.384  0.1415 -0.1890 -0.4248
21909W        W37040  16.602   8.106  14.653 -0.2157 -0.0728 -0.1776
21910W        W37041   4.016  12.852  13.199  0.0170  0.0898  0.3494
21911W        W37042   2.210   8.809   4.719  0.1762 -0.3276 -0.3361
21912W        W37043   6.506   8.326  16.103 -0.0738 -0.3826 -0.1328
21913W        W37044   7.724  11.890  13.947 -0.0328 -0.2219 -0.0267
21914W        W37045  15.193   9.830  14.251 -0.0028  0.0479  0.1500
21915W        W37046   7.150  14.141  14.973 -0.1590 -0.1246  0.1632
21916W        W37047  16.574  11.770  13.262  0.0158  0.1604  0.1127
21917W        W37048   3.095  15.913   3.361 -0.0553 -0.0212 -0.1794
21918W        W37049   3.986   1.338   0.894  0.2477  0.0105 -0.0458
21919W        W37050   5.825  14.095  14.577 -0.0868 -0.1866 -0.0296
21920W        W37051   7.241  17.383  11.571 -0.2093  0.0725  0.0893
21921W        W37052  12.165   0.217   0.691  0.2670 -0.0247  0.0195
21922W        W37053   0.949   4.487   4.870 -0.2368 -0.0182 -0.2394
21923W        W37054   0.585   1.205  13.494  0.0710 -0.0012 -0.0691
21924W        W37055   5.707   8.519  12.591  0.2218  0.1925  0.3214
21925W        W37056  16.287   8.936  11.840 -0.3897 -0.0991  0.1607
21926W        W37057  10.180   0.107  13.249  0.1122  0.2424  0.0684
21927W        W37058   8.444   6.871  12.740 -0.3121  0.2920 -0.1099
21928W        W37059   8.275   5.938  12.229 -0.1426 -0.1382 -0.0542
21929W        W37060   6.115  16.036   1.897 -0.0115  0.1546 -0.1763
21930W        W37061   7.019   9.874  15.450  0.1336 -0.1550  0.2507
21931W        W37062  11.192  10.977   3.658 -0.1159 -0.0845 -0.2028
21932W        W37063   6.869   6.386   3.227  0.2858  0.1185  0.1000
21933W        W37064  10.050   6.044  14.923  0.4146 -0.1487 -0.1274
21934W        W37065  15.618  17.769   4.749  0.0976  0.0482 -0.1897
21935W        W37066  16.249   9.428  15.767 -0.2928  0.0227  0.2530
21936W        W37067  12.788   2.712   3.136 -0.0791 -0.1477  0.3229
21937W        W37068   6.142  14.689  15.068 -0.0394  0.1431  0.1774
21938W        W37069   3.918  16.431  15.518  0.0741 -0.1471  0.2502
21939W        W37070   2.793  16.741  12.372 -0.1177  0.3071  0.3926
21940W        W37071   4.510  11.064  14.446 -0.0253 -0.1606 -0.1239
21941W        W37072  14.629   4.471  15.616  0.1848 -0.0326 -0.1313
21942W        W37073  13.461   1.579  15.984 -0.2375  0.0001 -0.1507
21943W        W37074   1.951  10.087  13.850 -0.0566 -0.0075  0.1292
21944W        W37075  12.049  11.524   5.628  0.2053  0.0394 -0.0915
21945W        W37076   5.749  10.953   1.139  0.1432  0.1939  0.0798
21946W        W37077   6.137  10.778   9.759 -0.0261 -0.1087 -0.1732
21947W        W37078   4.123   1.828  11.597 -0.1970  0.1952 -0.1469
21948W        W37079  17.880   6.808  15.997 -0.2096 -0.4336 -0.3453
21949W        W37080  15.253   8.806   2.985 -0.4438  0.1689 -0.0054
21950W        W37081   6.778  17.300  11.429  0.0645 -0.2036  0.1773
21951W        W37082   3.399   1.016  11.438  0.3456  0.4058 -0.5541
21952W        W37083  17.884  13.823  11.920  0.0013 -0.0165 -0.0899
21953W        W37084  17.038   2.148   0.137 -0.1055 -0.3290 -0.2243
21954W        W37085   2.383  15.806  10.735  0.0345 -0.2929  0.0019
21955W        W37086   8.008  11.408  13.679  0.2863  0.1509 -0.0088
21956W        W37087   8.507   6.787  15.583  0.0134  0.0753 -0.1973
21957W        W37088  11.311  18.023   4.648 -0.3307  0.4374  0.0568
21958W        W37089  13.712  16.972   1.596  0.2243  0.1313 -0.2304
21959W        W37090  10.576   1.663   4.493 -0.3230 -0.2154 -0.2534
21960W        W37091  13.908  18.081   1.027  0.1017 -0.2822  0.3650
21961W        W37092   2.948  14.634   1.981 -0.1075  0.4956 -0.0743
21962W        W37093  16.813   0.214   3.964 -0.2458  0.0796 -0.0994
21963W        W37094   1.760  15.272  13.761 -0.2283  0.4240  0.0716
21964W        W37095   2.731  12.004   1.451 -0.0156  0.0272  0.1995
21965W        W37096  10.143   1.873   0.907  0.1939 -0.1978  0.1446
21966W        W37097   8.270   6.348  13.926  0.4578 -0.0141  0.0581
21967W        W37098  14.096   4.204  14.329  0.0115 -0.2093  0.0405
21968W        W37099   5.533   2.038  13.786  0.1900  0.0317  0.0683
21969W        W37100  16.759  17.834   2.817  0.1585 -0.1467  0.1414
21970W        W37101   7.886  12.371   3.507  0.0139 -0.1596  0.0892
21971W        W37102  11.537  10.674  12.049  0.0418  0.0664  0.1997
21972W        W37103  14.153   3.068  14.247  0.0298  0.0705  0.0275
21973W        W37104  10.345  13.751  15.689 -0.0544  0.0767 -0.1872
21974W        W37105  16.749  13.761  15.039  0.0138 -0.1494 -0.1379
21975W        W37106   4.815   3.825   1.965  0.0422  0.1374  0.1263
21976W        W37107   1.833  17.704   4.512  0.0813 -0.0674 -0.1889
21977W        W37108  13.263  14.359  13.666  0.1212  0.1166  0.0299
21978W        W37109   5.998  13.638   3.824  0.0308 -0.0125 -0.1730
21979W        W37110  15.918  14.936   0.561  0.4390 -0.0718 -0.1074
21980W        W37111   6.567   5.587  10.904  0.1322  0.1327  0.4384
21981W        W37112   4.706   2.985   2.522  0.0056  0.3114  0.2225
21982W        W37113  12.651   5.136  11.402  0.0148  0.2750 -0.0141
21983W        W37114  10.341  13.197  11.670 -0.1744  0.6078 -0.0131
21984W        W37115  10.275  15.576   4.131  0.2411 -0.0732 -0.0778
21985W        W37116   8.136   1.520  13.465  0.1792  0.1142  0.1615
21986W        W37117  11.615  17.492  14.246  0.0614 -0.2100 -0.2567
21987W        W37118   4.287   1.328  11.516 -0.1319 -0.1601 -0.0695
21988W        W37119   7.980   8.798   4.130  0.0946 -0.1404  0.0584
21989W        W37120  14.095   8.885   5.596 -0.0234  0.0527  0.0000
21990W        W37121   0.288   1.337   4.932 -0.2846  0.0520 -0.1669
21991W        W37122   2.729  13.324   0.154  0.1231 -0.0261  0.2036
21992W        W37123   1.974  13.979   3.164  0.0354 -0.0668  0.3237
21993W        W37124  14.139   9.907   2.003  0.0188  0.0607 -0.0777
21994W        W37125   4.414  15.883   2.492 -0.0002  0.1588 -0.1070
21995W        W37126   6.798   8.937   4.507 -0.0594  0.4067 -0.1201
21996W        W37127   2.709  18.086   4.431 -0.0610  0.0899 -0.1625
21997W        W37128  12.970   6.232   1.364 -0.1194 -0.1718 -0.1096
21998W        W37129   0.284   6.000  10.227  0.0009 -0.0654  0.0249
21999W        W37130  16.989   1.991  15.739  0.0430 -0.2518 -0.0627
22000W        W37131  14.306   7.074   0.485 -0.0173 -0.1451  0.2471
22001W        W37132  16.688   9.749  12.325  0.0659 -0.3735 -0.1944
22002W        W37133  16.840   9.611   4.127 -0.0846  0.1255  0.5071
22003W        W37134   6.920  14.776   3.067  0.4378 -0.0908 -0.0919
22004W        W37135   1.950   6.667   1.239 -0.1387  0.0642 -0.1523
22005W        W37136  15.829   8.227   0.331 -0.1879 -0.3630 -0.2147
22006W        W37137  10.865  11.223  11.194  0.3302  0.4798  0.2425
22007W        W37138   7.263  12.673   4.312 -0.1346 -0.1141  0.2906
22008W        W37139   2.427   5.510  12.774 -0.1610  0.2663 -0.2850
22009W        W37140  16.247   8.785  14.022  0.3364  0.2045 -0.1830
22010W        W37141  10.149  17.875   9.950  0.1505 -0.1880  0.1343
22011W        W37142   0.135   0.668  11.804  0.0782 -0.1115 -0.0891
22012W        W37143   3.724   1.860  14.622 -0.0086  0.2441 -0.3936
22013W        W37144  10.895  16.909   0.866 -0.1830  0.2123  0.2341
22014W        W37145   9.230  16.556  12.631 -0.0172  0.1305  0.3523
22015W        W37146  15.739   3.671   2.429  0.0978  0.0192  0.0213
22016W        W37147  17.800  13.271  15.622  0.1322 -0.0460 -0.0246
22017W        W37148  11.877   7.176  13.514  0.0549 -0.2332  0.1827
22018W        W37149   3.212  18.418   1.288 -0.2250 -0.3161 -0.1184
22019W        W37150   8.578  14.284  11.373 -0.0372 -0.1416 -0.0285
22020W        W37151   6.594  18.324   1.490 -0.1012  0.0035  0.0446
22021W        W37152   9.225   1.453  15.675 -0.2390 -0.0849 -0.0242
22022W        W37153   8.075  13.323   0.707  0.0778 -0.4214  0.0096
22023W        W37154   0.334  14.033  13.032 -0.0243 -0.0419 -0.1470
22024W        W37155   4.344  15.773   1.649 -0.0096  0.0874  0.1771
22025W        W37156  15.131  14.601   1.997  0.0723  0.0150  0.0900
22026W        W37157  15.318  10.326   0.351  0.0270  0.0838 -0.0853
22027W        W37158   3.383   7.153  13.451 -0.3986  0.0712  0.1670
22028W        W37159   4.718   8.553  11.759 -0.0673  0.0977  0.0347
22029W        W37160   3.250  13.695   0.958 -0.2821  0.0743 -0.3233
22030W        W37161  10.199  11.598   2.045  0.2282 -0.0361 -0.1024
22031W        W37162  18.280  16.648  11.950 -0.0513 -0.4458 -0.1090
22032W        W37163   5.737   2.528  11.714  0.2664 -0.2411  0.2135
22033W        W37164  11.235   6.727   0.613 -0.3037 -0.0964  0.1014
22034W        W37165   2.589   0.425   3.368 -0.0345 -0.2243 -0.2168
22035W        W37166   9.644  15.832   2.338  0.0662  0.2549  0.3078
22036W        W37167   2.953  12.387   2.086  0.0185 -0.0526  0.1271
22037W        W37168   0.019  14.826   1.725 -0.0181 -0.1546 -0.0756
22038W        W37169  14.151   4.033  12.974 -0.0211 -0.0594  0.0940
22039W        W37170   8.221   5.106  15.707  0.1950 -0.1297 -0.1156
22040W        W37171  18.349  17.313   0.403 -0.0176 -0.1752 -0.3503
22041W        W37172   8.787   1.676  15.518 -0.2311 -0.0113  0.1522
22042W        W37173  12.400   6.897   4.295  0.1285  0.3360  0.3171
22043W        W37174   1.654   2.499   3.374 -0.2759  0.2651  0.1097
22044W        W37175  17.207  16.970   2.998 -0.1081 -0.2167  0.2635
22045W        W37176   1.686   1.829   0.118  0.1367  0.0418 -0.0068
22046W        W37177   7.944   4.707  11.863  0.2892 -0.2682  0.0453
22047W        W37178   2.537   5.322  15.080  0.1222 -0.4356  0.2679
22048W        W37179  18.461   8.583   3.414 -0.1293 -0.0595  0.1103
22049W        W37180   7.766   9.218   5.022 -0.1148 -0.1232  0.3579
22050W        W37181   6.238   6.014  11.896  0.0955  0.1175 -0.0349
22051W        W37182  10.767   1.192  11.864  0.0393  0.0239 -0.2418
22052W        W37183   1.545   9.755  15.494 -0.2527 -0.0384  0.0878
22053W        W37184  10.892   7.099   5.919  0.0137  0.0135 -0.0130
22054W        W37185  17.611  16.986  13.833 -0.0008 -0.0848  0.0990
22055W        W37186   1.071   2.990   4.962 -0.0339  0.3318  0.1543
22056W        W37187  14.708   4.089  11.336  0.1963 -0.1161 -0.0466
22057W        W37188   5.392  11.103   3.454 -0.1962  0.0606 -0.2446
22058W        W37189   3.813   8.985   5.013 -0.0328  0.2174  0.0876
22059W        W37190  11.321  11.891  14.382 -0.1323 -0.4052 -0.2851
22060W        W37191   3.591   1.716   4.614 -0.1933 -0.3858  0.1492
22061W        W37192  10.770  11.120   4.730  0.2989 -0.0187  0.0192
22062W        W37193   8.356  12.868  15.389  0.2605  0.0739 -0.0172
22063W        W37194  15.562  15.176  11.299 -0.3372  0.0802 -0.1287
22064W        W37195  12.276   0.943  10.667  0.1544 -0.3716 -0.2367
22065W        W37196  15.611  11.036   5.097  0.0717 -0.4738  0.0290
22066W        W37197   5.621  17.122  10.462  0.0288 -0.2313 -0.2000
22067W        W37198  15.227   8.766   4.800  0.1594 -0.3133  0.0707
22068W        W37199  10.867  13.465  10.423  0.1316  0.0813 -0.1480
22069W        W37200   8.829   3.409  11.396 -0.0711  0.0132 -0.2630
22070W        W37201  11.437  16.002  11.594  0.0572  0.2337 -0.1612
22071W        W37202   1.578  16.216  12.693  0.2243  0.0408  0.2589
22072W        W37203  16.021   9.855   5.116  0.1598  0.0669 -0.0391
22073W        W37204   5.545  15.789   3.019  0.0055 -0.1544  0.3180
22074W        W37205   1.098   1.828  12.112 -0.3558 -0.2840  0.2471
22075W        W37206   5.177   8.989  12.370 -0.0665 -0.2356  0.0861
22076W        W37207   8.676  17.444   0.639 -0.1188 -0.3856 -0.3383
22077W        W37208   9.428  15.043  14.109 -0.1747  0.1666 -0.1406
22078W        W37209   6.263   5.989   2.726 -0.4858 -0.0389  0.0115
22079W        W37210   3.604   4.480   0.064 -0.2110 -0.0048  0.0813
22080W        W37211   7.633  17.589  13.055  0.0718 -0.2445  0.1034
22081W        W37212  17.556  18.247  15.612 -0.1986 -0.1895  0.3709
22082W        W37213  13.909   8.354   2.067 -0.0025  0.1459 -0.2889
22083W        W37214  14.162   7.940   5.267 -0.1924  0.0791  0.2931
22084W        W37215   2.946  15.696  13.179  0.5459  0.0610  0.0362
22085W        W37216   3.302   6.432  15.705 -0.0428  0.1602  0.3188
22086W        W37217   6.301  12.303   3.605  0.0248 -0.0223 -0.0589
22087W        W37218   6.058  16.669  15.501  0.1986  0.1509 -0.0484
22088W        W37219   7.933   1.070   0.963  0.3538 -0.2015  0.0099
22089W        W37220  11.750  16.485  13.866  0.2921 -0.2634 -0.0601
22090W        W37221  14.276  11.072   5.310  0.0019  0.0028  0.0235
22091W        W37222   9.677   3.600  13.036 -0.0095  0.3065 -0.0782
22092W        W37223   5.664   8.252   1.964  0.0363  0.1403 -0.1662
22093W        W37224   3.771  13.628   0.097  0.2096 -0.0743 -0.0090
22094W        W37225   5.602   9.252   2.138 -0.1172  0.3303 -0.1061
22095W        W37226   6.136   8.323  14.723  0.1538 -0.0914 -0.2657
22096W        W37227  18.229   0.185  11.980 -0.1059 -0.3173  0.2466
22097W        W37228  12.390  17.501   5.164 -0.0406  0.0111  0.1160
22098W        W37229   0.474  10.660  11.038 -0.0122  0.3408  0.0952
22099W        W37230  15.153  12.592  11.484  0.1243  0.1851 -0.1379
22100W        W37231  14.025   9.008  11.477 -0.0273 -0.3560 -0.0962
22101W        W37232  13.365   3.053  14.313 -0.0047 -0.2478 -0.0200
22102W        W37233  17.265  15.757  13.298 -0.1828  0.2216  0.3062
22103W        W37234  14.413   9.807   1.107  0.4448 -0.0383  0.1332
22104W        W37235   2.039  15.902  13.065  0.1920  0.0114  0.1882
22105W        W37236  10.768  13.900   0.024 -0.5019  0.1960 -0.0852
22106W        W37237  13.193   8.282   5.906 -0.2270  0.5556  0.3145
22107W        W37238   8.148   8.050  13.179  0.0376  0.1255  0.1528
22108W        W37239   8.134  10.732  13.300  0.0657 -0.0444 -0.1491
22109W        W37240  10.253   2.364   0.939 -0.2656  0.1584 -0.0642
22110W        W37241   5.411  14.968   2.077 -0.1646 -0.0971 -0.2857
22111W        W37242   6.469   9.512  14.111  0.0115 -0.0913  0.0971
22112W        W37243   9.846  17.724   0.455 -0.2668  0.2308 -0.2625
22113W        W37244  17.889  11.037  14.220  0.0793  0.2936  0.1594
22114W        W37245  10.051   8.724   2.664  0.0091  0.2627  0.0708
22115W        W37246   9.772   9.234   1.708 -0.0282 -0.2181  0.0717
22116W        W37247   1.594   7.711  14.554  0.0022  0.0600  0.0306
22117W        W37248  10.526  15.847  10.624 -0.2462 -0.1233  0.0612
22118W        W37249  18.223   7.294   1.462 -0.3046 -0.1541  0.0403
22119W        W37250  17.105   3.518  11.718  0.2984 -0.0095  0.0114
22120W        W37251   9.923   1.340   1.658 -0.0189 -0.1522 -0.0338
22121W        W37252   8.564  11.670  13.615 -0.2417  0.0720 -0.2410
22122W        W37253   3.797   4.686   5.045 -0.1678  0.0223 -0.1883
22123W        W37254   1.057  13.781  15.434 -0.0214 -0.2864  0.0334
22124W        W37255   8.937   1.300   4.689 -0.1448  0.2202  0.1989
22125W        W37256   6.505  16.931   1.848 -0.1310 -0.0707  0.2597
22126W        W37257  13.852  17.509   3.426  0.1072 -0.0208 -0.0385
22127W        W37258  12.947  17.140   0.961 -0.0323 -0.2566 -0.0496
22128W        W37259  13.103  12.781   1.426  0.0884  0.3333 -0.2812
22129W        W37260   4.903   5.059   1.408 -0.2397 -0.3619  0.0575
22130W        W37261  12.456  10.730  13.699 -0.4552  0.1091  0.1001
22131W        W37262  17.470  15.068  13.734 -0.0327 -0.0193 -0.3409
22132W        W37263  12.344   2.083   6.487  0.1618 -0.1019 -0.0785
22133W        W37264   0.960  13.820  13.912  0.0752 -0.2082 -0.0284
22134W        W37265  11.549   3.731   0.511 -0.1376  0.0582  0.1730
22135W        W37266   1.548   9.975   2.837  0.2586  0.0903  0.2177
22136W        W37267  12.343   3.383   5.770  0.0780  0.1743  0.2736
22137W        W37268   7.272   0.849   2.859 -0.0572  0.1894  0.1610
22138W        W37269   5.811  12.411  13.502 -0.0755  0.1549  0.4098
22139W        W37270   5.311  16.431  10.962  0.2702 -0.1615 -0.0237
22140W        W37271   5.418   8.148  14.411  0.0912 -0.2909  0.2110
22141W        W37272   5.324   1.017   3.858  0.1418 -0.1343  0.4200
22142W        W37273   4.244   3.587  15.078 -0.1691 -0.1612  0.1299
22143W        W37274   0.293   7.081  13.530 -0.0167  0.1685 -0.1444
22144W        W37275   0.549   3.942  14.132  0.1524  0.1055 -0.4749
22145W        W37276   0.153  11.243  11.381 -0.1661 -0.1974 -0.3208
22146W        W37277   9.467  16.073   2.950  0.0659 -0.3993  0.1763
22147W        W37278   2.010   3.927   3.109  0.0417  0.0124 -0.3804
22148W        W37279  15.479   5.916   5.343 -0.1379  0.2092  0.0155
22149W        W37280   9.354  17.342  15.062  0.0780  0.3257 -0.1525
22150W        W37281   2.337   5.558   5.441 -0.1493 -0.0800  0.5141
22151W        W37282  12.808   0.013  12.065  0.2817 -0.0974  0.1668
22152W        W37283  18.133   1.703  12.898  0.2342  0.0795  0.2935
22153W        W37284   1.970   2.089  13.922 -0.1224  0.0004 -0.0678
22154W        W37285  15.919   4.481   2.237 -0.2243 -0.2534 -0.1643
22155W        W37286   4.906  11.869   2.021 -0.1406 -0.0878 -0.3706
22156W        W37287   9.696   0.855  13.408 -0.2417  0.0010  0.0212
22157W        W37288  17.353   4.210   5.026 -0.1046  0.3552 -0.3004
22158W        W37289   7.690  10.733  13.081 -0.1241  0.1818  0.0130
22159W        W37290   3.171  17.748  13.186 -0.1539  0.1017  0.5320
22160W        W37291  16.502   3.228   5.308 -0.1120 -0.3046 -0.0349
22161W        W37292  16.850   7.285  12.604 -0.0573  0.0637  0.1613
22162W        W37293  13.778  11.451   2.602  0.3010 -0.2023  0.0407
22163W        W37294   4.252   3.855   5.486  0.1510 -0.2918 -0.1693
22164W        W37295   8.733   2.013  12.716 -0.1773  0.0885 -0.0873
22165W        W37296  17.468   3.042  11.175  0.2152  0.3140  0.2558
22166W        W37297   7.328  13.586   4.816  0.2871  0.0662 -0.0204
22167W        W37298  14.609  18.327  13.961 -0.1614 -0.0480  0.2486
22168W        W37299   5.296  15.892  10.213  0.1139 -0.1272 -0.3336
22169W        W37300  13.790   6.735  11.968 -0.0723  0.2522 -0.4015
22170W        W37301  13.049   3.156   5.234  0.3060  0.0663 -0.0786
22171W        W37302  13.136   3.648   5.109 -0.0775 -0.1075 -0.2196
22172W        W37303   7.295   4.889   3.286  0.1518  0.0243 -0.0319
22173W        W37304  17.805   4.773   0.326  0.3615  0.1587 -0.0419
22174W        W37305  17.546   1.309   3.343  0.0436 -0.3300  0.1078
22175W        W37306   2.306   2.099  12.333  0.0951  0.2791  0.0486
22176W        W37307  15.321   8.682  12.547 -0.0951 -0.4601 -0.1767
22177W        W37308   1.388  10.216  14.611  0.0869 -0.2094  0.0710
22178W        W37309  18.009   6.708  14.490 -0.2761  0.0817 -0.2254
22179W        W37310  16.384  10.652  12.318 -0.0762 -0.1913  0.3457
22180W        W37311  16.264   6.276   3.989 -0.1693  0.1131  0.1871
22181W        W37312   6.595   0.853  10.138  0.4130 -0.3492 -0.2202
22182W        W37313   6.177   1.392   0.643 -0.0899 -0.0212  0.3094
22183W        W37314  12.062   9.617  13.025  0.0183 -0.2809 -0.0579
22184W        W37315  17.437   1.236  11.936  0.4520  0.1097 -0.0625
22185W        W37316   0.181  10.107   4.279 -0.2987  0.0269 -0.1320
22186W        W37317  14.380   4.823  15.275 -0.0845 -0.0298  0.0810
22187W        W37318   1.748  11.515   0.036  0.4758  0.1699  0.2967
22188W        W37319  18.449  12.417  12.027  0.0475 -0.3236 -0.0098
22189W        W37320   0.763  16.225   0.134 -0.0393 -0.0651  0.2321
22190W        W37321   6.264   0.771  15.580 -0.1422 -0.0411  0.3364
22191W        W37322  13.946   8.933  15.540  0.4004 -0.0731  0.2745
22192W        W37323   5.161   8.009   1.972 -0.0821  0.2864 -0.1049
22193W        W37324  11.166   4.513  10.969 -0.3067 -0.3114  0.3307
22194W        W37325  10.524   7.890   0.655 -0.0503  0.0313 -0.0328
22195W        W37326   3.564   0.134  11.775 -0.0121 -0.2024 -0.1097
22196W        W37327   8.901   1.266   2.664  0.0881  0.1586  0.2199
22197W        W37328   3.775  10.316   1.168  0.0753 -0.2578 -0.1622
22198W        W37329  11.162  17.507   1.520 -0.1718  0.2117 -0.0643
22199W        W37330  14.811  10.761   3.714  0.0303  0.1762 -0.1455
22200W        W37331   2.966   6.653   4.366  0.3726 -0.1012  0.2319
22201W        W37332  16.815  13.284  12.606  0.1354  0.2195  0.0656
22202W        W37333  12.000  11.717   5.141 -0.4344  0.1136  0.2032
22203W        W37334   7.981  11.403  12.438  0.0440  0.0643 -0.1632
22204W        W37335   7.828   5.826  13.342 -0.0142  0.0926 -0.0839
22205W        W37336   9.265   0.975   2.836  0.2147 -0.0648  0.0734
22206W        W37337  10.744   3.382  12.463  0.2763 -0.0732  0.3889
22207W        W37338  17.357   7.348   3.678  0.1558 -0.0209 -0.0249
22208W        W37339   5.518  18.198  14.132  0.1132  0.3066 -0.1075
22209W        W37340  14.120  10.992  13.214  0.2812 -0.1513  0.2579
22210W        W37341   9.715  11.503   4.182  0.2495  0.1859  0.0526
22211W        W37342   7.817  16.937   4.009  0.1166 -0.3399 -0.1058
22212W        W37343   1.683   5.672   1.250  0.1453 -0.3777  0.3713
22213W        W37344  12.539  12.786  12.211  0.1372 -0.1241 -0.1408
22214W        W37345   5.526   8.568   6.251  0.3285  0.4757  0.3370
22215W        W37346  15.532   8.922   5.198 -0.3419  0.0471  0.4059
22216W        W37347   0.881   3.571  13.953 -0.0676  0.0422 -0.0091
22217W        W37348  15.824  13.403  13.015  0.2573 -0.1804  0.1419
22218W        W37349   0.129  10.289  12.606 -0.3742 -0.2489 -0.1255
22219W        W37350   5.736   4.960  14.620  0.2765 -0.2527 -0.1987
22220W        W37351  16.096   2.794   1.059 -0.3661  0.1571 -0.1519
22221W        W37352   9.533  15.025   1.687  0.2449 -0.1393  0.0131
22222W        W37353   0.922   5.470   3.862 -0.3479 -0.0919 -0.3228
22223W        W37354   3.699  11.996  13.791  0.0273 -0.0264 -0.0728
22224W        W37355   3.982  14.437  15.622  0.0597  0.1373 -0.4008
22225W        W37356  15.042   7.374   4.953  0.1857 -0.0518 -0.0237
22226W        W37357   7.739   9.925   5.555  0.0798 -0.0155 -0.1729
22227W        W37358   0.143   5.095  12.429  0.0245  0.0041  0.1122
22228W        W37359   4.259  14.661   0.870  0.1525 -0.0016 -0.0790
22229W        W37360  17.332   1.680   2.640 -0.2431  0.1675 -0.0447
22230W        W37361   9.027  13.030   4.732 -0.0606 -0.4009  0.2766
22231W        W37362   1.417   2.834  15.398  0.1011  0.1579  0.0223
22232W        W37363  16.937  14.300  12.471 -0.1683 -0.1588  0.0339
22233W        W37364   8.533  15.819  11.704 -0.0391 -0.0491 -0.0415
22234W        W37365   7.151  15.728  15.998  0.0183  0.0596 -0.1798
22235W        W37366   1.146  10.237   3.947 -0.0632  0.0321  0.3162
22236W        W37367  17.127  13.163  12.283 -0.0112 -0.0344  0.0911
22237W        W37368   2.808  17.957   2.016 -0.1040  0.0395  0.0074
22238W        W37369  16.927   7.646   2.394 -0.1623  0.0309 -0.3089
22239W        W37370   0.824  12.876   4.647 -0.2772 -0.2236 -0.0693
22240W        W37371  14.568  15.297   2.164 -0.2245 -0.1350 -0.0634
22241W        W37372   9.380   0.920  12.538 -0.2549 -0.1648 -0.0530
22242W        W37373   8.520  10.775   1.801  0.1050  0.0458 -0.1673
22243W        W37374  12.051   3.741  13.651  0.2912  0.1779 -0.2609
22244W        W37375   4.181  12.461  12.882 -0.0945  0.0595 -0.3690
22245W        W37376  15.903  11.052  16.064  0.2357  0.2675  0.1016
22246W        W37377   6.860   1.503   4.955 -0.2843 -0.2780 -0.2656
22247W        W37378  15.240   3.926  13.143 -0.4110  0.1842  0.2639
22248W        W37379  14.028  14.012  11.280 -0.0764 -0.1177  0.1300
22249W        W37380   2.352  16.096   2.568 -0.1017 -0.3296  0.2932
22250W        W37381  11.472   2.042  15.013  0.3020 -0.0686 -0.0435
22251W        W37382   2.400  17.947   0.574  0.1301 -0.1079 -0.1295
22252W        W37383   3.110   3.234   1.334  0.1415  0.3422 -0.0790
22253W        W37384   3.816  12.488   3.526  0.0625 -0.2153  0.2425
22254W        W37385  14.740  17.502   1.594  0.1524  0.0302 -0.0624
22255W        W37386   1.921   1.473   3.878  0.1224 -0.0333  0.0642
22256W        W37387   8.970  12.473   4.681 -0.2122 -0.5144 -0.2470
22257W        W37388  13.738  15.829  11.109 -0.1529 -0.0823 -0.0270
22258W        W37389   3.691   7.726  15.560  0.1112 -0.1357 -0.0880
22259W        W37390   4.171  14.802   1.992  0.1907  0.2465 -0.1991
22260W        W37391   1.735  17.573  15.436 -0.1258  0.2095  0.1144
22261W        W37392  16.224   1.171  10.317  0.1194  0.0508 -0.2245
22262W        W37393   1.682   0.556  12.800  0.0422 -0.0364 -0.0434
22263W        W37394   5.300   9.234  11.205  0.0658 -0.0789  0.0244
22264W        W37395  17.735  14.905   1.831 -0.0754 -0.2208  0.0718
22265W        W37396   7.781   4.873   1.528 -0.3406  0.0475  0.0916
22266W        W37397  18.093   7.730   4.600  0.0965 -0.3891  0.0729
22267W        W37398   3.921  10.188   4.935  0.1176 -0.2774  0.0996
22268W        W37399  15.139   2.266   5.815 -0.3382  0.1376 -0.1758
22269W        W37400   4.175  11.956   0.691 -0.1100 -0.0473 -0.2442
22270W        W37401  12.593  12.501   0.102 -0.2728 -0.0391 -0.2091
22271W        W37402   6.445   5.765   4.393  0.0771 -0.1573  0.1490
22272W        W37403   2.423  10.793   3.188  0.0646  0.2813  0.1808
22273W        W37404   6.528  10.707  11.318 -0.2981  0.0379 -0.2045
22274W        W37405   7.598   8.552   1.149  0.0055  0.0776  0.1942
22275W        W37406   5.140   0.182   2.077  0.0278 -0.1130 -0.3064
22276W        W37407  10.689  12.360  14.925 -0.1090 -0.0444  0.1405
22277W        W37408  15.134   2.147   1.435  0.1386  0.0362  0.0147
22278W        W37409  13.517   9.041   0.193 -0.3295 -0.0728 -0.1051
22279W        W37410  18.289  15.074   0.870  0.0289  0.0270  0.2767
22280W        W37411   9.607  11.029  13.203 -0.0311 -0.0308 -0.2998
22281W        W37412   7.704   4.530  13.999 -0.2125  0.1084 -0.0804
22282W        W37413   9.692  15.667   5.522 -0.4385 -0.1965  0.0792
22283W        W37414   9.423   9.535   4.315 -0.2011 -0.1442 -0.0452
22284W        W37415   7.809  12.826  13.858  0.0913 -0.0107  0.0624
22285W        W37416  16.710   7.050  14.268 -0.1849  0.2557 -0.2053
22286W        W37417   4.958  12.268  12.009  0.0375  0.4182 -0.0034
22287W        W37418  14.391   5.995  14.257 -0.1658  0.1820  0.1165
22288W        W37419  17.781  10.768  11.704  0.1049  0.0660 -0.0167
22289W        W37420   3.260  11.097   0.981  0.1016 -0.0204  0.2371
22290W        W37421  14.644  16.761   5.120  0.1900 -0.1823 -0.2450
22291W        W37422  14.502  13.408  14.269  0.0179 -0.0128 -0.2640
22292W        W37423  11.914  14.070   4.619 -0.3088 -0.0278  0.0977
22293W        W37424  16.635   2.130  14.162 -0.3966 -0.2042 -0.3003
22294W        W37425   3.943   7.560   3.378  0.0426 -0.2665  0.3897
22295W        W37426   2.652  18.164   9.831  0.0841 -0.0606 -0.1220
22296W        W37427  12.518  15.067   2.900  0.0151 -0.0306 -0.1662
22297W        W37428   5.735  12.848   4.519  0.5135  0.1359 -0.3471
22298W        W37429   2.542  18.302   3.772  0.5061 -0.0336  0.3560
22299W        W37430   6.175   0.598   1.180  0.3323  0.4786 -0.0119
22300W        W37431  11.151   9.374  11.280  0.0354 -0.0979 -0.1518
22301W        W37432   3.567  14.201  12.885 -0.3173 -0.5071 -0.0730
22302W        W37433   6.281  15.143   1.043 -0.1694 -0.2516 -0.0742
22303W        W37434  18.172  15.400   2.409 -0.2025  0.0654  0.1345
22304W        W37435  13.300  16.007  13.179 -0.1344 -0.0994 -0.0970
22305W        W37436   1.874   5.789   0.548 -0.0321  0.0232  0.1883
22306W        W37437  11.283  13.723   2.051  0.2159  0.5190 -0.0784
22307W        W37438   9.362  10.244  13.919  0.1814 -0.0774  0.0184
22308W        W37439  16.335  11.477   1.065 -0.0241 -0.0644 -0.1794
22309W        W37440   1.833   1.796   0.622  0.1802  0.2159 -0.0752
22310W        W37441  12.583  16.844  12.166  0.0039 -0.1023 -0.1188
22311W        W37442   5.829  18.277  13.103 -0.0640 -0.0352 -0.1017
22312W        W37443   7.599   2.100  14.231  0.0534  0.2091  0.1577
22313W        W37444   0.234   7.004   0.203  0.0298 -0.2763 -0.0002
22314W        W37445   5.592  16.520  14.608 -0.3070 -0.1119 -0.1840
22315W        W37446   7.737   6.654  15.042  0.3152 -0.1044  0.0487
22316W        W37447  12.187   7.967   0.495  0.1245  0.0578  0.0784
22317W        W37448   3.563  10.134  14.928 -0.0245 -0.2917 -0.0115
22318W        W37449   9.357   2.058   1.914  0.1257 -0.2163 -0.1339
22319W        W37450  13.320   8.824  12.916 -0.2155  0.0146  0.2481
22320W        W37451  13.297  15.683   2.142  0.0312 -0.1768 -0.2397
22321W        W37452   3.203   9.991   5.939  0.0866 -0.0245  0.3503
22322W        W37453  13.117  14.802   1.057 -0.0736 -0.1042 -0.0318
22323W        W37454   9.028   7.364  11.221 -0.0341  0.0401  0.0493
22324W        W37455  10.013  16.677   2.409  0.3067  0.0222 -0.2746
22325W        W37456   5.543  16.911  10.907 -0.1919 -0.2250 -0.0382
22326W        W37457  14.062  13.983   3.828  0.2128 -0.2745 -0.0534
22327W        W37458   3.230  10.974   3.705 -0.0683  0.1020 -0.0864
22328W        W37459   5.993  12.125  11.782 -0.0817  0.1885  0.1764
22329W        W37460  12.488  14.368   1.209 -0.0816 -0.1468 -0.0770
22330W        W37461   9.927  13.929  15.881 -0.1299 -0.0638 -0.0341
22331W        W37462   6.471  12.321   6.178 -0.1874  0.1911 -0.2282
22332W        W37463  14.290   3.352  12.410 -0.3957  0.1095  0.0233
22333W        W37464  16.170   5.282   2.965 -0.0133  0.0845 -0.0911
22334W        W37465  14.003  14.564  13.556 -0.2981 -0.1347  0.0129
22335W        W37466   1.330  17.005   4.007  0.1469 -0.0946 -0.0880
22336W        W37467   7.398  16.742   4.184  0.1862 -0.2470  0.2266
22337W        W37468  12.186   3.724   6.119  0.3361  0.1482 -0.1681
22338W        W37469   3.550   6.628  13.601  0.0812  0.1553  0.1714
22339W        W37470   3.698   6.096   3.409 -0.1492  0.0091 -0.2661
22340W        W37471  17.801  12.304   3.979 -0.2213  0.2182  0.2835
22341W        W37472  12.073  11.752   0.335 -0.0695  0.1838 -0.2095
22342W        W37473   2.507  11.840   0.460 -0.1309 -0.0928  0.1003
22343W        W37474   4.874  10.449   5.068 -0.0472 -0.2826 -0.1579
22344W        W37475  13.238  17.532   1.927  0.2256 -0.1961  0.1794
22345W        W37476   2.770   1.306  11.401 -0.0913  0.1379 -0.1014
22346W        W37477   5.898   2.333  15.120 -0.0858 -0.0248 -0.1898
22347W        W37478   2.093   5.997  13.225  0.1903 -0.3127 -0.0092
22348W        W37479  14.912  12.424  13.260 -0.0722 -0.1572  0.1331
22349W        W37480   0.125   2.233   4.217 -0.1737 -0.0902  0.3637
22350W        W37481  15.337   1.418  15.425 -0.0400 -0.2549 -0.0329
22351W        W37482  10.473  15.146  11.359  0.2300  0.2833 -0.0091
22352W        W37483   2.389   9.132  14.976  0.0612  0.0566 -0.1469
22353W        W37484   1.732  10.234  13.344 -0.0532 -0.2143 -0.0934
22354W        W37485  13.341  16.407   2.965 -0.2385  0.2552 -0.1126
22355W        W37486  12.331  10.112   2.060 -0.1233 -0.2258  0.2123
22356W        W37487   4.703  10.297   2.644  0.0357 -0.2208  0.0410
22357W        W37488   7.356  13.310  14.477 -0.0034 -0.1907  0.0450
22358W        W37489   9.507   7.403   6.105  0.0840  0.0032 -0.0796
22359W        W37490   8.729  12.561  12.002  0.2846  0.2611  0.2051
22360W        W37491   9.915   1.054  14.947 -0.0985  0.2769  0.3317
22361W        W37492   7.296  15.254   1.363  0.0235 -0.0375 -0.0843
22362W        W37493  17.502   0.487  13.946 -0.1335  0.2168 -0.1221
22363W        W37494   2.537   3.588   2.099  0.1305 -0.2569  0.1703
22364W        W37495  12.549  18.320  12.470  0.0941  0.1147 -0.1034
22365W        W37496  13.453   2.159  14.339 -0.0482 -0.1201 -0.1416
22366W        W37497  16.178   9.010  14.626 -0.1314 -0.0430 -0.1720
22367W        W37498  11.904  13.245  15.985  0.2206  0.1363 -0.3770
22368W        W37499   3.525   3.695  15.716  0.4170 -0.1299  0.1519
22369W        W37500   7.477   1.970  15.240  0.0446 -0.0663 -0.2826
22370W        W37501   1.895  10.439   6.348 -0.2039  0.1933  0.2765
22371W        W37502  14.038   6.002   1.835 -0.1960 -0.0829 -0.0173
22372W        W37503  12.444   1.824  15.445 -0.0958 -0.0728 -0.2997
22373W        W37504   0.974  15.183   1.840 -0.3234  0.0073 -0.0001
22374W        W37505   0.584  15.698  14.776  0.1120  0.0207  0.2313
22375W        W37506  12.441  12.499   5.141  0.1507  0.3035 -0.1411
22376W        W37507   6.609   6.516  13.088 -0.2033  0.0499  0.0686
22377W        W37508  12.087  11.116   5.417 -0.1336  0.1178 -0.1094
22378W        W37509  14.574   2.224  14.240  0.0716 -0.0895 -0.3060
22379W        W37510  11.179   4.985  15.894  0.0697  0.1271  0.0738
22380W        W37511   6.270   3.395  14.108  0.3375  0.0803 -0.2248
22381W        W37512  11.683   8.939   3.173  0.0632 -0.1138 -0.2188
22382W        W37513  13.280  15.809   1.675  0.0502 -0.3234  0.0675
22383W        W37514   9.560   0.125  11.488  0.3010 -0.1523 -0.1273
22384W        W37515   3.451  10.492  13.928  0.0235 -0.3621 -0.0242
22385W        W37516  11.227  10.479   0.440 -0.1754 -0.4338 -0.0437
22386W        W37517  14.903   5.836   2.237 -0.1964  0.1292  0.1510
22387W        W37518   5.109   8.807  12.852  0.2445 -0.1789  0.0807
22388W        W37519  12.600   7.575   3.694  0.1431  0.0184  0.1623
22389W        W37520  13.458   1.942  11.316 -0.0452 -0.0667  0.3736
22390W        W37521  16.966  11.700   1.375 -0.0346  0.1882  0.1463
22391W        W37522  13.116   7.017  11.186 -0.1991  0.3547  0.2905
22392W        W37523   9.698   8.256   4.492  0.0762  0.1647 -0.1057
22393W        W37524   2.570   3.577  12.145 -0.2205 -0.0768 -0.0158
22394W        W37525   2.652   7.098   1.351 -0.2019 -0.0743 -0.0599
22395W        W37526   7.675  18.103  13.108 -0.0687  0.0496  0.1329
22396W        W37527  16.844   9.723  11.428  0.0055 -0.0540  0.0918
22397W        W37528  18.487   2.946   4.990  0.3951 -0.0678 -0.2164
22398W        W37529  18.113  15.416   1.573 -0.0508 -0.0013 -0.3157
22399W        W37530  11.497   5.381  15.094  0.2220  0.0221 -0.1388
22400W        W37531  10.562   2.852  14.537  0.2519  0.2639  0.2271
22401W        W37532   1.833  14.953   2.032  0.0107  0.0063 -0.0775
22402W        W37533  17.897   8.194  15.690  0.1363 -0.2850  0.1440
22403W        W37534   6.336   3.571   5.545  0.0126 -0.1413 -0.0361
22404W        W37535  10.325   2.386  14.731  0.1036  0.3236 -0.1029
22405W        W37536   2.644  13.687   2.371 -0.0197  0.0605  0.2139
22406W        W37537   2.428   6.819   2.807  0.1268  0.1025 -0.0316
22407W        W37538   6.985   3.696  10.539  0.0255  0.2696  0.2284
22408W        W37539   8.295   6.205   2.794  0.0606  0.1301 -0.2582
22409W        W37540  13.742  15.866  12.863 -0.0060 -0.1681 -0.0037
22410W        W37541   8.128  11.800   4.806  0.0985  0.2129  0.2620
22411W        W37542   8.309   9.833   2.410  0.0218 -0.3147  0.1024
22412W        W37543   2.222   1.819   0.314 -0.2609 -0.3048 -0.0800
22413W        W37544   6.269   8.351  13.708 -0.2765 -0.2013  0.1636
22414W        W37545  11.089  18.108   2.962 -0.4111 -0.1108 -0.0934
22415W        W37546   9.402   8.269   0.682 -0.1120  0.4053 -0.1045
22416W        W37547   3.137   3.169  13.726 -0.1425  0.1059  0.3840
22417W        W37548  11.487   4.789  14.248 -0.0865  0.2498 -0.1015
22418W        W37549  16.391   7.045  11.755 -0.0160  0.1361 -0.2124
22419W        W37550  16.734   0.128  12.362  0.0584 -0.0256 -0.1153
22420W        W37551   7.338  15.290  14.215 -0.0550  0.2524  0.1093
22421W        W37552  16.388   5.464   3.476 -0.1848  0.3608 -0.0156
22422W        W37553   2.595  17.273   3.605  0.1739  0.0239 -0.1683
22423W        W37554  15.098   3.314  12.276 -0.1752 -0.0225 -0.1852
22424W        W37555  13.610   2.305   2.804  0.3097 -0.0611 -0.0222
22425W        W37556   5.919   7.084   0.887 -0.0889  0.0667  0.0073
22426W        W37557   3.562   2.211  10.087 -0.2366  0.1894 -0.1766
22427W        W37558  14.609  10.330  12.838 -0.0023 -0.0952  0.1244
22428W        W37559   3.945  12.489   1.956 -0.0755  0.0575 -0.1428
22429W        W37560  10.057  13.701  14.006  0.0630  0.2065 -0.1023
22430W        W37561   2.693  11.569  13.870 -0.1303  0.2406 -0.1973
22431W        W37562   7.675  13.957  10.820 -0.0830 -0.1970 -0.0604
22432W        W37563  10.902  14.015  15.631  0.4750  0.3407 -0.1448
22433W        W37564   9.099  15.299   0.902 -0.2156  0.2773 -0.0299
22434W        W37565   8.292   6.540  12.041  0.0250  0.3887 -0.1887
22435W        W37566  18.098  17.782   3.887  0.2772 -0.0355 -0.0389
22436W        W37567   6.041  16.909  15.076  0.2486 -0.0713  0.3584
22437W        W37568   6.359  13.701   1.004  0.0492 -0.1182 -0.2425
22438W        W37569   7.927   4.231  15.645  0.1140 -0.0298 -0.1207
22439W        W37570   6.560  13.368   0.675 -0.1192 -0.0165  0.1249
22440W        W37571  13.179  12.516   3.675  0.3153  0.1493  0.2455
22441W        W37572   1.298  16.682   2.345  0.0594 -0.2484 -0.1756
22442W        W37573   0.314   5.635  13.714  0.0123 -0.1351 -0.1751
22443W        W37574   5.015   2.339   1.592 -0.3159 -0.5063  0.0356
22444W        W37575   9.368   2.335   0.741  0.1016  0.2361  0.0837
22445W        W37576   7.415   8.625   3.291 -0.0931 -0.0932 -0.0784
22446W        W37577  16.098  10.181   2.689  0.0799 -0.1513  0.1593
22447W        W37578  12.515   0.399  11.833 -0.0196 -0.1618 -0.4840
22448W        W37579  10.624  18.335   0.377 -0.0437  0.1072 -0.3611
22449W        W37580   8.071   1.299  11.213 -0.0465  0.1502 -0.0381
22450W        W37581   1.781  17.211   3.702  0.1689  0.2346  0.1921
22451W        W37582   1.581   7.843   0.966  0.1623 -0.0466 -0.1149
22452W        W37583  12.462  16.156   3.668  0.0204 -0.1082 -0.3476
22453W        W37584  12.180  17.597   5.684 -0.1505  0.1592 -0.1456
22454W        W37585  10.096  14.913  10.927 -0.1931 -0.0366  0.0874
22455W        W37586  14.649   6.509  15.957  0.0586  0.0740 -0.1405
22456W        W37587   8.955   4.318  13.440 -0.0564  0.1611 -0.0533
22457W        W37588  11.505   2.763   4.756  0.0306 -0.3534  0.0260
22458W        W37589   1.259   0.472  11.413  0.0427  0.0708  0.1453
22459W        W37590   6.917   8.540   0.111 -0.4259 -0.1187 -0.2079
22460W        W37591   7.067  15.753  13.545 -0.1344 -0.3505 -0.2750
22461W        W37592  12.875  14.836  15.714 -0.1740  0.1352 -0.0843
22462W        W37593  12.535   8.895   3.104  0.0146 -0.2946  0.0454
22463W        W37594   5.105   8.723   4.412  0.0102 -0.0219 -0.1785
22464W        W37595  13.707   4.243  14.631  0.1541 -0.1463 -0.0861
22465W        W37596  15.767   8.336  14.869  0.0084 -0.2513 -0.0729
22466W        W37597   4.349  18.333  12.811  0.3840  0.0701  0.1399
22467W        W37598   0.950  13.230   4.322 -0.2325  0.2344 -0.3836
22468W        W37599   2.282   3.126   4.604 -0.1261  0.1919  0.2478
22469W        W37600  16.815  12.967  11.911 -0.2845 -0.0556  0.0255
22470W        W37601  11.488  11.537   2.569 -0.0573 -0.1045  0.3558
22471W        W37602   4.302   5.494  13.474 -0.0796  0.1040 -0.1023
22472W        W37603   0.857  13.928  13.029 -0.0797 -0.0916  0.0429
22473W        W37604   4.281  15.159  12.290  0.1442 -0.0912  0.2240
22474W        W37605  13.449  17.039   0.108 -0.0099 -0.0223 -0.3432
22475W        W37606   6.390   7.550  12.602 -0.1963 -0.0614  0.1402
22476W        W37607  12.266  12.528   5.624 -0.2490  0.1676  0.0645
22477W        W37608  10.690  10.885   1.391  0.0033 -0.1315 -0.0002
22478W        W37609  17.539  10.952   0.429  0.0995  0.1544  0.0939
22479W        W37610  17.620  12.057   0.768 -0.2662  0.1596 -0.5690
22480W        W37611  16.395   5.875  14.993 -0.1065 -0.0812  0.3260
22481W        W37612   6.465  11.502   4.880  0.1776 -0.2536  0.0844
22482W        W37613  11.360  17.663   3.842  0.2057  0.2149  0.2849
22483W        W37614  15.496   8.873   6.212  0.2658 -0.1175 -0.0220
22484W        W37615   1.041   8.713  10.958 -0.1617  0.1525  0.2639
22485W        W37616  17.495   2.048  15.969 -0.0633 -0.1404  0.1755
22486W        W37617  13.636  11.458   0.220  0.0102  0.0141 -0.0680
22487W        W37618   9.587   9.199   4.707  0.2740  0.1201 -0.2118
22488W        W37619   2.916  11.216  13.134 -0.1253  0.0985  0.2037
22489W        W37620  17.668  15.639   5.667 -0.0093 -0.2370  0.0368
22490W        W37621   9.006  18.313   2.079  0.0090 -0.3343 -0.1687
22491W        W37622  16.769   2.385   2.823 -0.3874  0.0671 -0.1313
22492W        W37623  14.387   9.262  15.797  0.3077  0.0940 -0.1469
22493W        W37624  18.023   0.579  12.982 -0.1377  0.2958 -0.1636
22494W        W37625   1.098  12.275  10.797 -0.3519 -0.2398  0.4336
22495W        W37626  15.219   8.190  12.693 -0.1360 -0.3315 -0.2148
22496W        W37627   8.916  15.759   2.447  0.0052  0.1927  0.0099
22497W        W37628   6.467   9.804  13.393  0.2684 -0.0470 -0.4237
22498W        W37629   0.639   2.242  15.030 -0.1117 -0.1312 -0.1258
22499W        W37630   5.569   0.077  15.413  0.0121  0.3717  0.0816
22500W        W37631   9.235  14.991  15.408  0.0254 -0.0797 -0.3235
22501W        W37632   1.976  11.394  15.703 -0.1168  0.1272  0.0570
22502W        W37633   8.640  17.618   1.174 -0.0098 -0.0390  0.0555
22503W        W37634  16.372  17.607  10.248  0.3245 -0.0798  0.2241
22504W        W37635   2.889   8.825  12.965  0.0716  0.1939 -0.2937
22505W        W37636   2.041  10.130   1.241 -0.3753 -0.5269  0.0229
22506W        W37637   7.888   1.168  15.484 -0.1400 -0.0827  0.1676
22507W        W37638   7.394   8.200   1.491  0.0322 -0.0472  0.0763
22508W        W37639  15.601  14.778   9.915 -0.0615  0.0305  0.0815
22509W        W37640   1.808   6.401  12.484 -0.3213 -0.0770  0.0242
22510W        W37641  12.531  14.450   0.660  0.1592  0.4014 -0.1847
22511W        W37642  10.591   9.813  14.850 -0.0128  0.1453  0.2483
22512W        W37643   3.086   1.828  11.638 -0.1718 -0.0186  0.0962
22513W        W37644  11.438  12.409  13.067 -0.2202  0.3918 -0.0637
22514W        W37645  13.580   7.184  11.121 -0.4580  0.0457 -0.2359
22515W        W37646   2.865  16.136  11.454  0.2004  0.1147  0.0424
22516W        W37647   0.115  14.325   1.957  0.1946  0.0205 -0.0610
22517W        W37648   6.009  13.964   2.428  0.0444  0.4316  0.2818
22518W        W37649   9.117   0.236   0.110 -0.0178 -0.2147  0.3766
22519W        W37650  15.199  10.506  11.782 -0.2427  0.1221  0.2828
22520W        W37651   5.071  16.652   1.658 -0.0807 -0.1906  0.0662
22521W        W37652   5.172   5.348  13.480 -0.1114 -0.1655 -0.1312
22522W        W37653  12.617  14.810  14.458  0.4522  0.2711 -0.0555
22523W        W37654  18.008  14.237   4.799  0.0746 -0.3408  0.1520
22524W        W37655  10.808  11.963   2.917  0.1219  0.1779  0.5102
22525W        W37656  13.898   2.282  15.826  0.0516  0.0565 -0.2107
22526W        W37657  12.766  13.087   4.246 -0.0308  0.0058 -0.1936
22527W        W37658  14.596   7.289  15.470 -0.1171  0.0517  0.1432
22528W        W37659  12.395   2.499  11.650 -0.2457  0.0299 -0.1638
22529W        W37660   5.234   6.667   3.774  0.2828 -0.0592  0.1831
22530W        W37661  14.368   7.588  15.771 -0.1163  0.0615 -0.3616
22531W        W37662   2.970   8.283  13.894  0.1851 -0.3383  0.1012
22532W        W37663  10.172   1.375   0.795 -0.3035 -0.2095 -0.0519
22533W        W37664   0.088   2.202   4.690 -0.3455 -0.0160 -0.2100
22534W        W37665  16.424  15.007  12.903  0.2348  0.5008 -0.0699
22535W        W37666  15.870   9.430   5.462  0.0099 -0.0639  0.0702
22536W        W37667   0.130   3.001   2.112 -0.1407 -0.1379  0.0938
22537W        W37668   6.894   0.810   0.606  0.1033  0.2098  0.1262
22538W        W37669  10.451   0.302   0.330  0.3021  0.2232  0.0586
22539W        W37670  17.979  11.207   2.010  0.2051  0.1381 -0.0847
22540W        W37671  11.120  12.772  11.855 -0.0030  0.0686  0.2059
22541W        W37672   0.995  13.981   3.293 -0.0870  0.2247 -0.2723
22542W        W37673   2.306  17.071   1.274  0.1094  0.2623  0.1541
22543W        W37674   6.008  12.064   0.237 -0.2434  0.0348  0.0271
22544W        W37675   3.214  10.154  11.226  0.0838 -0.3148  0.0242
22545W        W37676   6.863   5.846  15.806 -0.0188 -0.2766  0.3531
22546W        W37677   8.971  15.878  13.067  0.2558 -0.1914 -0.0999
22547W        W37678   3.436  12.946   5.401  0.1302  0.3304  0.0626
22548W        W37679  10.925   7.144  15.572  0.0351  0.0491 -0.1585
22549W        W37680   5.972   8.453  13.149  0.3477  0.4417 -0.1211
22550W        W37681   5.005   4.397  13.058  0.0649 -0.1441 -0.0956
22551W        W37682  16.577   9.032   1.956  0.0253 -0.4330  0.0333
22552W        W37683  17.714  12.288   9.571 -0.2073 -0.0100 -0.0214
22553W        W37684   7.405  10.834   3.665 -0.1536 -0.2515 -0.2433
22554W        W37685  13.196  14.970   0.107 -0.1150 -0.0270  0.0142
22555W        W37686  12.317   0.933   1.706  0.0339 -0.4770 -0.1360
22556W        W37687   4.668   7.707  11.807  0.0820 -0.2189  0.4026
22557W        W37688  12.336   6.715   6.057 -0.0296 -0.0193  0.1851
22558W        W37689   8.890  13.539  10.828  0.1381 -0.5834 -0.0924
22559W        W37690   6.120   9.147  14.375  0.0906  0.0203 -0.1268
22560W        W37691  17.130  14.817  13.441 -0.0734  0.5857  0.2126
22561W        W37692   5.526   9.634   3.339 -0.1094  0.0698  0.0382
22562W        W37693  11.766   6.441  12.312  0.0043 -0.0083 -0.1151
22563W        W37694   1.033  15.066   4.662 -0.1792 -0.1679  0.1301
22564W        W37695   4.472   5.835  13.117  0.0483  0.1879 -0.0777
22565W        W37696   9.024   3.599   0.260  0.0395  0.2169  0.1960
22566W        W37697  13.213  15.090   5.629 -0.1056 -0.4442  0.0288
22567W        W37698  15.071  13.437  13.832  0.0158  0.2776 -0.0880
22568W        W37699  16.416   4.939   3.696  0.0656 -0.0449  0.1905
22569W        W37700   3.700   7.715   0.902  0.0357 -0.4105  0.0809
22570W        W37701   9.661   6.813  13.263  0.2186  0.0597 -0.1614
22571W        W37702  15.346   0.189  14.036 -0.1926 -0.0676  0.0271
22572W        W37703  16.606  13.896  14.069 -0.1416  0.3143 -0.1278
22573W        W37704   6.851   0.481  13.478  0.1992 -0.0249 -0.0767
22574W        W37705   2.840   1.073   3.297 -0.1900 -0.1443 -0.1886
22575W        W37706  14.962   9.600   0.038  0.3366  0.0588  0.0130
22576W        W37707   0.595  11.629   3.647  0.2247 -0.1396  0.0442
22577W        W37708  14.324   2.616   3.428 -0.2012 -0.2589 -0.0978
22578W        W37709   0.021   4.526   2.806  0.0259  0.0098  0.2638
22579W        W37710  14.379  13.439   1.662  0.1571 -0.0684 -0.4030
22580W        W37711   1.390   5.506  11.264  0.0812  0.2675 -0.3353
22581W        W37712  11.672   5.034  13.897  0.3931  0.0378 -0.0446
22582W        W37713   5.209  13.294  13.632  0.0020  0.1026  0.1666
22583W        W37714   3.956   1.835  12.415 -0.1068 -0.0200 -0.2449
22584W        W37715  14.790  16.454   2.863  0.0138  0.2204 -0.0400
22585W        W37716  14.140   0.354  13.763  0.1625  0.0275 -0.2823
22586W        W37717   7.237   0.733  15.337 -0.1463 -0.0549  0.2621
22587W        W37718  16.618  11.385  13.686 -0.1142 -0.0079 -0.0412
22588W        W37719   1.809   5.537  15.625 -0.2109  0.3170  0.5995
22589W        W37720   4.849  13.561  16.046 -0.1694  0.0873  0.0862
22590W        W37721  18.076  16.895   0.249  0.2329 -0.2201  0.0045
22591W        W37722   8.652   3.046   1.764 -0.0515  0.0422  0.2497
22592W        W37723  16.414   9.615   0.541  0.3312  0.0475 -0.1102
22593W        W37724   3.381  17.069   4.021 -0.0007 -0.1950 -0.0230
22594W        W37725   2.236   0.535  11.568  0.0279  0.0768  0.0037
22595W        W37726  16.036  18.363   0.326 -0.2900  0.0376 -0.0582
22596W        W37727   5.990   0.465   2.894 -0.2121  0.0456  0.1549
22597W        W37728   2.867  13.847   0.084  0.2080 -0.2808 -0.1699
22598W        W37729   2.000  14.448  10.544 -0.1608  0.3588  0.3204
22599W        W37730   5.116   5.013  12.434  0.0721 -0.2292 -0.0398
22600W        W37731   5.868   4.788   1.836  0.0861 -0.2151  0.3340
22601W        W37732   6.742  12.234   0.625 -0.2392 -0.1024 -0.2530
22602W        W37733   9.193  16.767  13.291 -0.2564  0.3302  0.1454
22603W        W37734  15.385   1.589  14.210  0.1249 -0.4317  0.2148
22604W        W37735  10.931  13.188  14.947  0.2432 -0.0435 -0.2994
22605W        W37736   2.520   8.789   2.119 -0.3322 -0.3382  0.0154
22606W        W37737  11.584   9.820  13.067  0.4582  0.1269  0.0167
22607W        W37738  14.019   3.249  11.466  0.0279  0.0707 -0.2096
22608W        W37739   4.681  17.938  10.617 -0.0634 -0.2407 -0.1543
22609W        W37740   2.159  16.266  10.729 -0.1271 -0.2474  0.1093
22610W        W37741   7.993  10.733   1.784  0.1640 -0.1661 -0.0362
22611W        W37742   0.482   5.974   2.804 -0.0887  0.0051  0.2081
22612W        W37743  10.398   5.312   2.707  0.0252  0.0643 -0.1050
22613W        W37744   1.801  11.410   3.601 -0.0504  0.0747  0.4203
22614W        W37745   2.545  12.205  13.025  0.0933  0.0822  0.1557
22615W        W37746   3.901   0.400   1.140 -0.2284  0.0215  0.2938
22616W        W37747  13.764  12.667   2.830  0.0954  0.0110  0.1328
22617W        W37748   8.953  13.282   3.537 -0.0445 -0.3118 -0.1082
22618W        W37749  14.981   7.246   1.625 -0.0772  0.1742 -0.1003
22619W        W37750  12.346   1.136  14.392  0.4998 -0.1187  0.1928
22620W        W37751  11.397   4.234  10.599  0.0569  0.1282 -0.1520
22621W        W37752   6.050   5.477   2.722  0.1606  0.2484  0.1882
22622W        W37753  15.645   6.687   0.055  0.0867 -0.1014  0.0899
22623W        W37754  17.762  12.528   1.847 -0.0199  0.0283 -0.2169
22624W        W37755   3.695   1.880  15.140  0.4861  0.3991 -0.2509
22625W        W37756  10.814  12.162   5.552  0.2303  0.3125  0.1265
22626W        W37757   3.781   5.892   1.833  0.0539 -0.3395 -0.0404
22627W        W37758   2.646  16.179  11.006 -0.5061 -0.1080 -0.2164
22628W        W37759   1.324   0.896  11.164  0.2033  0.3511 -0.2011
22629W        W37760  13.813   0.077  16.095 -0.1090 -0.1202 -0.0538
22630W        W37761  15.951   4.125   4.954  0.1296  0.0376 -0.3052
22631W        W37762  15.952   4.075   3.674  0.0919 -0.0890 -0.0820
22632W        W37763  11.010   3.150   0.323  0.2472  0.2167  0.2374
22633W        W37764   7.891  15.621  15.032  0.1807 -0.1359  0.0677
22634W        W37765   3.569   2.559  11.950  0.0402  0.4770  0.1760
22635W        W37766  14.832   0.307   4.532 -0.1964 -0.0666 -0.2001
22636W        W37767   7.724   9.434  13.810  0.1407 -0.0935  0.1061
22637W        W37768  11.064  17.630  15.081  0.1437  0.1072 -0.0589
22638W        W37769   2.669  12.209  14.934  0.0592 -0.1675 -0.0334
22639W        W37770   1.704  11.671   5.417 -0.0125  0.1161  0.2806
22640W        W37771  10.319  16.913   4.758  0.2375  0.0323 -0.2758
22641W        W37772   1.480   5.661   3.131 -0.7010  0.2299  0.1379
22642W        W37773   5.151   4.894   5.093 -0.0791  0.1131 -0.3071
22643W        W37774   4.423   0.861   3.016 -0.1518 -0.3592 -0.2408
22644W        W37775  18.243   3.225   0.729 -0.0423  0.1570 -0.0939
22645W        W37776   5.101  13.866   5.927 -0.1401 -0.1004  0.2178
22646W        W37777   7.121   8.235  14.564  0.0420  0.1183  0.4023
22647W        W37778   4.487   2.022   5.601 -0.0603 -0.2835  0.3006
22648W        W37779   5.385  14.781   0.538  0.0783  0.1225  0.2342
22649W        W37780   9.920   1.092  13.864  0.2571  0.2830 -0.0018
22650W        W37781   5.120  17.045  12.595 -0.1514 -0.1981 -0.0268
22651W        W37782   1.073  10.530   5.391  0.0381 -0.1274  0.1598
22652W        W37783   3.575   4.390   4.059 -0.0247  0.0811  0.1378
22653W        W37784   6.489   1.689   9.924  0.1847 -0.0342  0.0466
22654W        W37785  16.841  14.964   1.838  0.3371 -0.0899 -0.1848
22655W        W37786  17.451  15.776   1.554  0.1659 -0.1897 -0.2963
22656W        W37787   0.678  10.760   5.135  0.0292  0.1505  0.2120
22657W        W37788   6.183   6.783   5.213 -0.2577 -0.2530  0.1593
22658W        W37789  11.875  10.145   4.328 -0.0435  0.2915 -0.1737
22659W        W37790  17.101   9.118   3.760  0.0430 -0.3076 -0.0402
22660W        W37791  14.376   7.475  14.968  0.0507 -0.0413  0.1359
22661W        W37792   0.139  17.294  11.327  0.3279 -0.2145  0.2820
22662W        W37793   7.874   9.995  15.798  0.0361 -0.0385  0.0277
22663W        W37794   2.596  15.130  15.567  0.2272 -0.0243  0.0062
22664W        W37795   1.990   7.070  11.843  0.1865  0.2045  0.1003
22665W        W37796  14.621  14.945  11.538 -0.4961  0.3745 -0.0305
22666W        W37797   5.878  10.618   1.927  0.0330 -0.1682  0.4770
22667W        W37798  13.812   7.393   1.926  0.0214  0.1231 -0.0108
22668W        W37799   9.737  18.401  11.020 -0.2286  0.1127 -0.1898
22669W        W37800  16.512  17.617  15.696  0.0697  0.0641 -0.0931
22670W        W37801  12.584   2.902  12.765  0.1702 -0.0203 -0.2838
22671W        W37802  13.381   5.145  15.984 -0.1384 -0.0162  0.4281
22672W        W37803  14.343  14.998   5.098 -0.2288  0.1707  0.3407
22673W        W37804  15.186   3.182  11.108 -0.1733 -0.1747  0.1700
22674W        W37805   4.098   2.254   0.425  0.2969  0.0093 -0.3902
22675W        W37806  10.391   0.991  12.248 -0.2316  0.1956 -0.0661
22676W        W37807   9.249  15.625  11.220  0.1264 -0.2203  0.0156
22677W        W37808   3.341  16.776   4.387 -0.1579 -0.2311  0.3314
22678W        W37809  13.331  14.966  12.998 -0.4221  0.0161  0.0143
22679W        W37810   2.889  13.938  14.595  0.2639  0.0331 -0.0557
22680W        W37811   6.841   4.668   4.824  0.1796  0.0944 -0.1359
22681W        W37812   7.649  16.122   1.592 -0.3496 -0.1187 -0.2156
22682W        W37813  16.977  13.710  10.783  0.1907  0.2251  0.0602
22683W        W37814  10.037  15.819   1.259  0.1353  0.3844 -0.1452
22684W        W37815   9.805  15.287   0.265 -0.0912 -0.1055 -0.1783
22685W        W37816  12.435  13.528   4.222 -0.4556 -0.0731  0.2605
22686W        W37817   5.609   9.987  15.641  0.0007  0.1039  0.0954
22687W        W37818  18.478  17.032   3.506 -0.2452 -0.2685 -0.0098
22688W        W37819  12.943   7.438   5.379 -0.1536  0.0538 -0.0340
22689W        W37820   4.682  17.189  15.833  0.2742 -0.1257  0.2514
22690W        W37821   4.029  17.002   0.194  0.2870  0.0944  0.1110
22691W        W37822   0.467  16.088   5.457 -0.0513 -0.0367  0.0950
22692W        W37823  16.696   5.821   0.763 -0.0070 -0.3089  0.3535
22693W        W37824   6.131  17.044   2.945 -0.1282  0.1529 -0.4143
22694W        W37825  14.106   7.642   3.996  0.2171 -0.2980  0.1649
22695W        W37826   3.065   0.190   2.337  0.2300  0.0001 -0.1176
22696W        W37827   6.247  10.570  11.727 -0.2905  0.3371  0.3078
22697W        W37828  15.613   2.400  11.557 -0.2360 -0.1280 -0.2475
22698W        W37829   9.535  10.155   3.109  0.3052 -0.0833 -0.1627
22699W        W37830   1.004   5.563   4.478  0.0363  0.1495  0.0618
22700W        W37831  16.695  10.240  12.186  0.0343 -0.0926  0.1504
22701W        W37832   1.865  16.440   0.660 -0.1638  0.0979  0.0826
22702W        W37833  17.699   7.652   0.779 -0.2293 -0.2610 -0.0617
22703W        W37834   5.069  14.810   4.556 -0.1678 -0.0933 -0.0269
22704W        W37835  10.084  10.300   5.551 -0.0150 -0.2228  0.1644
22705W        W37836   9.550  18.328   4.133  0.2043  0.2262 -0.1266
22706W        W37837   0.913   4.208   5.648  0.0035 -0.2703 -0.3169
22707W        W37838   0.138   4.212  10.889  0.3138  0.1116  0.1041
22708W        W37839   7.474   5.407   6.056  0.1495 -0.0654  0.1696
22709W        W37840   7.562   0.509  11.323  0.4885  0.1185  0.0132
22710W        W37841   9.006  17.433  11.339  0.4252 -0.2231  0.0841
22711W        W37842  15.107  12.932  14.888  0.1171 -0.2827  0.0601
22712W        W37843   5.963  10.889  14.097 -0.0576 -0.1865 -0.1152
22713W        W37844   6.333   5.160   1.715  0.1936 -0.2010 -0.0197
22714W        W37845  13.819   7.726   1.132  0.0953 -0.2571 -0.0885
22715W        W37846   9.170  14.703  13.833  0.0896  0.1511  0.1937
22716W        W37847   2.664  13.148   1.059  0.1278 -0.1164  0.4154
22717W        W37848  15.331   6.561   2.486  0.0867 -0.2375  0.0911
22718W        W37849  15.232   0.390   4.890  0.2365 -0.1721  0.1043
22719W        W37850   3.633   5.904  12.879  0.2004  0.0046  0.0322
22720W        W37851  16.777  12.821  13.555 -0.3310  0.0524 -0.2412
22721W        W37852   1.827   6.195   0.230 -0.0450 -0.1073  0.0847
22722W        W37853  10.502   2.503  12.544 -0.0570 -0.2450  0.2141
22723W        W37854   4.301   0.543  13.097 -0.2348  0.2424  0.1064
22724W        W37855   5.602  12.795  15.268 -0.0347 -0.2890 -0.1208
22725W        W37856  11.858   3.588  10.374  0.1728 -0.0476  0.2371
22726W        W37857   8.012  17.382   3.578  0.0139  0.0461 -0.2223
22727W        W37858  14.704  14.225   5.114  0.1253  0.1570 -0.1634
22728W        W37859   3.701   7.567   0.435  0.1386  0.3526 -0.1560
22729W        W37860  14.759   9.625  14.073 -0.2985  0.4224 -0.0041
22730W        W37861   7.078   0.145  11.851 -0.2210 -0.1270 -0.0509
22731W        W37862   3.990  10.467  15.230  0.0541  0.1326  0.1628
22732W        W37863  16.101  14.630   5.993 -0.1833 -0.1121 -0.0333
22733W        W37864  13.325  11.413  13.337 -0.0236 -0.1574  0.1909
22734W        W37865   8.848   1.893   0.337  0.0158  0.0543  0.2475
22735W        W37866  14.869  15.422  15.387  0.3774 -0.0148 -0.0556
22736W        W37867   8.067   8.193  15.659  0.1598 -0.1665  0.3551
22737W        W37868  13.611  12.631  13.009 -0.0024 -0.1200  0.1133
22738W        W37869   3.448   1.426  11.757  0.0261 -0.0825 -0.1504
22739W        W37870  17.358   2.317  14.723  0.1129 -0.0699 -0.1183
22740W        W37871   6.431  13.053  13.564 -0.0077  0.1121 -0.3045
22741W        W37872   1.016   8.010  10.779  0.2375 -0.2787 -0.0809
22742W        W37873   1.251  13.164   2.570 -0.1455 -0.1528 -0.0722
22743W        W37874   5.792  11.008   2.340 -0.3344  0.3406 -0.2057
22744W        W37875  16.370  11.361   0.519 -0.2403  0.0836 -0.2083
22745W        W37876  15.108   4.286   2.672  0.0105 -0.4033 -0.1317
22746W        W37877  17.468   9.525   1.990  0.2623 -0.3234 -0.2595
22747W        W37878   2.491  12.125  11.551 -0.1524  0.2817 -0.2618
22748W        W37879   5.721   9.659   2.381 -0.0780 -0.2918 -0.5254
22749W        W37880  14.922   6.718   2.733 -0.0440 -0.0194  0.0057
22750W        W37881   6.721  10.701   1.821  0.0529  0.2681 -0.0896
22751W        W37882   7.975  10.480   2.939 -0.1182 -0.3807  0.2104
22752W        W37883  14.159  17.263  12.169  0.0486 -0.2048  0.1083
22753W        W37884  13.559   5.368   5.714  0.0944  0.3944 -0.1751
22754W        W37885   1.253   9.756  13.141  0.0785 -0.0117 -0.3964
22755W        W37886   4.465  16.252   5.023  0.2532 -0.0627  0.0881
22756W        W37887   5.077   8.403   5.371  0.1800  0.3389  0.0691
22757W        W37888   4.602  12.997   1.296 -0.3727  0.0710 -0.1881
22758W        W37889   3.036  12.281  14.288 -0.0008  0.0787  0.0581
22759W        W37890  14.426   7.408  13.629 -0.2130 -0.0202  0.0311
22760W        W37891   4.869   6.914   2.984  0.0250 -0.1289 -0.1200
22761W        W37892   4.442  12.853  14.561 -0.2203  0.3261  0.5023
22762W        W37893  11.743  12.027  11.623  0.1539 -0.3422 -0.1346
22763W        W37894  17.999  10.540   3.672 -0.1826 -0.2677 -0.0439
22764W        W37895   1.523   4.303   1.422  0.3434 -0.1389  0.2444
22765W        W37896  13.924  18.478   4.724 -0.2938  0.2567 -0.0967
22766W        W37897  11.521  12.926   1.618  0.2104 -0.1652  0.1985
22767W        W37898  15.320   9.153  12.460 -0.0323 -0.0140 -0.3238
22768W        W37899  14.213   7.200   2.641 -0.0554 -0.1725 -0.0201
22769W        W37900  11.242   1.281  11.921 -0.0852 -0.1240 -0.2190
22770W        W37901   0.835  16.670  10.615 -0.0321 -0.4721 -0.1359
22771W        W37902  16.002  14.939  11.503 -0.0629 -0.3292  0.4501
22772W        W37903  13.451   4.414   1.826  0.3771  0.1386  0.1812
22773W        W37904  17.041  15.982   1.379 -0.1232 -0.2826 -0.1916
22774W        W37905  15.352  18.298  14.818  0.1355 -0.2042  0.0038
22775W        W37906   4.139  10.996   4.242  0.1984  0.1612 -0.0768
22776W        W37907   4.924   1.365   4.927 -0.2972  0.1400 -0.1242
22777W        W37908  12.066  13.173  12.202 -0.1086 -0.0704  0.0065
22778W        W37909   3.102  16.641  11.462  0.1216  0.0093  0.0096
22779W        W37910   8.360   3.210   2.564 -0.0542  0.5957 -0.2474
22780W        W37911   2.910  14.854  12.625 -0.1627  0.1621  0.1549
22781W        W37912  16.257  15.159   2.291 -0.1430 -0.1606  0.1986
22782W        W37913   6.967   3.494   0.615 -0.2611 -0.0770 -0.0511
22783W        W37914  16.243   2.421   2.940  0.5834  0.0167 -0.0615
22784W        W37915  17.747  17.437  12.360  0.1563 -0.5056 -0.2178
22785W        W37916   4.261  10.192  16.057  0.3749  0.0773 -0.1593
22786W        W37917  17.853  14.976  11.553 -0.0219  0.0977  0.0821
22787W        W37918  12.161   3.341  10.869  0.4812 -0.1464 -0.0239
22788W        W37919  16.349  14.913  14.103  0.0099  0.1778 -0.2414
22789W        W37920   3.986  11.241   1.004  0.0558 -0.0597 -0.0565
22790W        W37921   7.875  17.495  15.989 -0.1290 -0.0035  0.1866
22791W        W37922  10.576  18.016  10.723  0.0780  0.0308  0.0368
22792W        W37923   7.820  17.157  12.888  0.0887  0.2401 -0.0898
22793W        W37924   0.354   4.328   5.131 -0.0158 -0.0691  0.2063
22794W        W37925   1.527  16.081   3.717 -0.0845  0.0373 -0.0128
22795W        W37926   6.369   2.581  14.964  0.1597  0.2288 -0.1010
22796W        W37927   6.990  17.752  12.423 -0.1824 -0.0692 -0.2176
22797W        W37928   1.606  16.390  11.847 -0.0105  0.1054  0.0817
22798W        W37929   4.178  13.325  14.490 -0.1848 -0.4341 -0.4751
22799W        W37930  12.878   4.009   5.378  0.0959  0.4902  0.0315
22800W        W37931  14.461  10.808  14.205 -0.0513 -0.1004 -0.2571
22801W        W37932   9.161  17.550   4.599 -0.2238  0.2491 -0.1879
22802W        W37933   5.661   6.340  14.748 -0.3799 -0.4033 -0.0187
22803W        W37934   8.229  13.640   3.195  0.0357 -0.0875  0.2344
22804W        W37935  14.839  13.860  13.896 -0.0839  0.2483 -0.0424
22805W        W37936   5.619   9.938  12.616 -0.2752 -0.0198 -0.1470
22806W        W37937   1.480   9.221   5.031  0.1264  0.3445 -0.2495
22807W        W37938   1.950  13.650   1.922 -0.3238  0.0632 -0.1539
22808W        W37939   6.878   3.396  15.408 -0.1496  0.0035 -0.3320
22809W        W37940  16.661   7.860   0.932  0.1777  0.2030  0.1364
22810W        W37941  15.893   5.651  14.438 -0.1185  0.1585  0.2271
22811W        W37942  15.150   7.406   0.670  0.1351  0.0437  0.0234
22812W        W37943   6.276  11.887   1.698  0.0582  0.1749  0.0343
22813W        W37944  14.348   3.894   2.551 -0.1114  0.1064 -0.3110
22814W        W37945   0.041   3.950   5.603 -0.3816  0.2064  0.1047
22815W        W37946   5.201  14.351  11.459 -0.2484  0.2669 -0.1166
22816W        W37947  16.997   0.996   0.302  0.1632 -0.1476 -0.1404
22817W        W37948   8.996   6.613   5.070  0.1344 -0.3451  0.0167
22818W        W37949   2.561   1.626  15.987  0.2321 -0.2285 -0.1018
22819W        W37950  10.018  15.747  14.053  0.0678 -0.2203 -0.0272
22820W        W37951  12.979   8.571   3.894  0.0713  0.0138  0.0601
22821W        W37952   8.329   5.853   0.807  0.0817 -0.2123 -0.1294
22822W        W37953  11.099   2.545   4.965  0.4206  0.3023  0.0578
22823W        W37954  14.172  16.958  14.909 -0.2935  0.1260  0.0611
22824W        W37955  11.837  15.121  12.910  0.2607 -0.1043 -0.0572
22825W        W37956  11.868   9.860   2.389  0.2113 -0.0614  0.1427
22826W        W37957  17.652   7.516   1.825  0.1917  0.2841  0.0336
22827W        W37958   0.072   7.756   5.379  0.0737  0.0101 -0.2196
22828W        W37959  17.068   2.245   1.614  0.2304 -0.0030 -0.1037
22829W        W37960   2.852   7.073  12.122 -0.1449 -0.0870  0.0268
22830W        W37961   7.026   8.936  13.025  0.2302  0.2622  0.2009
22831W        W37962  12.358   4.622   2.845 -0.0705  0.0275  0.2145
22832W        W37963  11.272  14.522   1.361  0.0652 -0.3312  0.0213
22833W        W37964  13.286   8.852   0.661  0.0745 -0.4486 -0.0620
22834W        W37965   6.948  18.441   3.899  0.2644 -0.2922 -0.0434
22835W        W37966   3.374  10.022   2.049  0.1442 -0.1552  0.0387
22836W        W37967   0.963   4.277   1.536 -0.2893 -0.1522 -0.2209
22837W        W37968  13.674  11.208   1.189 -0.3385 -0.2003  0.2646
22838W        W37969   4.921  14.293  10.093  0.1876  0.1380  0.1283
22839W        W37970  14.451   6.945  13.761  0.4686  0.2356 -0.1030
22840W        W37971   1.615  11.370   6.313  0.0422  0.1021  0.3060
22841W        W37972   1.365  15.658  10.911  0.1803  0.0881  0.3005
22842W        W37973   0.203  11.607  15.126 -0.4339 -0.0549  0.0697
22843W        W37974   3.004  12.647   5.132 -0.1073 -0.0597  0.0117
22844W        W37975  16.333   4.682   5.476 -0.1152  0.1399 -0.0550
22845W        W37976   3.239   8.921   4.753  0.1825 -0.2831 -0.3398
22846W        W37977   3.091   1.507   2.578  0.2428  0.0950 -0.1333
22847W        W37978  18.001   6.413  13.471 -0.1720  0.0683  0.1218
22848W        W37979  13.268   3.593   3.044 -0.1446  0.1525  0.2632
22849W        W37980   5.638   2.269   1.453 -0.2938 -0.1506 -0.3977
22850W        W37981  16.158   3.566  14.038 -0.0504 -0.0146  0.0941
22851W        W37982   0.844  11.808   1.837  0.0239 -0.1758  0.0183
22852W        W37983   6.990   1.580  13.742 -0.1866  0.0124  0.0535
22853W        W37984  18.373   5.367  13.228  0.0545  0.0899  0.3313
22854W        W37985  13.735   6.714   1.283 -0.0794  0.2420 -0.1030
22855W        W37986  17.527   4.308  15.328 -0.1332 -0.1596 -0.3282
22856W        W37987   7.942  16.492   2.998  0.0949  0.2975 -0.2784
22857W        W37988  11.071   9.468  12.205  0.3013 -0.0597  0.1245
22858W        W37989  12.136  18.299  11.311 -0.1769  0.2506 -0.1410
22859W        W37990   0.285   0.533  14.063  0.2600 -0.1194  0.1721
22860W        W37991   6.719  13.086   3.136  0.0306 -0.1201  0.1430
22861W        W37992   1.823   7.333   1.739  0.0212  0.0671  0.0083
22862W        W37993   7.257   0.057   4.790 -0.0290 -0.2839  0.2020
22863W        W37994  15.183   8.362   1.889  0.3823  0.1545 -0.0026
22864W        W37995   0.573   5.271  14.008 -0.0719 -0.2176  0.0425
22865W        W37996   4.917   2.845   1.587  0.2539 -0.0887 -0.3853
22866W        W37997  11.355   4.144  12.571 -0.0942 -0.0731  0.2349
22867W        W37998   0.827  14.016  12.036  0.0899  0.2293  0.0673
22868W        W37999  14.442   0.791   2.969 -0.1053 -0.0320  0.3504
22869W        W38000   1.992  11.159   5.002 -0.2643 -0.1737  0.0900
22870W        W38001   4.902   5.978   3.216  0.0578  0.0134 -0.2616
22871W        W38002  11.557  10.881   4.774  0.4173  0.1921 -0.1824
22872W        W38003   6.422  15.663   3.573 -0.1923  0.0530  0.1593
22873W        W38004   9.356   0.027   5.084 -0.2169  0.0964  0.0198
22874W        W38005   0.659  16.281  10.823 -0.0937  0.0202 -0.3398
22875W        W38006   1.101  15.183   0.051 -0.3555  0.4098  0.3864
22876W        W38007   0.535  16.304   3.339 -0.3147  0.0047  0.1859
22877W        W38008   5.544  15.721   0.848  0.2541  0.0127 -0.0706
22878W        W38009  13.849  10.929  11.134  0.3765  0.0245 -0.1379
22879W        W38010   1.555  13.456  15.412  0.1423 -0.2786 -0.2869
22880W        W38011  16.730  15.635   1.116 -0.2570 -0.2975  0.0952
22881W        W38012  14.612  11.108   0.768 -0.3339  0.2557  0.0672
22882W        W38013   8.660   3.495   0.637 -0.1033 -0.3256 -0.1217
22883W        W38014  10.602  12.319   4.135  0.0602 -0.2240 -0.0993
22884W        W38015   9.504  10.050  13.141  0.1119  0.0604 -0.1198
22885W        W38016   7.205  11.882   1.487  0.0094  0.0318  0.0160
22886W        W38017  12.356  12.555   2.481 -0.1762  0.1205  0.1589
22887W        W38018  11.136   3.950   1.835 -0.0533 -0.1128  0.0581
22888W        W38019   3.948   9.559   0.380 -0.1649 -0.0218 -0.0513
22889W        W38020  13.226  10.137   0.112 -0.0709 -0.3284 -0.2006
22890W        W38021   2.401   6.020   1.495 -0.0746 -0.0196 -0.0565
22891W        W38022   3.691   3.255   2.133  0.1170 -0.2062 -0.2484
22892W        W38023  15.223  12.999  14.101  0.2015  0.3017 -0.0302
22893W        W38024  14.316  10.825   3.641  0.1345  0.3402  0.2702
22894W        W38025   2.613  14.278   1.669 -0.0108 -0.1305 -0.3069
22895W        W38026   1.330   4.170  13.143  0.1555  0.1522  0.0624
22896W        W38027  12.974  16.756   0.558 -0.0284  0.2694  0.3648
22897W        W38028   9.300   5.000  10.333 -0.1726  0.2655 -0.0484
22898W        W38029   0.314   0.660   1.187 -0.3666 -0.2558 -0.2182
22899W        W38030   4.114  11.383   3.906 -0.3583  0.0909  0.3361
22900W        W38031   0.143  14.276   3.354  0.1304 -0.2733 -0.2327
22901W        W38032  12.920   3.897  11.486  0.3144 -0.1037  0.0203
22902W        W38033   2.543   7.735  13.433 -0.2020  0.3254  0.2631
22903W        W38034   7.098   2.142  15.525  0.1821  0.3206  0.1249
22904W        W38035  13.423   6.808   4.189  0.0040 -0.2218 -0.1099
22905W        W38036  16.196  13.830   3.814 -0.1328 -0.1390  0.1666
22906W        W38037   8.485   9.630  10.432 -0.2065  0.0095  0.0877
22907W        W38038  10.102   2.046   1.362  0.0841 -0.1379 -0.0982
22908W        W38039   1.054  10.639   4.796  0.2655  0.1540  0.0026
22909W        W38040   4.604  12.652   2.626 -0.1140  0.1057 -0.0474
22910W        W38041   4.444   7.616   5.421 -0.2009 -0.4143 -0.0647
22911W        W38042   8.134   7.698  12.371  0.0462 -0.0878 -0.3808
22912W        W38043   6.797   1.559   1.953 -0.1203 -0.1448 -0.3063
22913W        W38044  14.227  12.099  13.840 -0.3331  0.2015  0.2031
22914W        W38045  18.415   0.802   4.764  0.1283  0.1691  0.0632
22915W        W38046  18.167  14.269  14.122  0.1523  0.3754 -0.1918
22916W        W38047   4.348  16.219   1.984 -0.0620  0.1010 -0.1355
22917W        W38048   8.268  12.290   4.882 -0.0931 -0.0038  0.0456
22918W        W38049  10.503  15.686   1.316  0.0912 -0.1372 -0.1225
22919W        W38050   0.695   1.965  14.009  0.3836  0.2878 -0.0337
22920W        W38051  14.621  18.367  15.256 -0.0236  0.0050 -0.1309
22921W        W38052   6.607  11.319  12.105 -0.0133 -0.6657  0.0957
22922W        W38053  13.448   2.064  15.716  0.1323 -0.1634  0.0842
22923W        W38054  11.725  10.298   0.593 -0.1294 -0.0265  0.1643
22924W        W38055  13.925  12.128   4.204 -0.1867 -0.2394  0.1164
22925W        W38056  12.272   2.411  16.070 -0.2618 -0.0474  0.2288
22926W        W38057  12.780  10.607   2.815 -0.2142 -0.2151  0.1074
22927W        W38058  16.953   9.656  13.882 -0.0401  0.2450 -0.0889
22928W        W38059   6.168   1.135  13.691  0.0935 -0.0212 -0.2354
22929W        W38060  17.108  15.080  15.423 -0.1353 -0.0601  0.1835
22930W        W38061  17.712  10.096  14.673  0.0828  0.0680  0.0641
22931W        W38062   0.804  11.783   5.998  0.2776  0.2390 -0.2577
22932W        W38063   9.298   7.058   2.560 -0.1099 -0.0467 -0.1916
22933W        W38064   7.464   6.856   2.934  0.0101 -0.0005 -0.0382
22934W        W38065  11.035   2.761   1.526  0.2196 -0.0351 -0.0766
22935W        W38066   7.439  13.012  13.141 -0.1039  0.1057  0.0743
22936W        W38067   8.826   3.183  13.307 -0.2383  0.2071 -0.3449
22937W        W38068  17.882   9.381   1.216 -0.3498  0.1450  0.0672
22938W        W38069  10.041   9.692  11.505 -0.1447  0.1445  0.2413
22939W        W38070   3.743  17.598  10.712 -0.0441 -0.0236 -0.2992
22940W        W38071   7.410  13.292   5.227  0.0143  0.1660 -0.1897
22941W        W38072  16.953   6.882   4.478  0.1653  0.1292 -0.0123
22942W        W38073  10.471   3.627  14.919  0.0562 -0.0367 -0.2706
22943W        W38074   1.235  13.634  12.934  0.2249  0.0115 -0.1536
22944W        W38075   6.556  16.722   2.332 -0.0314  0.3323 -0.0668
22945W        W38076  13.859  16.466   3.073  0.0265  0.1623  0.1622
22946W        W38077  16.879   1.564   4.040 -0.0738  0.2701 -0.0553
22947W        W38078   0.789  14.936  10.249  0.0202 -0.3568  0.4075
22948W        W38079   4.390   4.089   1.997 -0.1984 -0.0323  0.2717
22949W        W38080  10.602  16.912   3.335 -0.0613  0.1318  0.0853
22950W        W38081   1.262  16.613  13.907  0.1657  0.1127  0.1159
22951W        W38082   1.673  12.997  11.106  0.3817 -0.1841  0.2040
22952W        W38083  10.892  11.702   1.592 -0.2204 -0.1318  0.0695
22953W        W38084   5.210   9.798   3.667 -0.0958  0.0463 -0.0592
22954W        W38085   6.138   0.086  11.598  0.0649 -0.0787  0.1964
22955W        W38086   6.788  18.367   4.972  0.1356  0.0071 -0.1311
22956W        W38087  16.368   0.178  12.027 -0.0683  0.1772  0.2753
22957W        W38088  15.392  15.657   4.863 -0.4066  0.0781 -0.0403
22958W        W38089  13.473   7.123   0.379  0.2467  0.1898  0.0176
22959W        W38090   6.938   7.578  13.929 -0.0223  0.0977  0.2304
22960W        W38091   2.720   4.190   0.551 -0.2179 -0.1005  0.1045
22961W        W38092   5.271   7.363  13.629  0.5157 -0.3714  0.3269
22962W        W38093  10.389   9.434   5.922 -0.0426  0.2163 -0.1573
22963W        W38094  15.096   8.569   5.332  0.0092 -0.2920 -0.2675
22964W        W38095   1.811  17.214  13.438  0.0375  0.0877 -0.1099
22965W        W38096   3.341   5.987   0.636 -0.2797 -0.0353 -0.0388
22966W        W38097   0.475   8.340   2.405 -0.3174  0.0651  0.0371
22967W        W38098   6.683  13.094   2.282 -0.1033 -0.2147  0.0532
22968W        W38099   4.813   8.841   0.671  0.1492 -0.0724  0.1806
22969W        W38100   0.745   3.047  10.431  0.0921 -0.0056 -0.1133
22970W        W38101  11.712  17.993   5.185  0.5352 -0.0395  0.0550
22971W        W38102  17.220  14.496   2.706 -0.1554 -0.0285 -0.1136
22972W        W38103  12.262  11.154   9.851 -0.2062 -0.1785 -0.0150
22973W        W38104   6.336   3.249   5.093 -0.2364  0.0956 -0.4010
22974W        W38105   5.031  13.257   2.333 -0.2401  0.0881 -0.0620
22975W        W38106   7.550   0.201   5.212  0.0273  0.0885 -0.3456
22976W        W38107   6.924  13.472   0.356 -0.2047 -0.1112 -0.0147
22977W        W38108   3.611  11.663   4.669 -0.1473 -0.0950  0.0502
22978W        W38109  14.087   3.857  14.761  0.4664 -0.1300 -0.1863
22979W        W38110  12.611  13.945  15.948  0.2909  0.2927  0.4074
22980W        W38111   7.377   6.668   2.317  0.0383  0.1879  0.4162
22981W        W38112   3.454  12.680  10.278 -0.1383 -0.1575  0.0916
22982W        W38113   8.091   9.790  12.935  0.2444 -0.1143 -0.0963
22983W        W38114   5.565  13.722  13.663  0.1905  0.1317  0.2854
22984W        W38115   9.960   3.641  14.904 -0.0867 -0.2061 -0.4034
22985W        W38116   9.353  10.113  12.043 -0.0167  0.2127  0.2513
22986W        W38117   1.428  16.518   5.084 -0.1133  0.2068  0.0973
22987W        W38118  14.192  13.064  14.184 -0.0969 -0.0151 -0.2394
22988W        W38119  12.254  10.193   2.516  0.0376  0.0495  0.2555
22989W        W38120  17.397  12.829  13.522 -0.3003  0.0888 -0.2263
22990W        W38121  17.333  11.761   1.687  0.6742 -0.3098 -0.0166
22991W        W38122   4.833   2.064   1.175  0.1961 -0.1998  0.3173
22992W        W38123   5.639  10.581   2.860  0.0297 -0.0617  0.0537
22993W        W38124   9.455  16.942  14.215 -0.0491 -0.0594 -0.0498
22994W        W38125  13.189  10.241   5.086  0.1277  0.0167 -0.3245
22995W        W38126  15.797  12.041  10.225 -0.1706 -0.2099 -0.3547
22996W        W38127   5.057  10.183  13.252 -0.1190 -0.1824 -0.0645
22997W        W38128   7.712   8.833  12.999  0.1038  0.1419 -0.0615
22998W        W38129  10.644   2.657  13.026 -0.2069 -0.1369  0.0412
22999W        W38130  12.621  16.124  12.037  0.3332  0.1189  0.1668
23000W        W38131  13.564  16.549  14.367 -0.4800  0.1428 -0.3594
23001W        W38132   8.447  10.664  12.518 -0.2278 -0.0422  0.0450
23002W        W38133  15.216   3.467  12.783  0.3425 -0.0253 -0.1694
23003W        W38134   2.746   0.484   0.810 -0.2414  0.0287  0.0753
23004W        W38135  15.619   3.520   1.964  0.1433 -0.3786 -0.4652
23005W        W38136  11.388   1.557  15.998 -0.4984  0.2271 -0.2756
23006W        W38137   0.184   2.571  15.422 -0.2670 -0.3278  0.0873
23007W        W38138   8.028  12.754  14.698 -0.1026 -0.0845  0.1051
23008W        W38139   0.799   1.666  11.321 -0.2027  0.0261  0.1644
23009W        W38140  17.355   8.348   3.647 -0.1561  0.0828 -0.1466
23010W        W38141   1.439   6.852  15.525  0.2371 -0.0577  0.0795
23011W        W38142  12.711   2.624   4.201  0.1017  0.3361  0.0814
23012W        W38143   0.890  11.536  11.365  0.3187 -0.2052  0.0919
23013W        W38144   2.247  17.784   1.509 -0.0137 -0.3603 -0.1360
23014W        W38145   0.133   5.157  15.611  0.3395  0.0706  0.0621
23015W        W38146   6.699   8.904  15.884 -0.2739 -0.3297  0.0503
23016W        W38147   4.743   7.128   5.166 -0.0057 -0.3044  0.1657
23017W        W38148   7.980   4.583   4.696  0.0163  0.2510 -0.2567
23018W        W38149   8.949   8.163  12.044  0.2343 -0.2527  0.3205
23019W        W38150   2.041   4.899  12.404  0.0040 -0.0402 -0.1243
23020W        W38151  18.339  11.517   1.183 -0.0432 -0.1682  0.2395
23021W        W38152   8.110  14.654   2.726  0.2127 -0.1868 -0.1356
23022W        W38153  16.235   2.428  12.311 -0.2470 -0.1654 -0.3251
23023W        W38154  17.379  11.459  12.292 -0.5267  0.3659  0.3843
23024W        W38155   8.139   0.112   3.186 -0.1435  0.2276  0.2468
23025W        W38156  14.828  11.977   3.750 -0.0132  0.0702 -0.1212
23026W        W38157  16.353   2.539   0.650 -0.1733 -0.0023 -0.1107
23027W        W38158  14.089  14.031   1.021  0.3027 -0.0720 -0.0017
23028W        W38159  13.904   1.151  11.915  0.2458 -0.0112 -0.3053
23029W        W38160   4.340   4.245  11.854  0.2880 -0.0526 -0.1083
23030W        W38161   6.643   7.077   1.163 -0.0636 -0.0360  0.0058
23031W        W38162  10.319  14.729   2.946 -0.2358  0.0308  0.1246
23032W        W38163  13.307  11.437  14.606  0.2651 -0.1276  0.0935
23033W        W38164   5.411   8.841  13.624 -0.0275 -0.1026  0.1967
23034W        W38165  10.290   0.355  15.989 -0.1807 -0.2322  0.3325
23035W        W38166  10.843  16.383   3.708 -0.0362  0.0332 -0.1721
23036W        W38167   3.535   8.336   2.910 -0.1209 -0.1482  0.4429
23037W        W38168   7.602   9.131  12.435  0.0069  0.5014 -0.0416
23038W        W38169   3.816  12.830   3.076  0.0231  0.0848  0.0794
23039W        W38170   7.060   2.988   6.030 -0.2593  0.1992  0.1278
23040W        W38171   2.977   6.079   1.887 -0.1184  0.2100  0.0586
23041W        W38172  12.430  15.232  11.960 -0.1758 -0.0756  0.0083
23042W        W38173   5.395  14.381  12.377 -0.0851  0.1246  0.1073
23043W        W38174  14.024  15.599   2.844 -0.0179  0.2566 -0.0761
23044W        W38175   4.443  12.378   0.631 -0.0415  0.2519 -0.2425
23045W        W38176   9.876   3.505   1.406 -0.0159  0.0315  0.1518
23046W        W38177  15.702   3.731   0.143 -0.0315  0.1695 -0.3855
23047W        W38178   3.404   0.180  10.840  0.2281  0.4667 -0.1028
23048W        W38179  12.834   9.841   4.961  0.0451  0.0932 -0.0253
23049W        W38180   3.658   3.866  13.566 -0.0530 -0.1188  0.2079
23050W        W38181  12.215  17.482   3.060 -0.1360 -0.2134  0.3172
23051W        W38182  14.213  15.855   4.228 -0.1081  0.0383 -0.1600
23052W        W38183  10.306  14.800   0.983 -0.2712  0.1799  0.1705
23053W        W38184   4.488  12.893  13.081  0.1524 -0.1002 -0.1618
23054W        W38185  18.137  12.202   0.745 -0.3081 -0.1248 -0.0656
23055W        W38186   0.449   8.301   0.266 -0.0211 -0.1549  0.0458
23056W        W38187   8.033   4.066   5.388 -0.1697  0.2001  0.1657
23057W        W38188  12.371  10.537  11.162 -0.1338  0.2423  0.3239
23058W        W38189   3.843  17.966  13.265  0.2734  0.1567 -0.0140
23059W        W38190  15.627   8.063  15.251  0.3126 -0.2028  0.0562
23060W        W38191  14.207   0.972   0.586 -0.1228  0.3064 -0.2904
23061W        W38192   1.260  12.108   4.572 -0.0386  0.1591  0.1524
23062W        W38193   8.240   3.666   1.264  0.3191  0.0719  0.0272
23063W        W38194   2.420  18.268  11.469 -0.1968  0.1003 -0.2016
23064W        W38195  10.500   4.218   1.097 -0.0235 -0.1129 -0.0173
23065W        W38196  18.124  11.858  14.488 -0.1921  0.0739  0.1365
23066W        W38197  12.531  12.174  12.759  0.1035 -0.0186  0.0106
23067W        W38198   7.004   4.657   5.382 -0.1810  0.0093  0.0732
23068W        W38199   9.218   2.049   3.679 -0.0920  0.2202  0.0121
23069W        W38200   7.517   1.387   0.016  0.0418  0.0376 -0.3768
23070W        W38201  17.284   8.782   2.589 -0.3495  0.0396  0.1488
23071W        W38202   7.610   0.151  12.888  0.0128  0.2255  0.1101
23072W        W38203   0.819   7.334   0.027  0.0002 -0.1662 -0.2065
23073W        W38204   6.307  15.289  11.837 -0.0070 -0.0233 -0.0572
23074W        W38205  13.943   9.326   5.313 -0.0352  0.3602  0.2594
23075W        W38206  17.303  13.630   3.724 -0.1060  0.1695 -0.3217
23076W        W38207   5.016   4.496  15.824  0.2601  0.2762  0.0746
23077W        W38208   5.923   9.509  14.678 -0.0808  0.3380  0.1182
23078W        W38209   4.351  17.143  10.806 -0.0133  0.2417 -0.2115
23079W        W38210  14.789   4.509  12.476  0.0575  0.0881  0.1641
23080W        W38211   6.518   5.429  13.446 -0.3987  0.1895 -0.0361
23081W        W38212  12.449  14.689   1.625 -0.2731 -0.1708  0.0777
23082W        W38213  15.092  16.762   0.308 -0.0542  0.1308 -0.0112
23083W        W38214  10.392  12.706   0.044 -0.1645  0.0321  0.4860
23084W        W38215  12.073   8.975  13.573  0.1792 -0.0084 -0.1739
23085W        W38216  12.982   2.817   4.877  0.2118  0.1983 -0.1566
23086W        W38217  14.333   7.945   3.108 -0.1387 -0.0150 -0.0823
23087W        W38218  10.144   6.556   5.543 -0.3764  0.2334  0.1278
23088W        W38219  10.818  14.496   3.548 -0.2364  0.1735 -0.0452
23089W        W38220  10.247  16.957   5.239  0.0831 -0.0232  0.1305
23090W        W38221   7.764  16.371  14.483 -0.0626  0.0214  0.1687
23091W        W38222   7.449   3.226   2.793 -0.1414 -0.1237 -0.1720
23092W        W38223  14.040   1.695   1.562 -0.1741 -0.2107 -0.1941
23093W        W38224  11.214   8.113   3.221  0.3787 -0.2393 -0.4105
23094W        W38225  13.836  14.753  13.085 -0.1072 -0.0580 -0.0549
23095W        W38226   2.867   6.119  15.251  0.0383  0.4393  0.1618
23096W        W38227   9.728   7.565   4.123 -0.2252  0.2760 -0.1160
23097W        W38228  15.951   4.040   0.331 -0.0669 -0.1317 -0.3107
23098W        W38229   5.162  17.544  12.047 -0.3241 -0.0409  0.2135
23099W        W38230   7.616   3.711   1.313  0.3318  0.0054 -0.1007
23100W        W38231  10.658  15.050  15.325 -0.0299  0.1737  0.1531
23101W        W38232   8.988  15.021  12.809 -0.2377  0.3587 -0.6050
23102W        W38233  17.872   8.443  11.213  0.1586  0.0898 -0.0716
23103W        W38234   9.790   7.341  13.181 -0.1279  0.0525 -0.1016
23104W        W38235   8.490  12.477  12.492 -0.0037 -0.0376 -0.1906
23105W        W38236   2.391   9.459   2.909  0.0879  0.4612  0.0008
23106W        W38237  16.362  12.606   2.129  0.2197 -0.1485 -0.0287
23107W        W38238  15.906  15.921   0.014 -0.1659  0.0205  0.1118
23108W        W38239   0.126   9.553   1.416  0.1314  0.0432  0.3085
23109W        W38240   3.473   5.091  14.257 -0.0983  0.2930 -0.2416
23110W        W38241  15.998   8.133   5.617  0.1646 -0.1788  0.0440
23111W        W38242   7.228   5.307  12.426  0.0461  0.2268 -0.0787
23112W        W38243  15.421   4.686  11.680 -0.0021 -0.1547 -0.2506
23113W        W38244  13.623   2.756  12.198 -0.0525  0.1025  0.0684
23114W        W38245   3.231   6.915   3.506  0.0846  0.1865  0.2557
23115W        W38246   1.286  12.089   1.140 -0.0398  0.1791 -0.0641
23116W        W38247   6.270  11.075   4.550 -0.0029 -0.2182  0.0935
23117W        W38248   2.370  14.388  14.584 -0.2521 -0.0801 -0.4077
23118W        W38249  13.282   9.581  13.395  0.0243  0.5266  0.1365
23119W        W38250   1.840   9.779  13.211  0.2214  0.1281 -0.1323
23120W        W38251  15.676   9.315   1.419 -0.2396  0.0551  0.3839
23121W        W38252  14.777  12.942   6.018 -0.5116 -0.1025 -0.1027
23122W        W38253  17.675   6.915   3.397  0.4506 -0.1079 -0.1009
23123W        W38254  10.152  13.527   5.384  0.2161  0.0342  0.1958
23124W        W38255  16.074  13.976   1.851  0.2405  0.2063 -0.0436
23125W        W38256  15.766   7.195   2.943 -0.1714  0.0492 -0.3721
23126W        W38257   9.862  11.812  13.212 -0.2798  0.2033 -0.1033
23127W        W38258  18.074  11.729   2.137  0.1274  0.2490  0.0502
23128W        W38259   1.650   5.032   0.718 -0.3271 -0.1112 -0.3752
23129W        W38260  12.065   1.329   2.784 -0.1487  0.0995  0.0316
23130W        W38261   5.704  16.069   4.349 -0.0287 -0.1221  0.0300
23131W        W38262   5.082   0.209  14.569  0.5372 -0.1614 -0.2812
23132W        W38263  13.813  11.126   3.032  0.1370  0.2540  0.1148
23133W        W38264   1.377   8.690   1.485 -0.1976  0.0399  0.0409
23134W        W38265  10.384   0.290   2.916 -0.1354 -0.0068 -0.1689
23135W        W38266   1.194   4.242  14.914 -0.2064 -0.1474 -0.2720
23136W        W38267   3.417   8.812   5.771  0.0344  0.2696  0.1987
23137W        W38268   3.285   3.270  15.014  0.0278 -0.5254 -0.0471
23138W        W38269   6.463  12.971   2.724  0.0105  0.2351 -0.0214
23139W        W38270   8.510  14.366  14.584  0.1134 -0.0045 -0.2486
23140W        W38271  15.856  15.178   1.394 -0.1241  0.1019  0.0310
23141W        W38272  14.492   3.551   3.354  0.2236 -0.0172 -0.2247
23142W        W38273   3.021   6.475   2.268  0.0975  0.0278  0.0460
23143W        W38274   2.013  11.530   0.837 -0.1731  0.0262 -0.1056
23144W        W38275   6.770  12.262   2.189  0.2059  0.0556 -0.1580
23145W        W38276  15.752  14.551   3.077  0.2917  0.0921  0.1438
23146W        W38277  18.006   7.065  13.722 -0.2109  0.0606 -0.2524
23147W        W38278  11.970   0.745  11.013  0.1330 -0.1621 -0.2181
23148W        W38279  11.941   9.586   6.058 -0.0570  0.3597 -0.1201
23149W        W38280   4.199  13.675   1.280  0.1315 -0.1142  0.1304
23150W        W38281   3.832   4.143  11.809 -0.1804  0.1012  0.1338
23151W        W38282   9.125   5.488   3.935 -0.0594  0.1183 -0.0910
23152W        W38283  17.064   5.543   0.367  0.1188  0.1094 -0.2563
23153W        W38284   9.006   0.531   2.644  0.2224  0.1851  0.2960
23154W        W38285   0.539   4.321   1.979 -0.3330 -0.3191  0.1451
23155W        W38286  12.740  11.311   3.376  0.0530 -0.3205 -0.4811
23156W        W38287   6.505  15.462  12.428 -0.0305  0.0271 -0.0505
23157W        W38288  12.543   8.760   2.126  0.0950 -0.3627  0.1008
23158W        W38289   5.328   4.348  13.426  0.1187  0.1162  0.1369
23159W        W38290   5.830   2.508   1.960  0.1037 -0.1127 -0.2338
23160W        W38291   1.297  15.822   5.290  0.0818  0.2097  0.1723
23161W        W38292   9.351  13.331  13.661  0.2437 -0.3069  0.0116
23162W        W38293  17.413  11.455   2.099  0.1028 -0.0774  0.0062
23163W        W38294   8.763   8.270   4.323 -0.0352  0.0013  0.0098
23164W        W38295   3.254  12.384   4.196 -0.2510 -0.1692 -0.0640
23165W        W38296  16.209   2.764   2.082 -0.0636  0.0464 -0.3645
23166W        W38297   1.535   5.789  10.756  0.0375  0.4275 -0.1891
23167W        W38298   9.000   6.877  12.502 -0.0774 -0.2015  0.1495
23168W        W38299   2.423   3.439   0.681 -0.0260  0.1217  0.0860
23169W        W38300  15.907   9.609   6.523  0.0441 -0.0914 -0.0416
23170W        W38301  14.220  10.900  13.681 -0.3603  0.1296  0.0529
23171W        W38302  15.329   9.417  12.872 -0.2751  0.0374  0.2708
23172W        W38303  17.638   2.439   5.210 -0.1408 -0.1912 -0.1291
23173W        W38304  11.281   7.914  14.801 -0.2165 -0.0688  0.2635
23174W        W38305  11.599   7.197   5.620 -0.0572 -0.0241 -0.0773
23175W        W38306   1.564   4.835  10.643  0.2609  0.1694  0.0157
23176W        W38307   4.802   9.953   5.175 -0.0790  0.0087 -0.1309
23177W        W38308   3.606   4.429  10.091  0.0184  0.2113 -0.0113
23178W        W38309  11.102   6.645   5.882  0.1444  0.2917  0.0461
23179W        W38310  10.219   0.207   5.170 -0.0150 -0.1228  0.3990
23180W        W38311  14.043   4.559   4.672 -0.0201 -0.0652 -0.2946
23181W        W38312  15.117  16.350  15.318  0.1644 -0.1391 -0.1440
23182W        W38313   8.327  12.380  14.209  0.1052  0.1711 -0.0001
23183W        W38314   2.371   5.774   0.393 -0.0236  0.0855  0.1346
23184W        W38315   5.708  14.620  15.896  0.0765 -0.1059 -0.0613
23185W        W38316   7.734   3.615  15.831  0.0264 -0.2883 -0.0393
23186W        W38317  12.920   4.805   2.079 -0.0201  0.2375  0.1914
23187W        W38318   1.521  17.546   4.871 -0.0744 -0.3192 -0.0015
23188W        W38319   7.818  16.784  14.090 -0.1082  0.0559 -0.1147
23189W        W38320   5.956  15.882   3.602  0.0342  0.1049  0.1937
23190W        W38321   1.972  11.258  11.432  0.1660  0.3052 -0.1805
23191W        W38322   8.344  10.119  11.785 -0.0869 -0.1699 -0.0404
23192W        W38323  13.572   4.917   1.347 -0.2525 -0.1325 -0.1276
23193W        W38324  15.500  18.064   1.381  0.0697  0.2209 -0.3129
23194W        W38325   2.048  15.762   2.372  0.1284 -0.1876  0.2426
23195W        W38326  18.139  13.745  15.562  0.2128  0.0730 -0.0773
23196W        W38327  14.853   7.266   5.401  0.1528 -0.2854  0.0379
23197W        W38328   2.992   7.769  12.442  0.4642 -0.0102 -0.2215
23198W        W38329  16.165  13.509   2.153  0.1923 -0.2308 -0.1176
23199W        W38330  14.912   1.193  15.981 -0.0264 -0.0897  0.0805
23200W        W38331   4.920  16.657  13.765  0.0441  0.4219 -0.0194
23201W        W38332  14.278  15.236   2.572  0.1225 -0.1843  0.0164
23202W        W38333  12.998  18.097  12.251 -0.0307  0.0946 -0.0837
23203W        W38334  10.806  17.945   2.565 -0.3075  0.1547 -0.1895
23204W        W38335   1.615   7.586   4.049  0.2822 -0.0280 -0.1590
23205W        W38336   9.691  16.389   2.173  0.1224  0.2069  0.2235
23206W        W38337  13.223  13.894  12.858 -0.0987 -0.0171  0.0099
23207W        W38338  10.827  14.356   2.078 -0.1866  0.1183  0.3383
23208W        W38339  17.330   9.322   4.997 -0.0310  0.0012  0.2141
23209W        W38340   5.686   7.236   2.041 -0.3945 -0.0801  0.3977
23210W        W38341  16.315   9.765  12.635  0.2334 -0.0605 -0.0602
23211W        W38342  18.425  17.548   1.704 -0.0486 -0.0674 -0.0753
23212W        W38343   4.466  18.078  11.733  0.1804 -0.2127  0.3217
23213W        W38344   0.371  13.561  14.474  0.0270 -0.1126 -0.1188
23214W        W38345   5.520  14.203   5.859  0.1025 -0.1935 -0.0351
23215W        W38346   7.943   0.861   3.645 -0.1642 -0.0851  0.0321
23216W        W38347  14.500   3.702  15.016  0.0323  0.0310 -0.0593
23217W        W38348   2.489  12.760  10.538  0.1309 -0.1897 -0.2164
23218W        W38349   3.466   9.872   6.479  0.1426 -0.0692  0.0560
23219W        W38350  13.999   9.274   0.237 -0.0497 -0.1542 -0.0148
23220W        W38351  18.479   4.774  11.995  0.1577 -0.1372 -0.1941
23221W        W38352   9.335   2.750   4.862  0.0085  0.0878 -0.1264
23222W        W38353   9.536   5.787   4.627  0.2074 -0.6134  0.0699
23223W        W38354   5.839   3.403  10.605 -0.5866 -0.0451 -0.0795
23224W        W38355   6.665   1.159   1.598  0.1071  0.0274  0.0386
23225W        W38356   4.976  14.572  15.498  0.1832 -0.1459 -0.0197
23226W        W38357  16.076   8.935   1.306 -0.1875  0.2154  0.1564
23227W        W38358  16.784  17.481   4.267  0.3096 -0.1237 -0.0825
23228W        W38359   9.040  17.869   3.707  0.3398 -0.0728  0.2016
23229W        W38360   6.185  14.402  14.668 -0.0272 -0.4159  0.0931
23230W        W38361  14.901   1.158  13.274 -0.0108 -0.0499 -0.1612
23231W        W38362   7.659   0.942   5.814 -0.0018 -0.1621  0.2602
23232W        W38363   2.526   1.628  14.200 -0.2157  0.2780  0.2521
23233W        W38364   9.778   9.139   0.633 -0.2337 -0.2516 -0.1961
23234W        W38365   5.324   5.620  13.982 -0.0293 -0.1078 -0.0831
23235W        W38366  11.634   7.918   3.462 -0.0193 -0.1515 -0.0713
23236W        W38367  13.792   5.206  13.583 -0.2203  0.2800 -0.2794
23237W        W38368   8.759  15.475  14.814  0.0749 -0.0627  0.0056
23238W        W38369   4.699  12.817  13.645  0.0309  0.3562 -0.1612
23239W        W38370   5.572   7.863   2.404 -0.0054 -0.1355 -0.0619
23240W        W38371   3.985   2.016   4.434 -0.2938  0.0457 -0.2580
23241W        W38372   5.930  14.461   2.199 -0.0877  0.0302 -0.1161
23242W        W38373   7.930   1.895   5.577  0.0786  0.1921  0.0434
23243W        W38374   0.028   9.820  13.868  0.2190  0.0979  0.1598
23244W        W38375  14.241   6.713   0.024 -0.0949 -0.0700  0.0504
23245W        W38376   3.481  10.113  10.242 -0.0891  0.0869 -0.1928
23246W        W38377  16.199   1.421   1.602  0.1091 -0.1886  0.1454
23247W        W38378  18.003   2.272   3.493 -0.0203 -0.1200  0.0091
23248W        W38379   8.675   3.391  16.037 -0.1378 -0.1797  0.0440
23249W        W38380   6.081   0.445   4.199  0.1967  0.1341  0.1834
23250W        W38381  12.581   4.993   0.925 -0.0276 -0.0550 -0.1606
23251W        W38382  17.255  15.343   2.235 -0.2552  0.1472  0.0246
23252W        W38383  10.314   7.569   4.167  0.1063 -0.0544 -0.4382
23253W        W38384  10.925   3.592   6.095  0.0955 -0.2524 -0.1336
23254W        W38385  12.098  17.774   2.630  0.0169 -0.2295  0.2307
23255W        W38386  12.927  13.132  15.763  0.0027 -0.1256  0.2711
23256W        W38387   0.002  17.838   1.193  0.1437  0.1201 -0.1400
23257W        W38388   5.722   4.053  12.017  0.2603 -0.5136 -0.0300
23258W        W38389   9.258   9.975  14.882  0.0086 -0.2994  0.0651
23259W        W38390   2.945   4.708  14.813 -0.0422 -0.0496  0.0898
23260W        W38391  14.093  12.104  15.888 -0.3284 -0.0370 -0.2428
23261W        W38392   9.908  11.449  15.745 -0.0290 -0.0725  0.3752
23262W        W38393  11.957  11.431   0.665  0.2144  0.2925 -0.1135
23263W        W38394   9.671   8.939   0.195 -0.0322 -0.2334  0.0386
23264W        W38395   6.440  14.133   3.063 -0.1711 -0.1506  0.0837
23265W        W38396  17.447   0.474   9.556  0.2601 -0.2159 -0.2954
23266W        W38397  13.771  16.056   1.464 -0.1197 -0.0700  0.0345
23267W        W38398  18.428  16.794   0.580  0.1358 -0.2474  0.1272
23268W        W38399  12.465  10.306   5.057 -0.0831 -0.1230 -0.1814
23269W        W38400  15.762  16.641   3.916 -0.2725 -0.0057  0.3123
23270W        W38401  11.870   1.028   0.931 -0.1892  0.4253 -0.0948
23271W        W38402  11.697  16.957  14.165 -0.3487 -0.0373 -0.0082
23272W        W38403   3.050   4.638  15.425  0.2191  0.1527  0.2970
23273W        W38404  16.444   8.651   2.257 -0.3040  0.0999  0.1819
23274W        W38405   5.584   6.108  12.794  0.1740  0.0584  0.0726
23275W        W38406   1.581  13.124   3.476  0.3869  0.1032 -0.0260
23276W        W38407  15.847   1.666  15.540  0.1807 -0.2532  0.0251
23277W        W38408  15.061   0.950   4.971 -0.1392  0.0777 -0.2022
23278W        W38409  16.141  12.797  12.518 -0.2828 -0.3753 -0.2818
23279W        W38410   7.947  15.383  10.599 -0.1861  0.0307  0.3749
23280W        W38411  15.625   2.828   0.033  0.1625 -0.2738  0.0706
23281W        W38412  11.672   7.116  11.752 -0.1419 -0.0295 -0.1811
23282W        W38413  17.573  13.494   4.151 -0.0040  0.1528  0.0221
23283W        W38414  17.356   4.425  12.683 -0.0259 -0.2585 -0.2185
23284W        W38415  11.928   7.535   4.361 -0.0393  0.0255 -0.2299
23285W        W38416   2.126   7.637  14.535  0.1008 -0.1110 -0.0754
23286W        W38417   5.063  12.613   3.168  0.0094  0.1325  0.0609
23287W        W38418  11.742  15.357   5.185 -0.1122  0.3164  0.2081
23288W        W38419   7.667  11.711   4.444 -0.2206  0.2824 -0.0331
23289W        W38420  16.234  10.805   1.841  0.1997 -0.0798 -0.0352
23290W        W38421   3.973  11.585   5.109 -0.1636 -0.1754  0.3530
23291W        W38422   9.480   5.018  13.970 -0.3143 -0.1207 -0.1375
23292W        W38423   8.755  14.702   9.938 -0.1257  0.0586  0.1941
23293W        W38424  17.971   3.462  12.201  0.1847 -0.2705 -0.2398
23294W        W38425  15.180  10.662   2.503 -0.3077  0.0939 -0.0070
23295W        W38426  13.198   2.135  11.735 -0.3546  0.1322 -0.2367
23296W        W38427   8.370  16.637   5.392 -0.0841 -0.1582  0.5961
23297W        W38428  10.978  11.863  14.039  0.1031 -0.1965  0.4544
23298W        W38429  14.216  10.661   0.829 -0.2395  0.2015  0.1920
23299W        W38430  13.632   9.780   2.825 -0.1886 -0.2014  0.1537
23300W        W38431   8.799  17.112  10.931 -0.0694 -0.1253  0.6203
23301W        W38432  10.316  10.145  12.386  0.1359 -0.0548 -0.0268
23302W        W38433   3.143   2.140   4.030 -0.1690 -0.1052 -0.5273
23303W        W38434  15.568   1.125   3.758  0.0060  0.1511 -0.0854
23304W        W38435   0.164  17.452  13.833 -0.0678 -0.3455 -0.0378
23305W        W38436  14.800   3.868   3.507 -0.3120 -0.1364  0.0364
23306W        W38437  17.383  16.584   1.386 -0.2258  0.1930  0.0115
23307W        W38438   4.851  15.668  14.912 -0.1281  0.1136 -0.0375
23308W        W38439  13.125  17.328  12.425  0.4808  0.2372 -0.1014
23309W        W38440  13.853   3.880  13.957  0.1421 -0.2405 -0.0189
23310W        W38441   3.358   0.712  11.053 -0.0679 -0.0566 -0.1982
23311W        W38442  13.310   6.491   2.533  0.0472 -0.1086 -0.3272
23312W        W38443   2.380   8.663  14.647 -0.0499 -0.1927  0.3290
23313W        W38444   7.239   9.434   2.511  0.2193 -0.2658  0.4518
23314W        W38445   8.956   2.574   3.594  0.1921 -0.1812  0.2546
23315W        W38446   0.300   3.570   1.134 -0.5115 -0.0553  0.2923
23316W        W38447   4.134  16.718  10.615  0.0652 -0.0251 -0.0128
23317W        W38448   5.876   1.557  14.517 -0.0030 -0.4188  0.1035
23318W        W38449   6.146  13.518  12.058  0.2036  0.1966 -0.1113
23319W        W38450  12.007  13.591   2.620 -0.0056 -0.0574  0.1571
23320W        W38451  15.776   1.515   4.755  0.0160  0.1528  0.6192
23321W        W38452   4.800  11.124  13.083  0.0666 -0.1034 -0.3785
23322W        W38453  11.824   4.354  12.603 -0.1263  0.2025 -0.2095
23323W        W38454  14.661  16.463  10.807 -0.0898 -0.1694  0.2193
23324W        W38455  11.319  17.584  11.311 -0.0790 -0.0461 -0.0008
23325W        W38456   3.089  13.303   1.178 -0.2949  0.0743 -0.2261
23326W        W38457   1.726   2.250  15.868  0.1484 -0.1310  0.0179
23327W        W38458  14.624  10.001  15.985 -0.1961 -0.2150  0.1710
23328W        W38459   7.101  10.310  15.115  0.1292  0.3330 -0.4409
23329W        W38460  12.415  13.812  12.827 -0.0778 -0.2912 -0.2783
23330W        W38461   6.177   9.440  11.957 -0.2614  0.0650  0.2866
23331W        W38462  10.776   6.103   4.201 -0.1510  0.0061 -0.1043
23332W        W38463   3.865   2.069  13.464 -0.0520  0.2096 -0.0859
23333W        W38464  10.507   6.275   0.085  0.1415 -0.1082  0.1247
23334W        W38465   6.814  18.406   1.046 -0.2125 -0.2078 -0.0965
23335W        W38466  10.831   4.387   3.507 -0.0355 -0.1248  0.3264
23336W        W38467  16.298   8.475   1.331 -0.1882  0.1052 -0.0756
23337W        W38468   8.331   7.019   2.232 -0.0201  0.2938  0.1796
23338W        W38469   9.182   6.350  12.052  0.1483 -0.0884  0.0357
23339W        W38470   7.404  11.230  13.238 -0.1217 -0.1525  0.1726
23340W        W38471   7.161  14.717  10.377  0.0733 -0.0468  0.0559
23341W        W38472   0.765  13.679  11.439  0.0244  0.3997 -0.0717
23342W        W38473   4.250   8.823  13.825 -0.0470 -0.3080  0.0580
23343W        W38474   1.244   8.019  13.863 -0.1744 -0.2816  0.4326
23344W        W38475   0.129  17.261   0.797  0.0835 -0.1807  0.1348
23345W        W38476  13.950   1.166   3.760  0.2818 -0.1825  0.0108
23346W        W38477  15.764   9.813   2.850 -0.2092  0.1441 -0.1086
23347W        W38478  16.855  15.913  13.535  0.2815 -0.0771 -0.1835
23348W        W38479   0.578  16.889   2.234  0.0517  0.1726 -0.0937
23349W        W38480   2.706   6.177   3.777  0.0198 -0.1873  0.4202
23350W        W38481   2.815   3.164   0.812  0.0077  0.2541 -0.0183
23351W        W38482   5.152   1.191  13.978 -0.2440 -0.0964 -0.0069
23352W        W38483  16.032   2.759  14.821  0.1137 -0.3298 -0.0668
23353W        W38484   9.614  13.792  15.205  0.0890  0.0029 -0.0069
23354W        W38485  10.860   7.678   3.317 -0.1321  0.2387  0.1242
23355W        W38486   2.770  14.647   3.157 -0.0826 -0.2200 -0.1405
23356W        W38487  17.621   8.674  15.438  0.0373  0.0962  0.2665
23357W        W38488   6.020  10.720  12.482 -0.1521  0.2665  0.0391
23358W        W38489   4.525   1.533   3.221  0.1354  0.0898  0.1734
23359W        W38490  18.398   0.841  14.301 -0.3618 -0.0242  0.0194
23360W        W38491  14.697  17.475  10.885 -0.1642 -0.3373  0.0386
23361W        W38492   0.838   6.711   1.176  0.1507  0.1020 -0.0624
23362W        W38493  18.042   7.571   2.373 -0.0072 -0.1369 -0.0445
23363W        W38494  12.498  13.974  12.249  0.0221  0.2694  0.1390
23364W        W38495   3.116   4.115   2.427 -0.2577 -0.0903  0.0390
23365W        W38496  10.994   9.314  15.952 -0.1104  0.0228 -0.1976
23366W        W38497   9.372  16.543   4.507 -0.1166 -0.0905  0.1078
23367W        W38498  10.510   6.931  12.385  0.0074 -0.1769 -0.0146
23368W        W38499  17.027   0.661  13.903  0.1867  0.0657 -0.2566
23369W        W38500   6.123   6.762   3.329 -0.1645  0.0188 -0.1278
23370W        W38501  13.393   8.969  15.035 -0.0340  0.0934  0.2007
23371W        W38502  11.542  11.564  14.156  0.1670  0.2829  0.4304
23372W        W38503   7.308  10.012   5.011 -0.1976  0.1175 -0.0440
23373W        W38504  11.424   8.774  12.007 -0.1381  0.0704 -0.1882
23374W        W38505   6.452  10.264   0.707  0.1557 -0.0073 -0.1560
23375W        W38506   4.092  15.455   2.632  0.2515  0.1083 -0.0689
23376W        W38507   7.884  15.650   2.820  0.2342 -0.1464  0.1219
23377W        W38508   0.861  17.843   4.567  0.1110  0.2585 -0.2553
23378W        W38509   3.009   0.556  14.471 -0.2966  0.2209  0.0247
23379W        W38510   5.096  16.596  14.766  0.2452  0.1490 -0.2758
23380W        W38511  14.903   0.468  11.277 -0.0299 -0.1228  0.1523
23381W        W38512  16.871   0.671  15.581 -0.3051 -0.0583  0.1948
23382W        W38513   4.057   4.716  15.483  0.1915  0.1167  0.1872
23383W        W38514   4.045  13.806   4.232  0.2451  0.1068 -0.0265
23384W        W38515  16.798   8.478  15.657 -0.0139 -0.0972 -0.3147
23385W        W38516  16.329   8.035   0.471 -0.0683 -0.3813 -0.0951
23386W        W38517  14.253  13.238  15.279  0.4933 -0.0977 -0.1904
23387W        W38518   4.649  12.844   3.091 -0.4897  0.0957  0.1851
23388W        W38519   9.905  16.945   0.750 -0.1960 -0.1438 -0.1079
23389W        W38520  10.216   3.890   0.775 -0.0110 -0.0110  0.0020
23390W        W38521   1.903   9.485   0.086  0.1919  0.0535 -0.1534
23391W        W38522   6.992   7.293   6.088  0.2253 -0.3681  0.0348
23392W        W38523   9.693  16.333  14.205  0.1443 -0.1664  0.0068
23393W        W38524   4.873  12.227   2.821 -0.2155  0.0437 -0.1449
23394W        W38525  14.760  12.614   5.611  0.1554 -0.3313  0.1879
23395W        W38526  13.026  13.109  11.073  0.1315 -0.3108 -0.4509
23396W        W38527   4.948   1.225  11.634  0.1307  0.0265 -0.1089
23397W        W38528  11.090  15.991  13.613 -0.2922 -0.0849  0.1544
23398W        W38529  12.826  14.284  11.700  0.3102  0.2222 -0.1157
23399W        W38530   7.408   1.588   4.888  0.1732 -0.2056 -0.1886
23400W        W38531  14.531   1.394   1.230  0.1716  0.1096 -0.1318
23401W        W38532   1.238  11.571   1.003  0.2188  0.0384  0.0272
23402W        W38533   9.913   8.822  11.499  0.2318 -0.1166  0.0664
23403W        W38534   3.903  15.934   2.388 -0.3644 -0.0871  0.3252
23404W        W38535   9.386  13.526   4.934 -0.0671  0.3572 -0.2867
23405W        W38536   4.139   3.164  12.460 -0.1723  0.0976  0.1231
23406W        W38537  16.977   8.444   5.291  0.2001  0.1292 -0.0351
23407W        W38538   9.881  16.206  12.803  0.1002 -0.2137  0.0022
23408W        W38539   8.246   5.220   2.456  0.1969  0.1819 -0.2778
23409W        W38540   0.413   1.159  15.887 -0.2692 -0.1245 -0.2257
23410W        W38541   2.930  18.318   2.760 -0.1913 -0.0338  0.2659
23411W        W38542  14.830  11.958   4.485 -0.5376  0.2041 -0.0140
23412W        W38543  17.651   8.147  13.650 -0.0467  0.4418 -0.0999
23413W        W38544   7.943   1.659  11.580  0.1355  0.3897 -0.1719
23414W        W38545   7.491   2.529  15.536 -0.0961  0.1856  0.2537
23415W        W38546  15.960  13.256  13.500 -0.2866 -0.0725  0.5696
23416W        W38547  15.611  11.270  15.382 -0.2505  0.1150 -0.0718
23417W        W38548   2.774   7.442   5.418  0.1824 -0.0257 -0.1864
23418W        W38549  12.657  13.497   0.009  0.0458 -0.2754  0.1008
23419W        W38550   8.804  16.378  12.391 -0.1373 -0.1317 -0.1434
23420W        W38551   6.251  12.609   4.950 -0.0193  0.1399  0.1579
23421W        W38552  11.895   7.820   0.939  0.4453 -0.0285  0.2212
23422W        W38553   1.875  13.173   0.514 -0.1693 -0.0219  0.0849
23423W        W38554   2.917   0.925  12.813 -0.2469 -0.0836  0.0260
23424W        W38555   3.387  11.627  14.667 -0.1154 -0.3713  0.0637
23425W        W38556   3.837  14.331   4.310  0.0757  0.0550  0.2300
23426W        W38557  16.920   7.356   0.844 -0.3046 -0.1698  0.2891
23427W        W38558  14.353   4.281   5.438  0.1806 -0.1417  0.0710
23428W        W38559   7.943  10.958   2.939  0.4015 -0.1016  0.2658
23429W        W38560  14.401   3.568  11.226 -0.0515 -0.1056 -0.5350
23430W        W38561   2.629   4.109   4.966  0.4527 -0.2750  0.2730
23431W        W38562  14.705  16.409   9.753  0.1429 -0.1483  0.1235
23432W        W38563  12.449  15.931   2.460 -0.3232  0.2579  0.0454
23433W        W38564   6.826   8.786  15.430 -0.3252 -0.1786 -0.4328
23434W        W38565  12.680  12.240  15.320  0.0197 -0.2505  0.1187
23435W        W38566  14.436  13.759   5.050 -0.1654 -0.2247 -0.2097
23436W        W38567  15.587  16.014   3.430  0.1704  0.1915 -0.2037
23437W        W38568   5.193   2.247  13.068 -0.1083 -0.3138  0.0677
23438W        W38569   8.525   6.972   3.907  0.2477 -0.2223  0.1507
23439W        W38570  10.799  18.358  13.150  0.1785  0.0765  0.1405
23440W        W38571  15.317  16.173   4.801  0.2256 -0.2358  0.0594
23441W        W38572  12.310   3.079   4.161 -0.0405 -0.1820 -0.1544
23442W        W38573  13.446  15.315   3.116  0.1028 -0.0299  0.1436
23443W        W38574   9.723   1.265  12.822 -0.2158  0.1098 -0.1158
23444W        W38575   2.815   1.167  13.302  0.0583 -0.2249 -0.3224
23445W        W38576  15.962  18.249  14.884 -0.0124 -0.2339  0.0826
23446W        W38577  14.927   7.226  14.633  0.0227  0.3791  0.0199
23447W        W38578  15.362   2.941   0.686  0.2165  0.0829 -0.0338
23448W        W38579  17.817  15.510  13.553  0.2628 -0.0598  0.0807
23449W        W38580   1.973   6.906  12.496 -0.0708  0.0941 -0.0160
23450W        W38581  11.427  15.578   2.187  0.2641  0.0682 -0.0989
23451W        W38582  16.295   8.692  13.484 -0.2689 -0.1168 -0.1012
23452W        W38583   6.200   2.390  14.196 -0.1966 -0.1985 -0.1285
23453W        W38584   7.373  15.748   2.709  0.2663 -0.1031  0.0830
23454W        W38585   0.253  13.675  13.965 -0.0397  0.1348 -0.1715
23455W        W38586   7.175   0.381   4.240  0.1204 -0.1703  0.3464
23456W        W38587  11.380   9.595   1.722 -0.1889  0.2377 -0.0100
23457W        W38588   4.340  17.861  12.596  0.1421  0.1162 -0.0446
23458W        W38589  11.909  17.424  15.556 -0.0623 -0.0016 -0.2444
23459W        W38590   2.391  10.482   0.854  0.0671 -0.0413  0.0665
23460W        W38591   7.091  14.470   3.660  0.1348 -0.1017 -0.1061
23461W        W38592   0.290  14.670  11.601 -0.1827  0.1028 -0.0421
23462W        W38593   5.267  16.387   4.479 -0.3100 -0.2592 -0.1592
23463W        W38594   1.674  16.272  14.663 -0.1625 -0.0963  0.0278
23464W        W38595   3.847  15.588   3.522  0.0608  0.0246 -0.1239
23465W        W38596   6.617   3.731  12.222  0.0034 -0.1464  0.1395
23466W        W38597   9.176   8.999  15.040  0.0487  0.1089 -0.3710
23467W        W38598  10.859   4.157   2.993  0.1431 -0.1909  0.2887
23468W        W38599   2.919   9.516  12.444  0.2820 -0.0296  0.0273
23469W        W38600  18.029  17.550  11.876  0.3007 -0.2383  0.1250
23470W        W38601  17.662   0.942   4.065  0.0240  0.2633 -0.1030
23471W        W38602  10.070   0.774  14.538 -0.0993 -0.0487 -0.1087
23472W        W38603   5.414   5.757   4.527  0.3815 -0.1177  0.1966
23473W        W38604  15.934  16.715  12.919  0.0762 -0.1729  0.0163
23474W        W38605   0.246   1.672   4.032  0.0438 -0.1101 -0.0389
23475W        W38606   2.596   7.489   4.557 -0.0536 -0.0673 -0.2982
23476W        W38607  13.734  12.280   2.214  0.4943 -0.1440  0.2952
23477W        W38608  13.669  11.587   3.264 -0.2648  0.0411 -0.1785
23478W        W38609   6.882  10.014  12.368  0.0483  0.0374  0.1601
23479W        W38610  18.096  11.116  14.744 -0.1640  0.2515  0.3504
23480W        W38611  13.648   8.459   3.638  0.2149  0.2825  0.5522
23481W        W38612   3.827   5.602   2.522  0.0910 -0.1368 -0.1616
23482W        W38613   5.537   2.974  11.949  0.0339 -0.3721  0.4981
23483W        W38614  11.863   2.277  14.206  0.0868  0.1319  0.0962
23484W        W38615  12.945  16.778  11.543 -0.1247  0.0940  0.0645
23485W        W38616   4.725   1.085  15.916  0.0221  0.0116 -0.1135
23486W        W38617  14.642   7.030  15.967  0.0654 -0.1720 -0.0887
23487W        W38618  11.303  11.397  15.529 -0.3795 -0.1192  0.2418
23488W        W38619   3.073   1.976  12.940  0.0732  0.0218  0.1212
23489W        W38620   9.537  13.346   3.032  0.1184  0.3917  0.2205
23490W        W38621  14.359  14.155  10.901  0.1789 -0.0328 -0.0353
23491W        W38622   6.744  15.336   3.745  0.2663 -0.5190  0.0041
23492W        W38623  14.859   9.746   0.903 -0.0097  0.0953 -0.0969
23493W        W38624   8.678  17.151  10.444 -0.4025 -0.0520 -0.1169
23494W        W38625  15.393   7.997   2.731  0.1335  0.0178  0.2463
23495W        W38626  12.484  11.451   0.592 -0.2043  0.2157  0.0500
23496W        W38627  12.818   6.572   2.481  0.0762 -0.0052 -0.1280
23497W        W38628  10.624   4.022  14.243 -0.1131  0.0747  0.0207
23498W        W38629  16.524   1.450  13.328  0.1503 -0.2235  0.0459
23499W        W38630  17.587   0.241  12.510  0.0801 -0.0128 -0.1124
23500W        W38631   7.601  16.634   2.391 -0.0739 -0.0312  0.1854
23501W        W38632   3.057   2.482   4.372  0.1884  0.0064 -0.2580
23502W        W38633   2.092   3.097  15.821 -0.2372  0.2209 -0.1607
23503W        W38634   0.474   4.056  13.541  0.3001 -0.0553 -0.0405
23504W        W38635   8.121   7.502   1.095 -0.2604  0.0675 -0.1167
23505W        W38636   1.406   1.993   1.123 -0.2782 -0.3151  0.2054
23506W        W38637  15.019  18.412   1.367 -0.0593 -0.0335 -0.0483
23507W        W38638  17.074  12.904   5.104 -0.2268  0.0574 -0.1093
23508W        W38639   9.873   4.189   0.505  0.2139 -0.0071  0.1527
23509W        W38640  10.739   7.370   2.676  0.0585 -0.1352 -0.4122
23510W        W38641  15.104   1.681  15.892 -0.1174 -0.1601 -0.1768
23511W        W38642   8.455   0.319  13.630  0.0282  0.1670 -0.0508
23512W        W38643   7.805  13.212   1.923  0.3703 -0.1506 -0.0768
23513W        W38644   0.130   1.869  12.831 -0.0417  0.0366 -0.1379
23514W        W38645  11.050  13.444  10.961 -0.3086  0.5588  0.0337
23515W        W38646   0.090   7.802   0.649 -0.2761 -0.2059 -0.0174
23516W        W38647   2.699  11.184   4.001  0.1809 -0.0437  0.0178
23517W        W38648  10.685   8.698  14.001 -0.3736 -0.0679 -0.1252
23518W        W38649   9.900  10.291   0.710 -0.3366  0.0405  0.0657
23519W        W38650   5.930   2.674  15.921 -0.1465 -0.1140 -0.3484
23520W        W38651   8.243   2.608   2.935  0.0600 -0.0002 -0.2037
23521W        W38652   1.203   9.730  14.489 -0.0809 -0.0362 -0.4510
23522W        W38653   6.674  10.827  11.835  0.3078  0.1022 -0.2781
23523W        W38654  15.352  12.539   4.064 -0.0232 -0.0338  0.0571
23524W        W38655  18.452  14.662   1.218 -0.3643 -0.1779  0.2242
23525W        W38656   3.435   0.688   2.211  0.0209 -0.1600  0.0352
23526W        W38657  13.189  17.104   4.815 -0.3639  0.1836 -0.2018
23527W        W38658  17.641  16.505  11.119 -0.0432 -0.1468 -0.4837
23528W        W38659   9.357   1.190  11.746 -0.5529 -0.2530  0.1094
23529W        W38660   3.377  14.915  15.410  0.1817  0.1543 -0.0606
23530W        W38661  17.326  18.075  11.931 -0.1852 -0.0845 -0.0310
23531W        W38662  14.962   5.258  13.011 -0.0820  0.0629 -0.1540
23532W        W38663  17.970   8.806   1.311 -0.0445  0.0242 -0.1328
23533W        W38664   3.945   3.043  15.814  0.0613  0.1303 -0.1734
23534W        W38665   3.208   3.930  14.222  0.3597 -0.1306  0.0419
23535W        W38666   9.340   1.443   3.004  0.3623 -0.0975 -0.2439
23536W        W38667  15.526   6.631  11.799  0.0968 -0.0827 -0.1933
23537W        W38668   4.096   0.680  15.917 -0.0251 -0.1709  0.2469
23538W        W38669   2.318   9.553  14.042 -0.1121 -0.1994 -0.2645
23539W        W38670  17.303   5.573   3.003 -0.1796  0.1499  0.2339
23540W        W38671   4.190   0.025   0.353 -0.1343 -0.0286 -0.1952
23541W        W38672   8.667   9.901  13.671  0.1302  0.2054 -0.1290
23542W        W38673  17.200   1.487   3.692 -0.3135  0.0233  0.4124
23543W        W38674  14.638  17.320   5.022  0.3019  0.0412 -0.1277
23544W        W38675  15.910   0.118  13.988  0.2665 -0.2965 -0.0336
23545W        W38676   5.017  14.674  12.241  0.1007  0.2339 -0.0095
23546W        W38677   3.360   2.002  13.815  0.2871 -0.1121 -0.0458
23547W        W38678  13.370  15.057  11.637 -0.0684 -0.0527 -0.0785
23548W        W38679   2.438  12.236  12.047 -0.0200 -0.0661 -0.2125
23549W        W38680   9.899   9.052   2.146  0.1537  0.0137 -0.5049
23550W        W38681   9.550  16.069  12.459  0.3120  0.1273 -0.1488
23551W        W38682  11.725  12.739   3.820 -0.0148  0.2053  0.1386
23552W        W38683   3.979  10.400  13.876 -0.3206 -0.1090 -0.0980
23553W        W38684  12.412  14.286   0.175 -0.3171  0.0212 -0.0586
23554W        W38685  10.768  17.431  14.626  0.1063 -0.1020 -0.0316
23555W        W38686   2.565   8.518  16.095  0.1360 -0.0738  0.0821
23556W        W38687  15.729  13.029  12.619  0.0573 -0.3831  0.0580
23557W        W38688   5.265   2.541  12.028  0.1922 -0.3046  0.1516
23558W        W38689  12.130  10.814   3.324  0.3208  0.1191  0.1101
23559W        W38690  11.555   7.459   1.705 -0.1173 -0.1388  0.3606
23560W        W38691   8.256  10.532   0.240 -0.0588 -0.1397  0.2702
23561W        W38692   7.007  16.651   0.068  0.2760  0.2084 -0.2587
23562W        W38693  15.208   2.053   4.082 -0.0228 -0.1259 -0.0521
23563W        W38694   3.271  10.275   1.003 -0.0727 -0.1159  0.0763
23564W        W38695  12.644   9.278  14.595  0.2791  0.0658 -0.1018
23565W        W38696  11.114  18.206   0.775 -0.1630 -0.3114 -0.1684
23566W        W38697  14.882   8.280   3.014  0.0587 -0.2202 -0.3901
23567W        W38698  13.412  16.977  14.120  0.1130  0.2769  0.1439
23568W        W38699   4.641  13.894   1.184  0.0339 -0.1290 -0.0454
23569W        W38700  15.923   0.660   3.274 -0.0611 -0.1186  0.1417
23570W        W38701   9.036  10.731   1.110 -0.0382 -0.2189  0.0089
23571W        W38702  16.546  11.158   4.692  0.0138 -0.4108 -0.1623
23572W        W38703   9.793  10.607   2.852 -0.0247  0.0969  0.0145
23573W        W38704  10.264  13.273   3.179 -0.1412  0.3577  0.1994
23574W        W38705   9.653  14.092  13.876 -0.4143 -0.0990  0.0017
23575W        W38706  11.808  10.857  12.837 -0.3279  0.0518 -0.0045
23576W        W38707   3.572   4.776  15.562  0.2812  0.1605 -0.0575
23577W        W38708  13.769   1.418  12.325 -0.4439  0.1014 -0.1292
23578W        W38709  10.710   7.919  13.085 -0.0830  0.0272  0.2425
23579W        W38710   9.302   1.333   1.012  0.2162 -0.1105 -0.0958
23580W        W38711  13.672  14.293   0.986 -0.1495 -0.1813 -0.1024
23581W        W38712   9.974   7.734   3.638  0.4697  0.2292 -0.0008
23582W        W38713  10.739  17.805  14.274  0.0131  0.0818 -0.0391
23583W        W38714   3.781  15.278   2.953 -0.0358 -0.4053  0.3956
23584W        W38715  12.139  14.302  12.210 -0.1674 -0.0851  0.1984
23585W        W38716   0.003   7.219   3.263  0.1782 -0.2190 -0.0490
23586W        W38717   4.412   8.787   6.202 -0.0699 -0.1858  0.2200
23587W        W38718   3.504   5.621   3.573 -0.0531  0.0276  0.0156
23588W        W38719  13.198   9.485   4.266  0.4007 -0.3991  0.2036
23589W        W38720   5.312   8.784   0.388 -0.0664  0.2066  0.0972
23590W        W38721  17.345   5.231  10.351  0.2747 -0.1751  0.1889
23591W        W38722   4.371  11.131   2.024 -0.0422  0.2317  0.0085
23592W        W38723   0.936  11.112   4.895  0.1548  0.1541 -0.1106
23593W        W38724  14.623  16.867  15.266 -0.1996  0.1398 -0.0705
23594W        W38725   5.684   0.465   5.682  0.1408  0.0811 -0.3345
23595W        W38726   8.859  16.891  12.627 -0.1239 -0.2224 -0.1566
23596W        W38727   7.766  14.225   3.101  0.0278 -0.0584  0.1266
23597W        W38728  10.415   2.423  11.453  0.2072 -0.2643  0.0482
23598W        W38729  11.772   0.898   4.704 -0.1320 -0.1963 -0.0679
23599W        W38730   8.021  14.868  12.480  0.0393 -0.0681  0.1881
23600W        W38731   3.841  10.221  14.508 -0.2187 -0.1632  0.0864
23601W        W38732   6.361   2.676   3.614 -0.3643 -0.0330  0.0717
23602W        W38733  14.131  18.253   5.681  0.1881  0.0495  0.2815
23603W        W38734  15.150   4.778   4.922  0.2170 -0.2289  0.0049
23604W        W38735   5.121   7.570   0.168 -0.0606 -0.3060 -0.0289
23605W        W38736   6.181  16.502   3.094 -0.0248 -0.2984 -0.2661
23606W        W38737   4.297   5.915   0.758  0.2204 -0.0381  0.3765
23607W        W38738   9.522  15.938   9.977  0.3137 -0.1245 -0.2635
23608W        W38739  12.455   0.548  15.553 -0.1124 -0.0558 -0.0938
23609W        W38740  14.038   3.613  11.889  0.0104 -0.2314 -0.0658
23610W        W38741  14.029   6.433  13.252 -0.2408 -0.0488  0.2380
23611W        W38742   8.284   5.257   4.326  0.0441  0.2232  0.0969
23612W        W38743   5.349  14.044  12.807  0.1049 -0.0332 -0.3233
23613W        W38744   3.024   6.912   5.560 -0.4339 -0.0286 -0.0506
23614W        W38745   6.348  10.396  10.782 -0.0282 -0.1525  0.4299
23615W        W38746  17.904  12.436  13.670 -0.0036 -0.0138  0.1312
23616W        W38747   0.948  17.482  14.752 -0.0027  0.0920 -0.0558
23617W        W38748  10.946   8.265  13.937  0.1931 -0.1665  0.2978
23618W        W38749  11.766   4.036  14.697 -0.3160  0.3536  0.0474
23619W        W38750  11.099   0.743  11.776 -0.2087  0.3269 -0.0231
23620W        W38751  12.031  10.686  11.609  0.1581  0.0749  0.0713
23621W        W38752  18.318   6.362   4.648 -0.1338 -0.1376 -0.4004
23622W        W38753  11.992  10.667  15.718 -0.1491 -0.4497 -0.0195
23623W        W38754  15.036  13.895  15.987 -0.1219 -0.0158  0.2791
23624W        W38755  14.428   3.148   3.667  0.2097 -0.1862  0.0549
23625W        W38756   8.269  13.365   1.883 -0.1170 -0.0289  0.0419
23626W        W38757  10.245  15.565  12.313  0.3275 -0.1537 -0.2051
23627W        W38758   4.866   0.719   3.151 -0.0771 -0.1886 -0.2239
23628W        W38759  12.617   3.240  10.683  0.3818 -0.0062  0.0402
23629W        W38760  13.956   4.991  11.482  0.0507  0.0610 -0.0068
23630W        W38761  13.571   2.620   2.436  0.2507  0.1261  0.0976
23631W        W38762  15.519  15.072  12.492 -0.0184  0.0148 -0.1732
23632W        W38763  11.254  14.465   0.822 -0.1980 -0.3125  0.0852
23633W        W38764   9.304   2.851   3.001 -0.1409 -0.1470 -0.2632
23634W        W38765  10.621   5.874  12.085  0.2645 -0.1249  0.2939
23635W        W38766   6.058   0.602   1.950  0.0136  0.4689  0.3072
23636W        W38767  10.888  17.647   5.512 -0.1893  0.0938 -0.0747
23637W        W38768  17.341   9.386  15.795  0.0931  0.0164 -0.0521
23638W        W38769   4.259  17.215   3.251 -0.1316  0.3759  0.0477
23639W        W38770  13.407  10.782   2.330 -0.1261 -0.0117 -0.1460
23640W        W38771  17.383   5.071   4.670  0.2054  0.0654  0.0012
23641W        W38772   2.151  10.856  15.596 -0.0550  0.1954 -0.0386
23642W        W38773  12.487   0.035   2.988  0.2406 -0.0340 -0.2635
23643W        W38774   4.816  14.455  13.675 -0.1652  0.0218  0.1987
23644W        W38775  12.133   2.094  15.677 -0.0793  0.1955 -0.0661
23645W        W38776   7.991   0.031   2.047  0.0941 -0.1978  0.2108
23646W        W38777   2.712   2.853   0.057  0.2535  0.1127 -0.0321
23647W        W38778   9.437   7.072   5.176 -0.2735 -0.2670 -0.0889
23648W        W38779  16.679   8.028  12.876 -0.4895  0.0199  0.2730
23649W        W38780   7.885   5.834  14.744 -0.0835  0.3023 -0.1697
23650W        W38781  18.224  11.909  12.005  0.0898  0.1683  0.0014
23651W        W38782   7.580  16.255   1.112 -0.0333 -0.1526 -0.1308
23652W        W38783   7.190   2.756  13.063 -0.1396  0.1625  0.2438
23653W        W38784   7.414  15.265  11.903  0.3065  0.0455 -0.2603
23654W        W38785   9.253  12.517  12.828  0.1998 -0.0764 -0.0201
23655W        W38786  13.471   5.599   4.179  0.0947  0.2165  0.3235
23656W        W38787   1.327   4.938   2.574  0.0000  0.1946 -0.0723
23657W        W38788  15.343  12.618   0.911 -0.1175  0.0703 -0.3381
23658W        W38789   5.804  14.408  13.802 -0.1328  0.1249  0.2851
23659W        W38790   3.156   8.098   4.937 -0.1589  0.0535  0.0490
23660W        W38791   6.392  18.190   2.372 -0.1991 -0.0115  0.1029
23661W        W38792  18.296   1.533  14.314 -0.2063  0.1245  0.1975
23662W        W38793   6.425   6.471  11.964  0.2983  0.1019 -0.0567
23663W        W38794  13.400   8.670   4.193  0.1266 -0.1289  0.3877
23664W        W38795  14.376  18.044   0.702  0.1595  0.2367 -0.1637
23665W        W38796  11.862  15.772  13.361 -0.0016 -0.0253  0.2651
23666W        W38797  15.099   4.814   1.685 -0.0711  0.1220 -0.3367
23667W        W38798   7.192   9.938   4.018  0.0873 -0.0462  0.1330
23668W        W38799  15.629   4.128  13.480 -0.0828  0.0233  0.2302
23669W        W38800  11.709  17.855   5.653 -0.3745 -0.1089 -0.1221
23670W        W38801   7.621   3.778   4.641 -0.5655  0.2150 -0.0341
23671W        W38802   6.482   2.366   0.431  0.0309 -0.0066  0.2134
23672W        W38803   6.807   7.892   0.852 -0.1614 -0.0620  0.1670
23673W        W38804   1.543   9.836   5.016  0.3933  0.2620  0.0801
23674W        W38805   6.647   7.544  14.768 -0.0796  0.0651  0.0955
23675W        W38806  16.176   3.573  16.070  0.0589  0.1117 -0.1454
23676W        W38807   4.004  17.300   3.660 -0.1081  0.3028  0.0435
23677W        W38808  12.859  15.223  12.872  0.0700 -0.1223 -0.2518
23678W        W38809   6.490   6.159  12.687  0.0222  0.1131 -0.0889
23679W        W38810   1.695   8.184   5.941 -0.0690  0.1697 -0.0066
23680W        W38811  16.953   4.418  15.032 -0.1251 -0.1507  0.1237
23681W        W38812   8.100   7.313  11.512  0.2549 -0.1439  0.0180
23682W        W38813  11.671  18.356   5.563  0.2343 -0.1535 -0.4035
23683W        W38814  10.938  10.107   1.172 -0.0802  0.1077 -0.1052
23684W        W38815  12.368  17.671  15.693 -0.4384 -0.3506  0.1002
23685W        W38816   6.917  17.273  10.946  0.5124 -0.1478 -0.0134
23686W        W38817   5.791   8.487  11.695  0.1042  0.2327  0.0492
23687W        W38818   5.367   6.247   1.855 -0.0820  0.3426  0.0271
23688W        W38819  16.551   6.604   4.810 -0.1066 -0.2662  0.3273
23689W        W38820   2.539   4.817  12.454 -0.2613 -0.0290  0.2005
23690W        W38821  17.120  11.801  10.308 -0.2018 -0.0528  0.1790
23691W        W38822  11.846   4.025  15.307 -0.2411 -0.2667 -0.0328
23692W        W38823   4.088   4.473  15.960  0.0428 -0.2700 -0.0197
23693W        W38824   1.316  11.558   5.879  0.0145 -0.1157  0.3884
23694W        W38825  13.922  17.501   4.412 -0.1907  0.2258  0.0732
23695W        W38826  16.312  13.702   3.223  0.2037 -0.3143 -0.0081
23696W        W38827  13.258  16.065  14.847  0.0260 -0.0933 -0.0654
23697W        W38828   6.942   5.569   3.764  0.6298  0.1887 -0.0410
23698W        W38829   0.981   7.225   0.541 -0.1033  0.0988  0.0634
23699W        W38830   2.503   5.110   5.573 -0.3011 -0.0351  0.1735
23700W        W38831  17.248  14.961  12.142  0.0341 -0.2862  0.1057
23701W        W38832   8.197  16.684  15.206  0.3287 -0.0291 -0.0618
23702W        W38833  11.005   7.120  12.589 -0.4918  0.1319  0.1584
23703W        W38834   8.842  15.874  13.628 -0.2734  0.2554  0.1169
23704W        W38835   9.880  17.945  12.579 -0.0296 -0.1360  0.2597
23705W        W38836  15.026  15.327   2.031 -0.1712 -0.0753  0.1582
23706W        W38837  15.862  11.800  14.365  0.2109 -0.0138  0.4343
23707W        W38838   7.699   0.737  15.049  0.0879  0.3189 -0.2204
23708W        W38839  14.682   8.337  14.142  0.0024  0.2184  0.1295
23709W        W38840   1.872  12.386   3.821  0.3724  0.3090  0.1647
23710W        W38841  14.114   4.541   0.537  0.0251 -0.1743  0.0323
23711W        W38842  15.868  10.659  12.400 -0.0268  0.0120 -0.0274
23712W        W38843  14.326   4.619   4.196 -0.1641  0.0064 -0.0954
23713W        W38844   2.162   0.620   1.975  0.0847 -0.3584  0.0030
23714W        W38845   4.098   9.400  12.906  0.1041 -0.3067 -0.0165
23715W        W38846  14.849   9.742   2.593 -0.2483  0.0871  0.0486
23716W        W38847   7.741  14.907   5.743 -0.1419 -0.4648  0.0777
23717W        W38848  13.960  10.164  12.528 -0.0220  0.0951  0.2268
23718W        W38849  11.491   5.821  15.388  0.2101  0.1699 -0.3166
23719W        W38850   7.852   7.124  12.966 -0.1775  0.0961 -0.0946
23720W        W38851   7.941  18.211  13.682  0.2575  0.4777 -0.1341
23721W        W38852   6.891  15.335  13.299  0.4819 -0.2787 -0.3453
23722W        W38853  14.539  15.629  12.671  0.0232 -0.0752  0.1990
23723W        W38854   9.444  12.139  12.503  0.2233  0.3315 -0.0723
23724W        W38855  13.991  11.087  16.009  0.1362 -0.0931 -0.0055
23725W        W38856  10.882   8.711   4.477  0.1038 -0.1757 -0.0811
23726W        W38857  12.548  17.293  14.783 -0.1114  0.0931 -0.1794
23727W        W38858   2.826  13.303   4.081  0.0741  0.0281 -0.0264
23728W        W38859  16.222  17.404   2.407  0.0740  0.2638  0.1521
23729W        W38860   8.016  14.895   1.820 -0.0477  0.1140  0.1460
23730W        W38861  10.524   8.684   1.772 -0.2694  0.2655 -0.0511
23731W        W38862   2.596  10.510  10.030  0.2392  0.0903 -0.2128
23732W        W38863   8.026   0.539  14.349  0.2473  0.0973  0.2378
23733W        W38864  10.410   1.138  14.616 -0.1737 -0.0680  0.0232
23734W        W38865   5.628   8.144  13.928 -0.3452 -0.3549  0.2347
23735W        W38866   4.167   1.771  15.265  0.0607  0.0628  0.1467
23736W        W38867  12.389  15.614  13.700  0.1809  0.0524 -0.1402
23737W        W38868   0.389  12.500   4.789 -0.1729  0.3597  0.3553
23738W        W38869   3.585   1.884  11.559  0.0674  0.2128  0.0853
23739W        W38870  12.186   5.153  13.913  0.0159  0.1214  0.1083
23740W        W38871  12.839  17.321   1.451 -0.0701 -0.0665 -0.1121
23741W        W38872   7.547  17.392   0.271 -0.0149 -0.0745  0.1209
23742W        W38873   1.695   8.529  12.239 -0.1864 -0.4043  0.1365
23743W        W38874  17.093   9.247  11.281 -0.2161 -0.0459  0.1856
23744W        W38875   4.551   6.268   3.665 -0.0955  0.0614 -0.1358
23745W        W38876  17.530  10.491   5.337  0.0771 -0.0826 -0.2538
23746W        W38877  15.931  11.609  15.756  0.2527  0.0877 -0.4067
23747W        W38878   3.797   9.967   2.286 -0.1975 -0.0514  0.0880
23748W        W38879   3.435  18.197  13.002  0.0853 -0.1064 -0.1563
23749W        W38880   6.804  14.073  11.026 -0.0827 -0.1669  0.2337
23750W        W38881   7.837   5.903  12.505 -0.1069  0.0766 -0.0223
23751W        W38882  13.066   9.289   1.745 -0.1313 -0.0486  0.0450
23752W        W38883   6.843  14.410  15.972  0.1340 -0.1850  0.0968
23753W        W38884  13.123   0.954  12.938 -0.3022  0.3188 -0.2013
23754W        W38885  11.609  12.921  14.668 -0.2496 -0.0307 -0.2851
23755W        W38886  10.446  11.501  10.318  0.4923  0.1732  0.1000
23756W        W38887   3.125  15.380  10.974  0.0642  0.1928  0.1879
23757W        W38888   7.949  15.185   0.208  0.2185  0.1964  0.2937
23758W        W38889   4.331  15.990   4.008 -0.0924 -0.6147 -0.0920
23759W        W38890  17.693  14.235   1.821 -0.1029  0.1418 -0.0354
23760W        W38891  18.017   9.981  11.753  0.2100 -0.1843  0.2172
23761W        W38892  17.983   1.193  11.616  0.1600 -0.1094  0.0527
23762W        W38893  17.662  10.562  15.303 -0.0393 -0.1145 -0.3607
23763W        W38894   8.511   6.788   4.918 -0.2019  0.0791  0.2329
23764W        W38895  16.481   7.608  13.523 -0.2175  0.2271  0.0283
23765W        W38896   9.578   5.968  12.645  0.1119  0.1119 -0.3406
23766W        W38897  14.477   8.416   3.274  0.2658 -0.0957 -0.0868
23767W        W38898  13.460   7.165  12.745  0.0404  0.1946  0.2804
23768W        W38899   6.406  16.236   2.703  0.1411 -0.2338  0.1279
23769W        W38900   6.153   6.538  12.813 -0.0116  0.0145 -0.1299
23770W        W38901  13.184   7.039  15.140 -0.1925 -0.0867  0.2767
23771W        W38902  17.844  16.181  12.010  0.2008  0.0663  0.4068
23772W        W38903   4.152   6.356  15.174 -0.3838  0.0249 -0.1145
23773W        W38904  16.558   5.428   0.591  0.2883  0.3630  0.3785
23774W        W38905  15.094  18.038   0.981 -0.2064 -0.1967  0.0449
23775W        W38906   3.402   1.487  15.481  0.2350 -0.1074 -0.0423
23776W        W38907   2.601  15.650   3.350 -0.3277  0.1147 -0.1887
23777W        W38908   6.772   9.959  11.776  0.2579  0.4568 -0.1047
23778W        W38909   1.893   2.586   2.361 -0.1028 -0.0937  0.1068
23779W        W38910   3.600   0.546   0.149 -0.5688 -0.1903 -0.0313
23780W        W38911  13.073  12.078  13.394 -0.1503 -0.1678  0.3059
23781W        W38912   4.415   1.484   3.755  0.1005 -0.1229  0.1149
23782W        W38913  14.432  16.144   5.564  0.2928 -0.0274 -0.0172
23783W        W38914  14.761   3.924  15.393  0.0345  0.0773  0.1090
23784W        W38915  13.484   0.235   3.103 -0.3010 -0.1541  0.1204
23785W        W38916   7.389  14.753  14.073  0.1432  0.1778  0.0977
23786W        W38917   5.131   7.567  11.731  0.0536 -0.0312 -0.1033
23787W        W38918   5.892  14.413   6.258 -0.0113  0.0808  0.1327
23788W        W38919   9.722   8.290   3.094  0.2949 -0.0519  0.3359
23789W        W38920   1.409   0.468  11.944  0.6237  0.1850 -0.1935
23790W        W38921   7.987   1.844   0.439 -0.0768  0.0668  0.0650
23791W        W38922  16.726  11.949  13.661  0.1949 -0.0427  0.1067
23792W        W38923  11.982   5.455  10.463  0.0716 -0.4054 -0.2120
23793W        W38924   7.218   1.028  14.792 -0.1756 -0.0012  0.0741
23794W        W38925  12.934  11.062  11.519  0.0996  0.1720  0.0911
23795W        W38926   6.253   4.449   2.413 -0.0110 -0.4348 -0.1603
23796W        W38927   1.306   3.258  10.471 -0.0862 -0.0420  0.4398
23797W        W38928  12.982  16.068   1.020  0.0741 -0.1725 -0.4153
23798W        W38929   8.427   1.958   5.580  0.2021  0.1244 -0.0473
23799W        W38930  11.046  11.211   2.591 -0.0115  0.1134  0.0717
23800W        W38931   9.683   8.342   2.598  0.2209 -0.0224  0.0936
23801W        W38932  11.185  18.176  10.760  0.3359 -0.1766 -0.2184
23802W        W38933   7.606   9.694   1.298  0.0338 -0.0073  0.1416
23803W        W38934   0.628  12.260  11.749 -0.1474 -0.0657  0.0978
23804W        W38935   6.906   8.033   1.304  0.1790  0.1507  0.0297
23805W        W38936   6.054  14.407   0.745  0.0109 -0.1480  0.1503
23806W        W38937  15.343  12.069  15.760 -0.0250  0.1811  0.0687
23807W        W38938  16.581  14.909   5.390 -0.1687  0.1159 -0.1510
23808W        W38939   2.415   6.336  13.092  0.0844 -0.4101  0.3151
23809W        W38940   6.494   6.338   5.153  0.2072 -0.0627  0.3185
23810W        W38941  12.283   5.572  14.756  0.1021  0.2017 -0.0142
23811W        W38942   0.788   1.101   2.780  0.1269  0.0188 -0.1467
23812W        W38943  14.738   6.664   4.549 -0.1764 -0.1600  0.0121
23813W        W38944  15.534   4.311   1.253 -0.6726  0.1384  0.2161
23814W        W38945   1.103   8.796  14.769  0.1657  0.4485 -0.0113
23815W        W38946   0.996   1.689   3.472 -0.0708 -0.0311 -0.4304
23816W        W38947  17.345  18.318  10.243  0.0187 -0.1772  0.0993
23817W        W38948  15.573  11.260   2.864  0.1841  0.0106 -0.1551
23818W        W38949   0.902  13.739   0.290  0.0664 -0.0419 -0.1334
23819W        W38950   6.629  16.408  15.371  0.0661  0.0090  0.1760
23820W        W38951  11.556   5.845   1.650  0.1079 -0.0124 -0.0349
23821W        W38952  13.579   0.928  12.622  0.0409 -0.0034  0.3948
23822W        W38953   2.348  10.464   1.992  0.0980 -0.0739  0.0795
23823W        W38954  10.020   3.682   2.109 -0.0918  0.2607  0.2400
23824W        W38955  14.633  10.936  12.360 -0.2381  0.1293  0.0473
23825W        W38956   0.889   6.307   3.102  0.1340  0.2221 -0.1171
23826W        W38957  14.436  17.991   0.197 -0.3460  0.2624  0.1418
23827W        W38958   5.402   6.913   2.796 -0.1516 -0.0832  0.1748
23828W        W38959  12.611   2.877   3.762 -0.4638  0.0153 -0.0349
23829W        W38960  17.268  13.565   3.204  0.3684 -0.3526  0.2716
23830W        W38961  11.373  17.292  15.501  0.1727  0.1563 -0.2294
23831W        W38962  16.248   1.308  14.312 -0.0477  0.2099  0.0838
23832W        W38963   3.159   4.378  11.305  0.0331  0.1931  0.0972
23833W        W38964   5.488  17.119   3.812  0.0086  0.3026  0.3208
23834W        W38965   7.448  15.800   0.651 -0.0028  0.1297 -0.0073
23835W        W38966  18.012  16.158   5.523 -0.2168  0.3013 -0.3053
23836W        W38967   7.171   4.768  12.316  0.1734  0.0787 -0.0613
23837W        W38968   8.912   1.349   3.150 -0.2150 -0.0623  0.0460
23838W        W38969   3.811   3.205   1.065 -0.0628  0.1334 -0.1365
23839W        W38970  18.405   2.359   1.303  0.2788  0.0969  0.1143
23840W        W38971   1.021   4.079  12.304  0.0489  0.4763  0.0519
23841W        W38972   0.365   4.820   0.069  0.3824 -0.2088  0.0071
23842W        W38973   3.466  12.412   3.000  0.2255  0.0560 -0.0932
23843W        W38974  16.246   1.923  11.018 -0.0025 -0.0071  0.0530
23844W        W38975   4.398   6.813   1.007  0.1105  0.0435 -0.1010
23845W        W38976  10.098   9.812   0.927 -0.2187  0.1731  0.2192
23846W        W38977  10.315   9.642   3.422 -0.0981  0.0598 -0.0138
23847W        W38978  10.084  15.016  13.675 -0.0695 -0.0208 -0.0725
23848W        W38979   6.171   3.779   1.952 -0.1584 -0.0658  0.1743
23849W        W38980   6.507  12.758  10.309  0.0647  0.1433 -0.0966
23850W        W38981   3.916   8.056   0.212 -0.1412 -0.0201  0.1990
23851W        W38982   0.525   8.111  15.965  0.1655  0.0253  0.1978
23852W        W38983   3.693   5.458  10.237  0.1810  0.3456  0.0598
23853W        W38984  17.790   2.459   4.296 -0.0090 -0.1075 -0.3165
23854W        W38985  15.209  10.862  12.430  0.0655  0.0114  0.3307
23855W        W38986   0.196   8.924   0.206 -0.0559  0.0958 -0.0775
23856W        W38987   4.409   2.960  12.005 -0.2377  0.0602  0.1635
23857W        W38988   2.122   9.245  12.737 -0.2286 -0.0602 -0.3130
23858W        W38989   9.440  18.141  14.933  0.0051 -0.2531  0.2560
23859W        W38990  13.555   7.499   5.949 -0.1541 -0.0355  0.1742
23860W        W38991   5.372  14.033   4.105  0.3489  0.2658 -0.3470
23861W        W38992   8.851   0.741   5.291 -0.0945 -0.1742 -0.2306
23862W        W38993   5.229   2.965  15.263  0.1132  0.1880 -0.0000
23863W        W38994  13.608  17.943   0.006 -0.0407 -0.3452 -0.2035
23864W        W38995   6.738  12.768   4.281 -0.1072  0.2475 -0.3142
23865W        W38996  14.959   3.394   3.142  0.2649 -0.0174 -0.1297
23866W        W38997   7.109   5.656   0.151 -0.2798 -0.1147 -0.1047
23867W        W38998   3.419  18.414   2.615 -0.4284 -0.0723  0.0394
23868W        W38999  12.480  14.298   5.549 -0.0441  0.0952 -0.0599
23869W        W39000   0.101  16.147   3.819 -0.2256 -0.1540  0.0672
23870W        W39001  13.289  11.034   4.585  0.2446 -0.1964 -0.1839
23871W        W39002  17.600   3.832   4.583 -0.2970 -0.0039  0.3401
23872W        W39003  15.453  15.944  10.116 -0.0327 -0.2217 -0.0164
23873W        W39004   2.549  10.731   4.225 -0.1236 -0.0308 -0.1352
23874W        W39005  16.898  11.634   4.791  0.0472  0.1026 -0.1705
23875W        W39006   7.089   8.892   2.026  0.3507 -0.1214  0.1287
23876W        W39007  12.502  14.032  14.954  0.0620  0.0305 -0.4571
23877W        W39008   9.729  17.565   1.873 -0.0737  0.0198  0.2655
23878W        W39009   3.074   3.288  15.529 -0.2629  0.1805  0.1084
23879W        W39010   2.227   3.083  10.722  0.1126  0.0619 -0.0841
23880W        W39011   8.870  12.796  11.441 -0.2316 -0.0350  0.0493
23881W        W39012   9.823   1.082  11.544 -0.0983  0.0818 -0.2084
23882W        W39013  16.237   7.599   2.078 -0.2093 -0.1540 -0.1646
23883W        W39014   7.094   8.722  12.063  0.0562 -0.0049 -0.0059
23884W        W39015   2.248   8.788  12.629  0.0865 -0.4865 -0.2460
23885W        W39016   1.434   8.173   0.128  0.0198  0.0151  0.0610
23886W        W39017  11.237   7.115   2.101  0.0582  0.1112 -0.0463
23887W        W39018   6.165   1.107   1.770 -0.1617 -0.1478 -0.0102
23888W        W39019  12.510  10.124   4.003  0.3328 -0.2214 -0.2287
23889W        W39020  11.603  14.048   4.264  0.0210  0.1123 -0.5500
23890W        W39021  14.706   0.150   1.686  0.0302  0.2552 -0.0623
23891W        W39022   7.187   8.937   1.080 -0.3585 -0.1296  0.1389
23892W        W39023  14.432  13.600  10.111 -0.2911  0.0428  0.0051
23893W        W39024   3.880   9.997   1.648  0.1538  0.2294  0.1484
23894W        W39025   5.922  12.283   0.702  0.1638  0.2662 -0.2840
23895W        W39026   5.458  11.337   1.402 -0.2332 -0.5937  0.0108
23896W        W39027  12.299  10.557   1.251 -0.0523  0.0669  0.0332
23897W        W39028  16.086   5.222   4.913 -0.0167  0.0932  0.1403
23898W        W39029   1.456  13.207   3.001 -0.0501  0.1797  0.0009
23899W        W39030  10.665  13.088   0.606  0.2787  0.1119  0.0733
23900W        W39031  15.408   7.311   4.684 -0.2461  0.1248 -0.0506
23901W        W39032  14.803   4.859   1.281  0.2111 -0.0560 -0.3136
23902W        W39033   2.044  11.756  11.563 -0.1002  0.0449  0.3739
23903W        W39034   7.131   3.989   2.212 -0.0100  0.0224 -0.0616
23904W        W39035  12.328  16.201  12.819  0.0195 -0.0769  0.1472
23905W        W39036   8.621   6.274   5.035 -0.0906  0.0107 -0.3331
23906W        W39037  14.789  11.356   2.211  0.1971 -0.2599  0.0617
23907W        W39038   3.866  12.491  13.939  0.2718  0.1422  0.2631
23908W        W39039  13.683  14.231  12.834 -0.3350 -0.2544 -0.3329
23909W        W39040   8.672   3.359  14.809  0.0124 -0.2383  0.1342
23910W        W39041   8.798  10.837  15.896  0.2224  0.1018  0.0989
23911W        W39042  15.209  14.885  12.068  0.1439  0.0010  0.0025
23912W        W39043   0.363   1.696  14.534 -0.0648 -0.1376 -0.0539
23913W        W39044  17.040   3.441  15.569  0.2108 -0.3264  0.3732
23914W        W39045  16.827   7.210  11.956  0.1905 -0.0235  0.0653
23915W        W39046  12.543  16.985   1.192 -0.1663 -0.1347 -0.1709
23916W        W39047  10.176   9.931  10.286 -0.2125 -0.4348 -0.0215
23917W        W39048   3.171   9.667  15.067 -0.0542 -0.1443 -0.1040
23918W        W39049  10.783  16.226   4.619 -0.0667  0.3027  0.0504
23919W        W39050  13.280   6.290   2.991  0.1192  0.2871  0.0618
23920W        W39051  14.319   8.993   0.497 -0.1890  0.0857  0.5033
23921W        W39052  13.731  11.337  14.876 -0.1501 -0.0837  0.0086
23922W        W39053  17.696  14.186   0.778 -0.2553 -0.2895  0.0522
23923W        W39054   9.989   6.054  14.390  0.0996  0.2778  0.1938
23924W        W39055   0.691  16.087  15.699  0.0737 -0.2938 -0.1375
23925W        W39056   6.923   0.346  15.337  0.5486  0.1464  0.1379
23926W        W39057   9.211  10.517   5.271  0.2343  0.0744  0.0390
23927W        W39058  12.047  11.768  13.083  0.0523 -0.1259  0.0806
23928W        W39059  11.888   7.153   3.210  0.0545  0.0468 -0.3117
23929W        W39060  17.380   3.875  14.942 -0.0120 -0.1365  0.1960
23930W        W39061   5.807   7.224   0.311 -0.1279 -0.0941  0.1227
23931W        W39062  11.510   5.597  10.329  0.1322 -0.1204 -0.2985
23932W        W39063  12.976  16.228   1.572 -0.0822 -0.2824  0.0887
23933W        W39064  10.890   1.636  15.745  0.0697 -0.1778 -0.0233
23934W        W39065   8.561  11.486   4.632  0.0402  0.4894 -0.1713
23935W        W39066   1.454  18.476   0.779 -0.1574 -0.1832 -0.0048
23936W        W39067   0.636  17.557   3.371 -0.0053 -0.0763  0.0280
23937W        W39068   9.980  15.779   5.113  0.0788 -0.1184  0.2127
23938W        W39069  15.803   9.028   1.796 -0.0944  0.0154 -0.2486
23939W        W39070  11.069  13.070   1.390 -0.0509  0.1611  0.5158
23940W        W39071  11.994   5.653   6.138  0.2411 -0.2705 -0.0056
23941W        W39072   5.717   1.301   0.584  0.0609 -0.0518 -0.0045
23942W        W39073   6.426  10.138  11.452 -0.1940  0.1222 -0.1476
23943W        W39074   6.287  10.992   1.881 -0.0448 -0.1130 -0.0920
23944W        W39075   1.283  16.061   4.277  0.0589  0.1621  0.2409
23945W        W39076  12.274  17.387  11.179  0.2194 -0.0056  0.1187
23946W        W39077   6.341   4.192  11.109 -0.1219 -0.1762 -0.0819
23947W        W39078  13.126   2.151   2.490  0.4536  0.1926 -0.0541
23948W        W39079   7.402   1.855  12.151 -0.2370 -0.0734 -0.1185
23949W        W39080  12.168  10.558   0.767 -0.0479 -0.1108  0.1701
23950W        W39081  10.696  13.217  13.524 -0.0158  0.1364 -0.2012
23951W        W39082   1.076  15.919  12.838 -0.2614  0.1725 -0.4027
23952W        W39083  11.429   5.355   3.942  0.0556 -0.2370 -0.3949
23953W        W39084  13.376   7.907   1.208  0.0264 -0.0594 -0.2173
23954W        W39085  11.060  12.379  15.329 -0.1384 -0.1470 -0.0064
23955W        W39086   3.564   7.250   3.834  0.1600 -0.0824  0.2764
23956W        W39087  14.245  13.601  13.011 -0.0321 -0.0995  0.0938
23957W        W39088   4.524   7.542   4.879  0.2234  0.0723  0.1075
23958W        W39089  13.217  17.051   1.829 -0.2054 -0.0930  0.0611
23959W        W39090   7.697   9.917   4.169  0.1898 -0.2331  0.1549
23960W        W39091   3.231   7.558   4.133 -0.0795 -0.0678 -0.0254
23961W        W39092   2.062  12.114  15.406 -0.1144 -0.0486  0.2434
23962W        W39093   9.978  18.375  15.778 -0.2077  0.0032 -0.2225
23963W        W39094   5.331   0.504   3.817 -0.0542  0.1623  0.0479
23964W        W39095   5.869  18.364  14.401  0.0342 -0.1163 -0.0461
23965W        W39096   3.057  11.125  15.985 -0.2901  0.2086  0.0739
23966W        W39097  10.358  10.590  14.390  0.0183  0.1592  0.2473
23967W        W39098   4.697   2.875   3.021 -0.1162  0.0446  0.0945
23968W        W39099   7.273   2.684   1.121  0.0335 -0.3609 -0.1335
23969W        W39100   0.476  18.446  12.924  0.1604 -0.0776  0.1972
23970W        W39101   0.906  13.613  13.450  0.1436 -0.1916  0.0150
23971W        W39102  12.685   5.938   4.504 -0.0103 -0.5003 -0.0708
23972W        W39103   4.305  14.420  12.857 -0.1827  0.2466  0.2959
23973W        W39104  11.164  18.149   0.258  0.1836  0.3105  0.4606
23974W        W39105  12.520   2.354  15.353  0.0331 -0.2437  0.1623
23975W        W39106   6.260  14.811   2.450  0.0813  0.2911  0.0723
23976W        W39107  10.073   6.723  12.874  0.0957  0.1017 -0.1160
23977W        W39108   2.961  15.550  11.486  0.2313 -0.2806  0.2899
23978W        W39109   2.738   6.474  14.852 -0.2578 -0.0968 -0.1471
23979W        W39110   1.043  10.983   3.855  0.1468  0.2625 -0.2183
23980W        W39111  17.648   8.042   1.698 -0.1682 -0.1610 -0.2631
23981W        W39112   6.478  17.648  11.691 -0.0424 -0.2320 -0.1130
23982W        W39113   4.033   8.529   0.615 -0.2053 -0.2528  0.0638
23983W        W39114  15.943   5.812  15.451 -0.2364  0.2332  0.2636
23984W        W39115   6.350  10.615   5.350 -0.0166 -0.1304 -0.2996
23985W        W39116   2.426  14.317   3.094  0.2569  0.0977  0.0006
23986W        W39117  10.163  16.872  11.139  0.0406  0.0686  0.0973
23987W        W39118  16.883  15.359  14.394  0.0733  0.0027 -0.0895
23988W        W39119  17.082   1.500  11.684 -0.3219 -0.1090  0.1141
23989W        W39120  16.012   2.354  15.911 -0.0617  0.1026  0.0151
23990W        W39121   9.047   6.813  15.486  0.3466 -0.1410  0.2650
23991W        W39122  11.844  17.573   3.975  0.1250 -0.0208 -0.2029
23992W        W39123   1.934  11.754  14.424  0.2869  0.0699 -0.2830
23993W        W39124   4.770  16.049  11.444 -0.1302  0.2578 -0.1100
23994W        W39125   7.185  16.937  11.373  0.1898  0.3569  0.0741
23995W        W39126   7.402   3.486  10.231 -0.0280 -0.2080  0.0826
23996W        W39127  13.922   4.553   0.059  0.0752  0.1474 -0.0455
23997W        W39128   1.626   9.049   2.972  0.1689 -0.1293  0.3973
23998W        W39129   6.097   5.168  14.308  0.0104 -0.2123 -0.0449
23999W        W39130  12.846   9.112   5.184 -0.0323  0.0598  0.0089
24000W        W39131   9.099   7.606   2.068 -0.0242 -0.2551 -0.0412
24001W        W39132  10.095   7.435  15.997  0.5847 -0.0377 -0.3277
24002W        W39133  13.616   6.141   2.411  0.0307  0.1577 -0.0189
24003W        W39134   0.154  12.109   4.460 -0.3148 -0.2030  0.1038
24004W        W39135   5.632   8.141   5.963  0.3206 -0.1309  0.1087
24005W        W39136   0.737   7.632  15.733 -0.3537 -0.3520 -0.0524
24006W        W39137   0.733  15.365   4.415  0.2793 -0.2819  0.1975
24007W        W39138   4.277  13.475  11.860  0.1316  0.1809  0.4339
24008W        W39139   3.917  17.149   9.093 -0.3389  0.2408  0.0660
24009W        W39140   9.575   9.787  12.610  0.1579 -0.2532 -0.1179
24010W        W39141   8.961  16.772   3.486 -0.2578  0.1420 -0.1603
24011W        W39142   7.443  16.059   3.997  0.1115 -0.0970  0.0417
24012W        W39143  14.483  11.686  12.470  0.1485  0.2312  0.2212
24013W        W39144  11.747   0.609  13.967  0.4351  0.3099 -0.1882
24014W        W39145  10.436   8.238  14.693  0.2043  0.1599 -0.0092
24015W        W39146   5.101   8.501  13.322  0.2517  0.1463 -0.2006
24016W        W39147   7.196   1.247  10.911  0.2205  0.1341 -0.0324
24017W        W39148  13.860   3.164  12.594  0.3146  0.0061  0.2501
24018W        W39149   0.459   5.346   5.160  0.0705 -0.3568  0.4372
24019W        W39150   1.574  16.626   9.376  0.2768  0.0731 -0.3167
24020W        W39151   3.745  11.513  15.844  0.1653  0.0089  0.0690
24021W        W39152  11.090   2.740   5.707 -0.1809 -0.1720 -0.1559
24022W        W39153   8.805   9.881   3.715 -0.0474 -0.1153 -0.1035
24023W        W39154  11.884  15.850  14.288  0.1892 -0.3088 -0.4402
24024W        W39155   8.033  18.256  12.464  0.1376  0.1550 -0.0821
24025W        W39156  10.658   5.276   1.346 -0.1572  0.1987  0.0259
24026W        W39157  10.279  13.727   1.899  0.0564  0.0004  0.0092
24027W        W39158  13.249  14.438  12.920  0.2512 -0.0145 -0.0690
24028W        W39159   5.875  14.085   4.125  0.2688  0.2101  0.2203
24029W        W39160  14.708  16.751  14.374  0.3915  0.1067 -0.2176
24030W        W39161   5.633   9.669   0.895  0.0244  0.0416 -0.1255
24031W        W39162  11.048   3.757   0.408  0.0085 -0.0642 -0.2338
24032W        W39163  15.629   4.039  14.952 -0.1367  0.3128 -0.0471
24033W        W39164   6.479  15.002  12.270  0.1577 -0.1966  0.1977
24034W        W39165  10.345  17.470   4.083  0.1595 -0.0092 -0.0070
24035W        W39166   3.554   6.380   1.060 -0.0339  0.0483  0.0031
24036W        W39167   6.288   4.694  12.498  0.4103 -0.2363 -0.1738
24037W        W39168   9.038  11.349   2.471 -0.1900  0.1147  0.1539
24038W        W39169   8.811   6.759   3.223 -0.3444  0.1550  0.1469
24039W        W39170   5.288   4.261  15.387 -0.1276  0.1605 -0.2598
24040W        W39171  10.905   7.789   2.844  0.3357  0.1016 -0.0585
24041W        W39172  14.334  18.202  11.497 -0.0347  0.0697 -0.0575
24042W        W39173   1.395  11.826   4.923 -0.1016  0.2204 -0.0796
24043W        W39174   3.559   6.872  14.833  0.2295  0.0101  0.0116
24044W        W39175  10.080   6.444  16.004  0.1403  0.3819  0.0261
24045W        W39176  16.332   9.283   6.830 -0.0530 -0.0536 -0.3544
24046W        W39177  17.280  12.663   1.011 -0.0769 -0.1380  0.1694
24047W        W39178  17.608  11.945   2.328  0.1508 -0.1281  0.3136
24048W        W39179   0.970  16.993   1.268  0.1281  0.2737 -0.2433
24049W        W39180  17.995   2.180   4.973 -0.0103 -0.0819  0.2007
24050W        W39181  17.598   1.912   5.181 -0.4132  0.0443  0.1061
24051W        W39182   0.082  11.595   4.437 -0.1560 -0.1107 -0.2985
24052W        W39183   2.157  12.630   5.504 -0.1051 -0.0626 -0.0546
24053W        W39184   2.516   6.998  14.616  0.3108 -0.1336 -0.2369
24054W        W39185   0.449  15.883   0.671 -0.0159 -0.2430  0.2093
24055W        W39186   5.831  16.389   1.631  0.0765  0.1277  0.0171
24056W        W39187   1.447   0.111  12.978 -0.1288 -0.1547 -0.2023
24057W        W39188  10.587  11.410   5.602  0.0795  0.1318 -0.2171
24058W        W39189  11.018   0.668  15.434  0.1868  0.0707 -0.1084
24059W        W39190  18.278  14.484   3.789  0.2415 -0.1784  0.1877
24060W        W39191  11.862  14.301  14.322 -0.2917 -0.0630 -0.1061
24061W        W39192   7.219   6.597  15.856 -0.2923  0.4029 -0.7040
24062W        W39193   7.077  15.240   0.014 -0.1255  0.2833 -0.4504
24063W        W39194   8.093  11.863  15.287 -0.0642 -0.1026 -0.0966
24064W        W39195   6.893  12.656  11.132 -0.0446  0.2326  0.1522
24065W        W39196   2.517  14.329   4.063 -0.2729 -0.1955  0.0399
24066W        W39197  17.093   7.334  14.142 -0.1470  0.2640 -0.1633
24067W        W39198  10.214   5.677  13.109  0.3045 -0.2208 -0.3154
24068W        W39199   3.491  10.284   4.580 -0.0528 -0.2332 -0.0443
24069W        W39200  13.134   3.249  10.959  0.0472  0.2766  0.2649
24070W        W39201   2.376  11.819   4.940  0.1189  0.2075 -0.1606
24071W        W39202  14.738  15.091  13.503  0.2535  0.2323 -0.0521
24072W        W39203  14.245   1.472  12.098 -0.1589  0.1692  0.0179
24073W        W39204   4.496   4.546  15.676 -0.2844 -0.1550 -0.1373
24074W        W39205   1.560  11.107   0.976 -0.0059  0.4172 -0.1948
24075W        W39206  10.393   0.355   1.678  0.1033  0.3330 -0.1874
24076W        W39207  14.144   5.106   1.665 -0.1717 -0.1030 -0.2319
24077W        W39208  13.640   5.160   1.775  0.0343 -0.3092 -0.3994
24078W        W39209   3.200   9.872   0.841  0.0909  0.5029  0.1926
24079W        W39210   3.095  17.918  13.720 -0.0865 -0.1195  0.3087
24080W        W39211   6.125  13.416  13.867 -0.2604 -0.0118  0.1367
24081W        W39212   9.982  18.448  14.259  0.0350  0.1016  0.3182
24082W        W39213  11.619   9.040  15.340  0.0873  0.1865 -0.0511
24083W        W39214   4.706  17.777   3.837 -0.1468 -0.0103 -0.1208
24084W        W39215   0.938   5.636   1.995  0.0903 -0.0442 -0.1242
24085W        W39216   9.028   5.140   0.037 -0.1460  0.1084 -0.3030
24086W        W39217  15.411   5.623   2.945  0.0802 -0.1085  0.1602
24087W        W39218  17.178  15.626  10.924 -0.0294 -0.0454  0.0321
24088W        W39219   1.787  12.194  13.820  0.1396 -0.1331 -0.2722
24089W        W39220   1.267  17.291   1.606  0.2674  0.1927  0.3772
24090W        W39221  13.244  16.957   5.349  0.1857  0.1341  0.0371
24091W        W39222   6.525   5.544  14.629  0.5774  0.0205 -0.2085
24092W        W39223   1.559   1.814   2.347 -0.0566  0.1791  0.0866
24093W        W39224  14.336  18.227  10.922 -0.0593 -0.1324  0.0756
24094W        W39225  15.357   6.489   0.406 -0.3592  0.1698 -0.0391
24095W        W39226   1.891   3.936  14.390  0.0326 -0.2732 -0.0265
24096W        W39227   5.054  11.729   9.768  0.0036 -0.1495  0.2930
24097W        W39228   0.247   1.595  13.543 -0.0084  0.0645  0.0519
24098W        W39229   3.715   2.659  13.662 -0.1448  0.2374  0.2207
24099W        W39230  11.165   4.749  13.126  0.2694  0.1068  0.0784
24100W        W39231  14.703   0.183  13.479 -0.0578 -0.0244  0.0057
24101W        W39232  12.665   9.454   1.265 -0.1472  0.0032 -0.2326
24102W        W39233   7.113  16.126  12.542 -0.0710 -0.3619  0.0088
24103W        W39234  15.495  13.601  13.549 -0.1075  0.0660 -0.4341
24104W        W39235  10.379   8.126  10.385 -0.2195  0.2255 -0.0168
24105W        W39236   1.102   5.495   3.415  0.4607 -0.3414 -0.1637
24106W        W39237   6.304  13.591   5.081 -0.0849  0.1246  0.2246
24107W        W39238   7.631  10.916   2.067 -0.2736  0.0529 -0.2138
24108W        W39239  16.520   7.104   0.979  0.0426  0.0924  0.5315
24109W        W39240   8.543  18.232  15.033 -0.0122 -0.0727 -0.1904
24110W        W39241   3.429   8.538   5.261  0.2712  0.1545 -0.0295
24111W        W39242   1.067  13.302   1.395 -0.0677  0.0247 -0.1111
24112W        W39243   1.186  15.377   5.398  0.0822  0.1459 -0.0741
24113W        W39244   6.061  11.160  15.829 -0.0137 -0.0709  0.2092
24114W        W39245   3.984   5.413  13.826  0.1549  0.3746 -0.3634
24115W        W39246   7.768   1.119  13.239 -0.1172  0.2280  0.0344
24116W        W39247   0.973   3.291   0.369 -0.7083  0.4064  0.2724
24117W        W39248  14.296   3.628  15.913 -0.1164  0.0066  0.0857
24118W        W39249  17.388  18.169  11.341  0.0229  0.2788  0.3157
24119W        W39250   4.272   0.854   2.558  0.1220  0.3336 -0.2295
24120W        W39251   7.611   4.627   2.960 -0.0448  0.1567  0.1598
24121W        W39252  16.386   6.676  10.555 -0.0898 -0.0193 -0.1324
24122W        W39253  17.600  14.772  10.538 -0.2059  0.1226  0.2294
24123W        W39254   7.624  11.193   2.491  0.1533 -0.0065  0.0727
24124W        W39255   9.748   1.752  12.554 -0.2899  0.1688 -0.1558
24125W        W39256   5.991  17.368   1.578  0.2720 -0.1378 -0.2164
24126W        W39257   8.571  14.420   4.287  0.1721 -0.0448 -0.4455
24127W        W39258   9.347  16.407   5.065 -0.2861 -0.0268 -0.2174
24128W        W39259  17.629   7.330  14.641 -0.0157 -0.0975  0.2260
24129W        W39260   0.761   9.320  12.008  0.1572  0.0529  0.0207
24130W        W39261  14.110  16.146   3.398 -0.0116  0.1518  0.0205
24131W        W39262  12.175   0.513  15.942 -0.0045  0.2970 -0.0886
24132W        W39263   5.867  10.097   4.159 -0.2530 -0.1667 -0.0139
24133W        W39264   9.104  14.965   5.129 -0.1914  0.1083 -0.0037
24134W        W39265   8.134   4.829  14.700  0.2616  0.1747  0.0558
24135W        W39266   8.507  16.966  15.474 -0.4551  0.0094 -0.3669
24136W        W39267   7.824   3.771   3.066  0.1148  0.0417  0.0365
24137W        W39268  13.173   3.612  12.482  0.0456  0.3654  0.2259
24138W        W39269   4.651   9.815   4.212  0.0663 -0.0926  0.1998
24139W        W39270   3.372  17.864   3.848  0.1043 -0.0322  0.1828
24140W        W39271   9.135   8.096  13.749 -0.2079 -0.0610  0.1000
24141W        W39272   4.629  14.827  12.740  0.1787 -0.1154  0.1706
24142W        W39273   4.114   7.658  14.683 -0.1262 -0.0288 -0.0645
24143W        W39274   5.356   3.813  13.353  0.1895 -0.6577 -0.1043
24144W        W39275  17.886  15.185   4.015 -0.0228  0.1637  0.0033
24145W        W39276  12.443  16.925  13.675  0.2185  0.0366  0.0569
24146W        W39277  15.314   6.684  15.226 -0.2899 -0.0747 -0.2968
24147W        W39278  10.816   8.289   0.871  0.2775  0.3822 -0.0263
24148W        W39279  15.366   2.316   4.963  0.0382  0.1451 -0.0672
24149W        W39280  16.469  17.643  12.022  0.0520  0.0960  0.0822
24150W        W39281   1.594   7.965   5.500  0.0544 -0.3942  0.0113
24151W        W39282  17.758  12.753  15.773  0.0003  0.0221  0.0808
24152W        W39283   6.308   3.932   2.872 -0.0852  0.0812 -0.2819
24153W        W39284  11.795   8.220   0.597  0.1428  0.1254  0.1433
24154W        W39285  14.233   6.985  13.296  0.1840  0.0244 -0.2238
24155W        W39286   4.844  11.496   4.612 -0.0910 -0.0532 -0.2224
24156W        W39287   6.907   8.570   3.406 -0.2632 -0.1082 -0.3067
24157W        W39288  10.518   0.252   2.354 -0.1663 -0.2410 -0.3229
24158W        W39289  13.535   4.494  10.787  0.0293  0.3660  0.1561
24159W        W39290  16.596   6.798   0.042 -0.2082 -0.3292  0.1138
24160W        W39291  12.544  18.215   3.455  0.0795  0.0167  0.0357
24161W        W39292   7.674  14.131  13.267  0.1258  0.1340 -0.2718
24162W        W39293   4.418   4.987  13.592  0.0229 -0.2910  0.0236
24163W        W39294  11.534  10.379  13.089 -0.1098  0.2386  0.1016
24164W        W39295  11.706  17.789   2.040 -0.0561  0.0852  0.2717
24165W        W39296  12.968   4.374  14.112  0.1880  0.2797 -0.1008
24166W        W39297   6.786   6.407  15.791 -0.1133  0.1584 -0.0689
24167W        W39298  15.012   9.271   2.142  0.0528 -0.1620  0.0274
24168W        W39299   3.402   3.506  13.983  0.0650 -0.1307  0.5510
24169W        W39300   2.364  13.143   0.598  0.1603  0.0462 -0.2673
24170W        W39301   7.629  17.201   5.951  0.0910  0.0279  0.3607
24171W        W39302  10.120   4.174   1.897 -0.2093  0.4860 -0.0161
24172W        W39303   5.506   7.188   4.533 -0.0058 -0.1090  0.1490
24173W        W39304   5.163   0.799   4.726  0.1066 -0.2413  0.1486
24174W        W39305   5.491  11.169   4.175  0.3122 -0.0180 -0.4255
24175W        W39306  13.252  18.293   1.445 -0.0828 -0.2189  0.0477
24176W        W39307   5.946  14.947  13.015  0.0616  0.3965 -0.2663
24177W        W39308   2.035   0.763  12.517  0.1358 -0.2114 -0.0718
24178W        W39309   4.547  15.948  13.074  0.1261  0.2537  0.2178
24179W        W39310  13.506   6.869  11.478 -0.1777  0.0400  0.1527
24180W        W39311   7.038   5.923   1.474  0.0548  0.0488  0.2887
24181W        W39312   1.862   0.202  10.241 -0.2277  0.1794  0.0700
24182W        W39313  16.361   8.200  12.535 -0.2903 -0.1345  0.2762
24183W        W39314   5.264   1.017  15.143  0.2949  0.2241 -0.1243
24184W        W39315  13.526   2.997  15.445  0.1080  0.1929 -0.0557
24185W        W39316  13.626  11.705   4.970  0.1554  0.0836 -0.2847
24186W        W39317   8.913  13.812   1.399 -0.0442  0.0578 -0.0918
24187W        W39318  15.455   2.454   0.779  0.1928 -0.0071 -0.0437
24188W        W39319  16.662   2.048  15.314 -0.1103 -0.1492 -0.0806
24189W        W39320  11.241   0.902   3.376 -0.2412 -0.1661 -0.2690
24190W        W39321   5.443  14.640  11.958 -0.1441  0.0670  0.2041
24191W        W39322  15.131   0.650  14.291  0.0680 -0.0998  0.2719
24192W        W39323   8.480   0.135  12.504  0.1538  0.3919 -0.0330
24193W        W39324  14.725   3.639  12.974  0.1944  0.2616  0.1226
24194W        W39325   2.911   6.711  10.753 -0.2974  0.2886  0.0347
24195W        W39326   3.109  16.362  12.475  0.2605 -0.1489  0.2247
24196W        W39327   5.234  11.467  13.003  0.1234 -0.3710 -0.2504
24197W        W39328   0.085  15.907   1.694  0.2598  0.0373 -0.0171
24198W        W39329  10.675  13.492   3.489 -0.1069 -0.1283  0.2214
24199W        W39330  16.849  10.000   0.132  0.3225  0.0099  0.2973
24200W        W39331   6.054   9.106   0.466 -0.0386 -0.2460 -0.0619
24201W        W39332   9.465  13.191  14.414  0.3843 -0.0413 -0.0787
24202W        W39333   9.538   8.407   0.164 -0.0282 -0.0581 -0.2280
24203W        W39334   2.020  13.599   4.359 -0.1254 -0.0487 -0.2214
24204W        W39335  10.687   2.331  15.088  0.2726 -0.3187 -0.0133
24205W        W39336  13.847   1.564   1.083 -0.5292  0.2911 -0.0814
24206W        W39337   7.091   7.086  12.385  0.1595  0.1502 -0.0296
24207W        W39338   2.346  10.469  13.956 -0.2141 -0.4556 -0.0133
24208W        W39339  15.686   4.544  13.723  0.0292  0.1013 -0.1051
24209W        W39340  14.187   1.368   5.875 -0.0986  0.1013  0.0244
24210W        W39341  15.141   5.117  14.972 -0.0514 -0.0076 -0.0106
24211W        W39342   1.037  14.450   3.198  0.1724 -0.0345 -0.0090
24212W        W39343  17.124  14.474   3.200  0.0917  0.0306 -0.2268
24213W        W39344  16.637   1.153  11.456  0.0911 -0.0248  0.2015
24214W        W39345  15.027   7.143   3.039 -0.1214  0.1939 -0.1101
24215W        W39346  16.987  17.020  10.783  0.1310 -0.0970 -0.2035
24216W        W39347  11.732  17.099  13.667 -0.2575  0.1279 -0.1554
24217W        W39348   3.544  13.049   1.131 -0.1836  0.1706 -0.2224
24218W        W39349   4.681   7.607   1.816  0.1089 -0.3851 -0.2747
24219W        W39350   5.466  17.142  13.469  0.1814  0.3691 -0.3022
24220W        W39351   7.066   7.230  14.853 -0.2121  0.1445  0.0504
24221W        W39352   5.060   9.796   1.643  0.2598 -0.2249  0.0754
24222W        W39353  10.077   9.447   0.400 -0.0462 -0.3007  0.3262
24223W        W39354  15.791  13.513  16.094 -0.3667  0.1824 -0.1945
24224W        W39355   7.703  11.136  14.073 -0.2701 -0.0406 -0.3350
24225W        W39356   0.931  10.071   0.814 -0.1307  0.1039 -0.1858
24226W        W39357  17.577  15.403  12.224 -0.0691 -0.0627 -0.1804
24227W        W39358  15.978   8.188   1.751 -0.1816 -0.1247  0.1978
24228W        W39359  13.877   8.652   4.736  0.2870 -0.0050 -0.2150
24229W        W39360   7.694   2.735   2.955 -0.0893  0.2529 -0.1286
24230W        W39361  18.130  12.382  13.167  0.3506 -0.1516 -0.0178
24231W        W39362  15.701   8.995   3.242  0.0015  0.3782  0.0374
24232W        W39363   8.338   1.407  15.610  0.1525  0.0115 -0.2025
24233W        W39364   5.394   5.166   3.900  0.3317  0.1988 -0.0496
24234W        W39365   3.607   8.510  11.206  0.0849 -0.3026  0.0140
24235W        W39366   5.210   6.855  13.439 -0.3871 -0.0048  0.0499
24236W        W39367  15.387  15.911  15.096 -0.2648 -0.0737 -0.0682
24237W        W39368   9.796   8.538   2.136 -0.0051 -0.0259  0.2502
24238W        W39369   7.570   4.605  14.800  0.1937  0.2217 -0.4132
24239W        W39370  17.910   2.521  13.535  0.0348  0.4656  0.1733
24240W        W39371  13.585  11.996  15.255 -0.0023 -0.1674  0.0447
24241W        W39372  12.804  16.466   2.441  0.0139 -0.3935  0.2071
24242W        W39373  14.565   6.984   2.951  0.1900  0.3459 -0.0054
24243W        W39374   6.844  16.434   2.597  0.0187 -0.1062 -0.0305
24244W        W39375  12.760   2.105  11.613  0.0463 -0.0260  0.0648
24245W        W39376  11.576   6.032   5.231 -0.0196 -0.1954 -0.0255
24246W        W39377   4.937  15.936  15.756  0.1987  0.2600  0.0816
24247W        W39378  18.418   5.816   0.056  0.2951  0.3020 -0.1312
24248W        W39379   1.609   6.835   3.230 -0.0750  0.0772 -0.1412
24249W        W39380   5.899   4.915  15.596 -0.2202 -0.0541 -0.1744
24250W        W39381  12.031   0.392   4.876 -0.1743 -0.2405 -0.1589
24251W        W39382  16.015  17.789   1.245 -0.0394 -0.0393  0.2140
24252W        W39383   8.959   5.127   3.602 -0.1218 -0.0072  0.1228
24253W        W39384   2.633   9.182  12.817 -0.2933 -0.0679 -0.0005
24254W        W39385   5.767   0.475   1.497 -0.1175  0.1730 -0.3184
24255W        W39386   5.832  15.637   2.177 -0.0502 -0.1351  0.0022
24256W        W39387  13.893  15.716   5.435  0.1999 -0.2284  0.2526
24257W        W39388   9.472   8.562  13.783 -0.0615 -0.1650 -0.1065
24258W        W39389  13.851   9.897  15.035 -0.2704 -0.1482  0.2808
24259W        W39390  10.456  12.417   1.791  0.0636  0.1021  0.1534
24260W        W39391   3.550   2.378  15.259 -0.0026  0.1300  0.0009
24261W        W39392  14.460   1.555  11.290  0.0243  0.1455 -0.0914
24262W        W39393  17.475   9.615   0.917 -0.0713  0.1213  0.1388
24263W        W39394  11.516   6.612  15.066 -0.2276 -0.2441  0.3916
24264W        W39395  13.379   8.074  14.159 -0.2437  0.1056 -0.2561
24265W        W39396  16.602  12.260  14.184 -0.3694  0.1018 -0.0626
24266W        W39397   8.532   5.246   1.852  0.1166 -0.2306 -0.0954
24267W        W39398  13.776  12.086   3.120 -0.0792 -0.2656  0.0204
24268W        W39399   4.035  12.956   4.562  0.1240  0.0349  0.2333
24269W        W39400   3.845   9.991  12.306  0.3124  0.2061  0.0198
24270W        W39401   4.315  13.894  13.696 -0.1335  0.3136  0.1458
24271W        W39402  13.259   9.769  15.871  0.1907 -0.0073  0.0100
24272W        W39403  17.173  11.544  11.831 -0.2210 -0.1260  0.5465
24273W        W39404   8.017   7.458   4.486 -0.0787 -0.1571  0.1260
24274W        W39405  15.017  16.025   3.409 -0.3052  0.2943 -0.1438
24275W        W39406  10.722   9.523  15.428 -0.1363 -0.1685  0.0007
24276W        W39407   1.346  14.149  12.354  0.3575 -0.0357  0.0816
24277W        W39408   6.641  11.499   3.605  0.1476  0.5750  0.2670
24278W        W39409   4.561  11.418  11.758  0.6062 -0.3692 -0.3815
24279W        W39410  16.688   9.857   4.499 -0.1341 -0.2521  0.0412
24280W        W39411   1.501  17.342   2.825  0.1215 -0.1569  0.1528
24281W        W39412   5.758  10.066  14.657 -0.2008  0.2593 -0.0234
24282W        W39413  17.903   4.527  14.518  0.3736  0.0451  0.1737
24283W        W39414   3.636   7.325   4.332 -0.0874 -0.0235  0.2788
24284W        W39415  14.351   9.217  13.925  0.2055 -0.0409 -0.0420
24285W        W39416   9.088  18.394  11.582 -0.2848 -0.1571 -0.1280
24286W        W39417  12.680  15.634  11.165  0.0323  0.2049 -0.0017
24287W        W39418  10.162  10.597  11.595  0.0535  0.0230 -0.1772
24288W        W39419   9.362  12.741  12.343 -0.0397 -0.0784 -0.1643
24289W        W39420   8.209   5.068   1.351  0.2953  0.0743  0.1066
24290W        W39421  18.348   6.228   5.964 -0.1082  0.5170 -0.0853
24291W        W39422   2.190   6.336  14.842  0.5785 -0.1097 -0.2065
24292W        W39423   4.848  16.956  10.851 -0.0081 -0.0165  0.0401
24293W        W39424  17.148   6.034   0.448 -0.4132 -0.2679  0.0243
24294W        W39425   4.443   3.527   4.443  0.1060 -0.4463 -0.2730
24295W        W39426  18.086  18.148   0.668 -0.1254 -0.0127 -0.0054
24296W        W39427  15.286  16.003  10.570 -0.0431  0.0054  0.2560
24297W        W39428  16.987   9.390   4.532  0.1174 -0.1418 -0.0251
24298W        W39429  12.986  12.548   0.988  0.4010 -0.0849  0.0307
24299W        W39430   7.192  18.370   2.428  0.0314  0.0443 -0.0777
24300W        W39431   3.031   9.505   0.492 -0.2079 -0.0017  0.1739
24301W        W39432   4.768   5.874   0.674 -0.0286 -0.1254  0.0384
24302W        W39433  12.068  10.950  11.175 -0.3999  0.1431 -0.4190
24303W        W39434   8.501  15.196   5.121  0.2043 -0.0789  0.1004
24304W        W39435  10.293  17.914   0.434 -0.1167  0.5950  0.1203
24305W        W39436   4.610   5.144   0.436  0.1340  0.0599  0.2685
24306W        W39437  17.514  17.663  11.815  0.0321  0.2188  0.0831
24307W        W39438   6.704   7.701  15.329 -0.2361  0.2046 -0.0834
24308W        W39439  14.025  15.216  16.022 -0.0311 -0.0741 -0.0195
24309W        W39440   1.991   8.850  13.108  0.0962  0.1265  0.3737
24310W        W39441   7.616  17.916  15.125  0.0108  0.0807 -0.1782
24311W        W39442  13.142  12.316  12.917 -0.2082  0.0881 -0.4554
24312W        W39443   9.840   8.902  13.915 -0.2065  0.0557 -0.0758
24313W        W39444  12.750   5.151   6.355 -0.0738 -0.0448 -0.0957
24314W        W39445   6.641  10.421   3.229 -0.4743 -0.1364  0.0730
24315W        W39446  12.675   7.386   3.216  0.0392 -0.0151 -0.0861
24316W        W39447   1.688  15.095  11.952 -0.1920  0.2291  0.1313
24317W        W39448   0.317   8.895  12.178  0.3505 -0.2453  0.3383
24318W        W39449  10.359  13.631  13.547 -0.0367  0.0571 -0.0713
24319W        W39450   3.325  10.689   2.716 -0.0953  0.0757  0.1011
24320W        W39451  17.259  14.758   4.624  0.3898 -0.1195  0.0638
24321W        W39452   0.741  16.898   0.660 -0.2132 -0.0216  0.2525
24322W        W39453   1.695   0.059   1.219 -0.0750  0.1095 -0.0891
24323W        W39454  13.377  15.624   1.228 -0.0472 -0.0162  0.1454
24324W        W39455  14.034   1.558   4.035 -0.0865  0.0902  0.0164
24325W        W39456   7.217  15.769   4.885 -0.4071  0.1792  0.2950
24326W        W39457  17.691   5.944   4.338 -0.0455  0.3761 -0.1899
24327W        W39458   9.437  15.117   2.654  0.2299 -0.0551 -0.0857
24328W        W39459   2.973   5.130  13.521 -0.5173 -0.2130  0.1212
24329W        W39460  14.496  11.948   2.890 -0.0098 -0.1356 -0.0465
24330W        W39461  13.114   7.922   0.720  0.2686 -0.0005 -0.0404
24331W        W39462   5.139   3.640  11.219  0.3251  0.3807 -0.1994
24332W        W39463   7.130   6.169   0.030  0.2484 -0.0455  0.0875
24333W        W39464   5.309   7.219  15.245  0.0352  0.0278 -0.0822
24334W        W39465   9.799   6.603   4.508  0.1859 -0.1149  0.1161
24335W        W39466  16.527   3.958   2.382  0.0823 -0.1415  0.0919
24336W        W39467   2.212   5.223   3.577 -0.1495 -0.1373  0.0229
24337W        W39468  17.845   8.822   5.193 -0.1750 -0.1956 -0.1604
24338W        W39469  15.914   2.317   1.887  0.1850  0.2713 -0.1582
24339W        W39470   2.739   0.873   1.294 -0.0816  0.1158  0.0763
24340W        W39471  15.629  15.651  14.309  0.0354 -0.1420  0.1180
24341W        W39472   9.332   7.225   3.966 -0.0264 -0.1373  0.1897
24342W        W39473  13.359   9.024   4.534  0.3169 -0.2024  0.1649
24343W        W39474  11.539   6.982  12.546 -0.3765  0.3614 -0.0524
24344W        W39475   4.373  17.317  13.839 -0.1071 -0.0586 -0.1597
24345W        W39476   2.747  14.672  11.453  0.2287 -0.0043  0.0071
24346W        W39477  18.011  18.285   4.056 -0.2916  0.0916  0.0765
24347W        W39478  14.528   1.495  14.645 -0.3223 -0.1301 -0.2640
24348W        W39479   3.673   9.597   3.710 -0.0817  0.0473 -0.0286
24349W        W39480  16.073  14.841  15.319 -0.1749  0.1652  0.0542
24350W        W39481   7.277  18.457  11.447  0.0436 -0.2450  0.1456
24351W        W39482   9.067  12.416   4.076 -0.2178  0.1295 -0.0390
24352W        W39483  16.843   0.107   1.570 -0.1731 -0.3641 -0.3516
24353W        W39484   8.270   1.218   3.921  0.1300 -0.5089 -0.0020
24354W        W39485   4.928   1.889  13.942 -0.1621 -0.0393 -0.1173
24355W        W39486   1.462  14.616  15.014 -0.1592  0.2541 -0.2958
24356W        W39487   4.293  16.354  10.900 -0.0953  0.0189  0.1359
24357W        W39488   6.529   4.892   5.802  0.0634  0.0631  0.1712
24358W        W39489   8.747   4.835  13.564  0.0913 -0.4279 -0.1983
24359W        W39490   7.998  15.739   1.354 -0.0345  0.1153 -0.0298
24360W        W39491  10.318   7.156  13.098 -0.0434 -0.2582 -0.6412
24361W        W39492   0.128  16.325  10.623  0.0236 -0.4071 -0.0726
24362W        W39493   6.230  10.186   1.277  0.0494  0.2591 -0.0478
24363W        W39494  10.327   8.441   5.721  0.0215 -0.3219 -0.0681
24364W        W39495   3.164  10.293  13.557  0.2758 -0.1129 -0.2077
24365W        W39496  11.512  15.629   3.771 -0.0626 -0.0845  0.0470
24366W        W39497  17.816   2.680  10.323  0.3570 -0.1185 -0.0781
24367W        W39498   8.168  11.009  12.877  0.0162  0.3085 -0.2959
24368W        W39499   1.669   6.623   2.083 -0.2728 -0.2805 -0.2988
24369W        W39500   4.471  13.687  14.253  0.0072  0.2528 -0.1242
24370W        W39501  11.271   3.484   1.768  0.0368 -0.2713  0.0743
24371W        W39502   5.047   6.009  15.557  0.6892  0.2646  0.1100
24372W        W39503   0.191  10.096   2.181  0.3747  0.0754  0.1451
24373W        W39504   3.532   2.935   2.801  0.1654  0.1503  0.1163
24374W        W39505   8.861   7.637  14.432 -0.0470  0.0753 -0.0318
24375W        W39506   7.334  11.761  15.597  0.4240 -0.1587 -0.0810
24376W        W39507   0.083  15.679   0.313  0.0180  0.2036 -0.0558
24377W        W39508   2.756   2.493   1.809 -0.2492 -0.2848 -0.3473
24378W        W39509  10.677   2.026  12.361 -0.1440 -0.0579  0.0592
24379W        W39510  10.546  14.657  12.161  0.0474 -0.0520 -0.2188
24380W        W39511  11.580   2.321  12.226  0.0902 -0.0421  0.0282
24381W        W39512  15.009  12.372   2.368  0.1752  0.0869 -0.0393
24382W        W39513   6.078   7.354  12.259 -0.1143 -0.0723  0.1750
24383W        W39514   7.886  12.774   1.425 -0.1371  0.0003 -0.4121
24384W        W39515   7.424   5.987  14.474  0.1059 -0.3714  0.0357
24385W        W39516   4.317   7.805   0.025 -0.3660  0.1062  0.2280
24386W        W39517  18.278  11.375  14.384  0.1568  0.0552 -0.1538
24387W        W39518  14.717  17.364  13.866  0.1216 -0.1996  0.1837
24388W        W39519  17.710  10.714  14.790 -0.0201  0.1672  0.0456
24389W        W39520   5.400  17.544   1.667  0.4472 -0.1360 -0.2290
24390W        W39521   0.969   3.354   4.082 -0.1144  0.1948  0.3048
24391W        W39522   7.958  18.368  10.900 -0.1391  0.3427  0.0791
24392W        W39523  15.950  17.397  14.388  0.2125 -0.0775 -0.0296
24393W        W39524   5.899   9.218   3.822  0.3483  0.0971  0.0642
24394W        W39525  11.708   9.649  14.166  0.2240  0.0747 -0.1158
24395W        W39526   8.602   6.984  15.058  0.0547  0.0524 -0.1797
24396W        W39527   6.550  13.565   3.003  0.1319 -0.1814 -0.4107
24397W        W39528  16.821  16.718   4.895  0.1955 -0.1850  0.0849
24398W        W39529   1.871   2.159  10.162 -0.3932  0.0400 -0.3060
24399W        W39530   7.439  10.762   4.153  0.1993  0.0380 -0.1843
24400W        W39531  18.321   5.623   4.877  0.3027 -0.0048  0.3000
24401W        W39532   0.970  12.114  14.743 -0.0721  0.0958  0.3147
24402W        W39533   4.204   6.237  14.685 -0.2026 -0.1305 -0.2156
24403W        W39534   0.665  18.464  15.145 -0.1388 -0.0717 -0.0304
24404W        W39535  14.772   5.795  14.512  0.1653 -0.0633 -0.4120
24405W        W39536   0.681  16.219  12.922  0.2301 -0.0777 -0.4555
24406W        W39537   7.418  11.098   4.707  0.1171 -0.1319  0.2953
24407W        W39538  16.701   5.503  14.162 -0.0015 -0.1323  0.0081
24408W        W39539  17.078  10.997  13.048 -0.1207 -0.3338  0.1950
24409W        W39540   4.649  17.474   3.057 -0.0208 -0.1551 -0.2150
24410W        W39541  15.743  14.439  10.754 -0.0787 -0.0681  0.2516
24411W        W39542  17.026  10.100  14.724  0.1785  0.3188 -0.0947
24412W        W39543   6.523   5.373   2.164  0.1094 -0.1930 -0.2499
24413W        W39544   4.178   6.043   3.283  0.0165  0.0935  0.3000
24414W        W39545   8.586  13.823  13.389 -0.0759 -0.1414  0.0032
24415W        W39546  13.453   6.394   0.589 -0.2348  0.1869  0.4034
24416W        W39547  11.480  14.821  14.226 -0.2090  0.0550  0.0994
24417W        W39548   4.194  12.923   2.752 -0.2063 -0.3828 -0.2640
24418W        W39549  13.692  11.463  15.396 -0.3505  0.1283 -0.0271
24419W        W39550   1.203   3.481  11.560  0.0782 -0.0706  0.0334
24420W        W39551   1.292  18.360   2.718  0.2100 -0.2144  0.2019
24421W        W39552   2.982   7.201   0.154  0.3077 -0.2624  0.2154
24422W        W39553  15.241   5.520  12.614 -0.3161 -0.1453  0.2170
24423W        W39554  12.877   3.366   4.805 -0.2234 -0.3098  0.0777
24424W        W39555  13.831  17.390  15.174  0.0325  0.3267 -0.1506
24425W        W39556  14.764   6.256   4.034 -0.3172  0.1734  0.0704
24426W        W39557   1.877   1.006  13.001 -0.2934 -0.0139  0.0850
24427W        W39558   3.372   4.991   1.655 -0.1139 -0.2384  0.2601
24428W        W39559   0.336   0.765   0.336  0.0823 -0.0938  0.0346
24429W        W39560   2.974  13.589  11.046 -0.0238 -0.8238  0.1878
24430W        W39561  13.514  14.140  15.377  0.1049  0.0656  0.1736
24431W        W39562   1.413   6.685  11.254 -0.0273 -0.3118 -0.1479
24432W        W39563  12.085  12.321   0.151 -0.1102  0.1447  0.0711
24433W        W39564  10.611  11.106   4.261 -0.0295  0.1418 -0.1755
24434W        W39565   2.202  10.935   1.772 -0.0953 -0.1822  0.2189
24435W        W39566   8.049   6.690  15.850  0.2140 -0.0135  0.1232
24436W        W39567   1.388  15.232   9.095 -0.1632 -0.1639  0.0490
24437W        W39568   2.241  10.750  12.600  0.1182  0.3148  0.0650
24438W        W39569   8.521  14.838  13.718  0.0136 -0.5521 -0.1731
24439W        W39570   1.791  14.091   1.320 -0.3938  0.1050 -0.1872
24440W        W39571   1.540  13.319   4.316  0.0280  0.3120  0.0373
24441W        W39572   2.919   2.294   4.929 -0.0767  0.0227 -0.0419
24442W        W39573  10.041   8.111  14.496  0.3760  0.1450  0.1084
24443W        W39574  12.160  10.889  12.513  0.1050 -0.1541  0.0378
24444W        W39575   6.299  13.566  12.879 -0.2273 -0.2962  0.1759
24445W        W39576   0.154   5.467  11.449  0.2278 -0.3169  0.0284
24446W        W39577  10.660   7.093   1.332 -0.1938  0.0805 -0.0637
24447W        W39578   1.895  16.040  11.601 -0.2376  0.0346 -0.0686
24448W        W39579  10.289  18.120  15.407  0.1515  0.0610  0.1433
24449W        W39580  14.893  15.798  15.058 -0.0721 -0.3575  0.0680
24450W        W39581  17.788  10.922  13.333  0.3033 -0.1115 -0.0297
24451W        W39582  11.803   3.203  11.279 -0.1950  0.5264  0.2226
24452W        W39583   5.118  13.010   1.169  0.4127 -0.0440 -0.0253
24453W        W39584  13.536   8.543   0.257  0.4042  0.0189  0.1029
24454W        W39585   5.065   6.785  14.408 -0.1767 -0.0233  0.2330
24455W        W39586  15.225   5.802  13.715  0.3151  0.2687  0.2187
24456W        W39587  16.162   9.189   3.506 -0.2974  0.0740  0.0916
24457W        W39588   1.295  11.333   4.088  0.2770  0.1109  0.0664
24458W        W39589   6.368  16.551  10.816 -0.1064  0.2403  0.2174
24459W        W39590  17.516  14.808   0.715  0.0622 -0.2685 -0.0547
24460W        W39591  12.268   9.625   0.754 -0.2238  0.3984  0.1180
24461W        W39592   2.537  13.370   4.514  0.4501 -0.4108  0.2317
24462W        W39593  11.672  13.983  12.278 -0.0333 -0.1602  0.1238
24463W        W39594  18.099   0.688  11.732 -0.1046 -0.2668  0.0438
24464W        W39595   8.615  10.930  14.561  0.2417  0.4763 -0.1165
24465W        W39596   3.379   8.033  15.814 -0.1483 -0.2023  0.3100
24466W        W39597   0.321   8.590  14.888 -0.1049 -0.0881  0.2151
24467W        W39598   5.678   5.661  13.071  0.0316  0.0042  0.0541
24468W        W39599  13.056   7.612  11.936 -0.0138 -0.0915  0.0702
24469W        W39600   3.773   6.237   6.005  0.1324 -0.0286  0.1484
24470W        W39601   1.513  12.226  11.091 -0.2027 -0.1761 -0.0233
24471W        W39602  12.415  17.318   1.818  0.0691  0.1076 -0.0415
24472W        W39603  10.186   0.228  14.562 -0.0693 -0.1249  0.0014
24473W        W39604  10.287  12.703  11.113  0.0912  0.1326 -0.1288
24474W        W39605   0.549  16.233  10.377 -0.0689  0.0005  0.4250
24475W        W39606   7.720   2.212  12.404  0.0591 -0.3147 -0.2506
24476W        W39607  12.486  18.387  11.704  0.2059 -0.0069 -0.2301
24477W        W39608   7.960   6.413  15.443  0.1401  0.0060  0.0219
24478W        W39609  18.012  10.951  15.295  0.1839  0.0840 -0.1622
24479W        W39610   9.241   9.423   5.077 -0.1235 -0.0676  0.3150
24480W        W39611   3.361   4.328   3.452  0.1111  0.3381  0.1343
24481W        W39612  13.056  11.965  11.657 -0.4959  0.0041  0.1740
24482W        W39613  16.647  16.069   4.340  0.1152  0.0704 -0.0645
24483W        W39614  12.831  15.006  15.226 -0.1935  0.0122 -0.0786
24484W        W39615  18.305  10.588  12.363  0.0204  0.3272 -0.4314
24485W        W39616   7.959   1.686  15.311 -0.0824  0.1945 -0.0869
24486W        W39617  12.310  11.357  15.394  0.2567 -0.3039  0.1776
24487W        W39618  14.657  13.745  10.991 -0.0383 -0.0238  0.0051
24488W        W39619   1.637  18.042  13.673 -0.1672  0.1162  0.1619
24489W        W39620  18.452   5.422   3.041  0.0069 -0.1046 -0.0278
24490W        W39621  15.623   3.320  15.883 -0.2272  0.1677  0.2401
24491W        W39622  12.483   8.708   0.088  0.2266  0.3848 -0.0794
24492W        W39623  12.856  11.144   2.897 -0.0161 -0.0484 -0.1451
24493W        W39624   0.401  16.993  13.589 -0.3202  0.0631  0.0883
24494W        W39625  11.843   0.084  15.907 -0.1167  0.2315 -0.2227
24495W        W39626   8.610  16.233   1.141  0.0412 -0.0354 -0.0515
24496W        W39627  17.602  17.966   3.301  0.0444 -0.0053 -0.0495
24497W        W39628   4.924   6.478   3.371 -0.1252  0.3021  0.0160
24498W        W39629   1.182   9.506   3.073 -0.1378 -0.1154 -0.1920
24499W        W39630   3.424   1.923  13.263 -0.1025  0.2766  0.0440
24500W        W39631  18.132  14.571  12.256  0.1933 -0.2986 -0.0396
24501W        W39632  13.216   1.324  11.162  0.0634  0.2114 -0.1894
24502W        W39633  11.977  11.369   4.101  0.0233 -0.1255 -0.3794
24503W        W39634  14.459  10.806  12.830 -0.0319  0.1504  0.2079
24504W        W39635   3.642  18.215   1.371 -0.0057 -0.1308 -0.1023
24505W        W39636  16.751   5.846  14.532  0.2084  0.1396 -0.1946
24506W        W39637  17.429  12.145   1.324 -0.0887 -0.0136 -0.2776
24507W        W39638  18.109   8.846  14.057 -0.1120  0.1687  0.0532
24508W        W39639   0.689  14.530  13.078  0.3193 -0.1074  0.0942
24509W        W39640   0.644   5.240   0.152  0.0323 -0.1842 -0.1235
24510W        W39641   6.294   3.742   2.411 -0.2060 -0.0912 -0.0769
24511W        W39642   4.558  13.136   2.469  0.2925 -0.1180 -0.1249
24512W        W39643  10.615   2.527   2.657  0.3267  0.3163  0.1669
24513W        W39644  13.531  13.259   5.787  0.1372  0.0687 -0.3003
24514W        W39645  17.749   6.322  12.251  0.2585 -0.0643  0.1227
24515W        W39646   2.746  12.666   2.535 -0.0981  0.0501  0.1335
24516W        W39647   8.788  15.071   0.342 -0.0114  0.0101  0.0171
24517W        W39648  12.370   5.666   1.918 -0.1009 -0.1874  0.1717
24518W        W39649  14.024   2.477   6.097  0.1944 -0.0584  0.3270
24519W        W39650  10.881   0.462   0.196 -0.0762 -0.0952  0.1562
24520W        W39651   5.197   7.530   2.184 -0.0577  0.1460  0.3201
24521W        W39652   1.314   3.230   3.555  0.4490 -0.2813  0.2107
24522W        W39653   0.402  17.163   1.171  0.0151  0.0208 -0.1997
24523W        W39654   4.204   3.458  12.965 -0.1090  0.0557  0.1340
24524W        W39655  15.461   5.145  11.470 -0.2350  0.0321  0.1129
24525W        W39656  11.081  17.968  12.245 -0.2008  0.2293  0.3027
24526W        W39657  10.454   1.386  15.861  0.1486  0.0248 -0.3058
24527W        W39658  17.507  17.086   4.607  0.2815  0.3778 -0.1464
24528W        W39659   0.568  14.187  12.607 -0.2518  0.1473 -0.0267
24529W        W39660  11.307  17.290  13.898 -0.0077  0.3510 -0.3488
24530W        W39661   3.765   5.143   5.250 -0.1066 -0.2107  0.1366
24531W        W39662  17.073   5.113  13.345 -0.0740 -0.1109  0.2517
24532W        W39663  11.171   9.012   3.450 -0.0975  0.2653 -0.0871
24533W        W39664   5.210   1.103  13.463  0.1367  0.0595 -0.0052
24534W        W39665   9.621   1.970  12.142  0.1214 -0.4228  0.0616
24535W        W39666   0.287   5.021   2.751 -0.1611 -0.1175  0.2994
24536W        W39667  13.191   7.860   5.653 -0.0907  0.1530  0.3217
24537W        W39668  14.170  18.128  13.207 -0.3170 -0.1203 -0.3644
24538W        W39669   7.659  13.231  11.942  0.1316 -0.0360  0.0576
24539W        W39670   8.398  12.946  12.218 -0.0430  0.3141  0.1416
24540W        W39671  13.276   8.007   1.758 -0.1735  0.0324  0.1599
24541W        W39672  13.622   7.683  15.558  0.1069  0.1802  0.4966
24542W        W39673   9.627   0.361   4.834 -0.2364 -0.0714 -0.4888
24543W        W39674  15.767  11.312   1.216 -0.1184  0.0678 -0.1108
24544W        W39675  10.467  16.829  12.142  0.1331  0.2505  0.0312
24545W        W39676   9.994   3.585  15.426  0.2220 -0.2414  0.0683
24546W        W39677   5.793  13.467   4.743 -0.1740  0.0830 -0.0344
24547W        W39678   4.598  15.106   0.339  0.3585 -0.1263 -0.0172
24548W        W39679  15.980  10.892  14.164 -0.0212  0.1150 -0.1205
24549W        W39680   1.376  14.546   1.947 -0.2571  0.2132  0.1182
24550W        W39681   9.997   0.582  11.282 -0.1956  0.0202 -0.1325
24551W        W39682   1.098   8.924  11.729  0.0019 -0.2823 -0.1351
24552W        W39683  10.618   2.669   3.666  0.0653 -0.0573 -0.2214
24553W        W39684   7.421  11.287   3.838  0.0786 -0.1397  0.3788
24554W        W39685  14.248  14.910   5.634  0.1940  0.0356 -0.2072
24555W        W39686  17.669  15.703  11.851 -0.1125 -0.0662  0.2023
24556W        W39687   2.990   1.056  14.770 -0.0838  0.3467  0.0151
24557W        W39688   8.890  17.161   0.238  0.4500  0.3113  0.2981
24558W        W39689   5.774  15.476  14.944  0.1229  0.1172 -0.1793
24559W        W39690   0.953  18.218  13.661 -0.2480  0.1264 -0.4204
24560W        W39691   1.278   9.499  12.335  0.2764  0.1698  0.1438
24561W        W39692  15.853  17.716   2.442 -0.2376  0.1036 -0.1344
24562W        W39693   6.222  16.077   4.065  0.0094 -0.0177  0.2831
24563W        W39694   7.877  12.629  11.280 -0.0377 -0.1301 -0.0909
24564W        W39695  17.584  10.171  13.573 -0.2899 -0.0006 -0.1477
24565W        W39696   9.197   1.900   2.393 -0.0588 -0.0328 -0.1080
24566W        W39697   5.639   6.400   3.948  0.1124  0.0628 -0.1054
24567W        W39698  14.787   0.107   2.490  0.0255 -0.0498 -0.2972
24568W        W39699  15.309  12.847   3.118 -0.2954 -0.1290 -0.1105
24569W        W39700  17.219   8.059  13.037 -0.3099  0.0858 -0.0463
24570W        W39701  16.489   5.418   1.060 -0.0807  0.2437 -0.1696
24571W        W39702  12.356  11.414  12.214  0.0687 -0.2161 -0.3319
24572W        W39703   7.916   9.293  11.598 -0.2846  0.0250  0.0647
24573W        W39704   3.888   7.808  13.424 -0.3171  0.1860  0.0879
24574W        W39705   8.219  12.846  14.161 -0.0794 -0.0938  0.1946
24575W        W39706  16.173   3.616  12.924 -0.0140  0.0445 -0.3904
24576W        W39707   9.168   4.304   5.326 -0.2403  0.1211 -0.2870
24577W        W39708   8.226  10.251   4.996  0.0882  0.4235  0.0091
24578W        W39709   4.942   5.047  14.504 -0.1328  0.1700 -0.4506
24579W        W39710   8.492   3.915   4.301 -0.1577  0.2100  0.0957
24580W        W39711   6.007   3.372   2.231 -0.3066  0.1246 -0.2031
24581W        W39712  14.212   3.789   3.045  0.3177  0.0022  0.3523
24582W        W39713  16.108   0.740  10.757  0.2204  0.4758  0.0028
24583W        W39714   2.706  18.260   4.964  0.0300 -0.0161 -0.2164
24584W        W39715   0.749  15.647  13.907 -0.1042 -0.1056  0.0258
24585W        W39716   1.182   8.607  15.498 -0.1159 -0.0378  0.0311
24586W        W39717   0.501  17.272   2.524 -0.2075  0.2146 -0.0237
24587W        W39718  11.950  16.699   4.754  0.1096 -0.0237  0.0514
24588W        W39719  14.667   4.064   0.937  0.3832 -0.2855 -0.2526
24589W        W39720   1.183   2.241  13.780 -0.0758  0.0209 -0.0594
24590W        W39721   2.079   1.851  13.378 -0.4627 -0.1570 -0.2663
24591W        W39722   3.409   3.544  12.326 -0.0652  0.3757 -0.1566
24592W        W39723   9.777  12.532   3.223  0.1750 -0.0131  0.1408
24593W        W39724   1.820   5.348  11.493 -0.0795  0.3599  0.1961
24594W        W39725   0.641  15.372   0.268  0.2482  0.0653  0.2198
24595W        W39726   6.427   5.206  11.446  0.2227 -0.0660 -0.2547
24596W        W39727   3.397   9.021   5.259  0.0359 -0.2363  0.2536
24597W        W39728   2.671   8.016  11.761  0.2157 -0.0387 -0.1651
24598W        W39729   1.002  13.785   1.434  0.0779 -0.1470 -0.1475
24599W        W39730  17.567  12.815   1.440  0.0473 -0.2580 -0.3030
24600W        W39731   6.428   0.447   3.776 -0.3704  0.3293 -0.0909
24601W        W39732   6.538   9.958   3.635  0.2389 -0.1264  0.0769
24602W        W39733   1.396  17.799  11.931  0.0343  0.0673 -0.0332
24603W        W39734   2.970   3.058  10.281 -0.0585 -0.1830 -0.2171
24604W        W39735   9.028   0.447  12.324  0.0450 -0.4916  0.2984
24605W        W39736   1.640   5.045  15.330  0.1805  0.2603 -0.5309
24606W        W39737   3.259   8.935  15.697  0.1491  0.0025  0.1171
24607W        W39738   7.784   3.023   5.549 -0.0183  0.2808 -0.2151
24608W        W39739  12.083  13.818  12.491  0.4069  0.2174  0.1140
24609W        W39740   5.579   2.333  13.358 -0.3149  0.0820 -0.2064
24610W        W39741   4.904   0.282   2.943 -0.1895  0.1395 -0.2452
24611W        W39742   1.838   7.636  11.876 -0.0465 -0.0246  0.0866
24612W        W39743   2.729   0.027  10.180  0.0595 -0.0182 -0.3465
24613W        W39744   7.577   3.914  12.236  0.1179 -0.3533 -0.4279
24614W        W39745   3.332   1.026  14.420  0.2407 -0.0353 -0.1947
24615W        W39746   0.680  11.493  15.567 -0.1783  0.2190 -0.1072
24616W        W39747   5.276  16.274  13.370 -0.0590 -0.0117  0.1403
24617W        W39748   1.215  10.591   4.258 -0.0835 -0.0174 -0.0790
24618W        W39749   5.197   9.231   0.435 -0.0605 -0.0204  0.3590
24619W        W39750   1.060   1.555   0.216  0.0591 -0.1201 -0.1095
24620W        W39751   2.302  10.087   5.477  0.0605  0.1301 -0.2088
24621W        W39752  14.545  12.527  12.900 -0.3178 -0.3524  0.0930
24622W        W39753  13.067  10.161  12.632  0.0102  0.0810  0.3698
24623W        W39754  17.825   8.277   5.035 -0.1030 -0.4498  0.0140
24624W        W39755  15.467  13.494  14.116 -0.0329  0.0267 -0.1100
24625W        W39756   1.625  10.935  14.207  0.0508  0.2215  0.3342
24626W        W39757  12.917   5.230  13.250  0.3840 -0.2783 -0.2161
24627W        W39758  16.657   4.056  11.068  0.2229 -0.1266 -0.2432
24628W        W39759  18.006   3.674   1.373  0.1909  0.1424 -0.0540
24629W        W39760  14.116   9.648   2.639  0.0936 -0.1772 -0.1356
24630W        W39761   5.708   8.903  13.181  0.0686  0.0966 -0.4546
24631W        W39762   8.466  14.188   0.723 -0.1639 -0.0121  0.4113
24632W        W39763   8.350  10.470  13.703 -0.1840  0.1115 -0.1970
24633W        W39764   1.794   7.046   5.179 -0.1457  0.0392  0.0726
24634W        W39765   6.323  18.258  11.057  0.0180  0.3067 -0.1496
24635W        W39766   7.810  11.800  12.711 -0.0314 -0.0227 -0.1884
24636W        W39767   9.253  12.540   0.364 -0.0754 -0.0001  0.0097
24637W        W39768   1.125   7.820  14.415 -0.0436 -0.4310  0.0256
24638W        W39769  15.844  13.072   0.875  0.5603  0.2949  0.1861
24639W        W39770  12.276  14.734   5.712 -0.0595  0.0656 -0.1969
24640W        W39771   8.574  14.247   1.600  0.0848  0.1931  0.4415
24641W        W39772  12.843   4.584   0.187 -0.1048  0.0690 -0.0592
24642W        W39773  11.362   2.922  12.295  0.0349 -0.1126 -0.3312
24643W        W39774  12.004  16.243   3.899 -0.2888 -0.3227  0.2025
24644W        W39775   8.961  16.669   5.216  0.1925  0.1222 -0.0893
24645W        W39776  16.531  18.006  13.672 -0.0100  0.0144  0.1566
24646W        W39777   8.340   1.791   4.927  0.3116 -0.0452  0.3942
24647W        W39778  14.148   9.494  14.879  0.0213  0.1686  0.1929
24648W        W39779  13.593   0.312   0.413  0.1471  0.2126  0.0709
24649W        W39780   6.722  10.194   1.542  0.3904 -0.4872  0.1459
24650W        W39781  11.635   6.262  11.804  0.0453 -0.1419  0.2567
24651W        W39782   2.703   7.998   4.505 -0.0768 -0.1061  0.0803
24652W        W39783  10.369   5.399   4.941  0.0608  0.3179 -0.4181
24653W        W39784  15.831  13.775   3.417  0.3688  0.1425 -0.0118
24654W        W39785  14.447   3.516   5.949 -0.3340 -0.0748 -0.1681
24655W        W39786   5.409  11.613  15.012  0.2049  0.0128 -0.3613
24656W        W39787   6.628   7.858  13.614 -0.0902 -0.0012  0.2824
24657W        W39788   6.561   0.111  11.365 -0.3120  0.0922  0.0008
24658W        W39789   6.057   6.486   4.843 -0.2636  0.2453  0.1534
24659W        W39790   7.520  18.302  14.821  0.0360  0.4676 -0.4032
24660W        W39791  15.457   2.914  13.427  0.0630  0.2430  0.0988
24661W        W39792   2.916   6.429  12.852  0.2271 -0.2059  0.1915
24662W        W39793  12.694   3.230  12.168  0.1427  0.1474  0.0394
24663W        W39794   0.558   9.704  10.963 -0.1601  0.2796 -0.1301
24664W        W39795  16.843   6.652   5.398 -0.1465 -0.3045  0.1393
24665W        W39796  17.483  14.621   3.520  0.0286  0.2526  0.0974
24666W        W39797  17.091  17.174   0.048 -0.1094 -0.1927 -0.0257
24667W        W39798  16.486  14.846  11.550 -0.3535  0.1542  0.1682
24668W        W39799   2.088   6.990  13.219  0.0510  0.0819 -0.0834
24669W        W39800   5.210   4.665   3.383  0.1260 -0.0911 -0.2964
24670W        W39801   5.709  15.687  12.389  0.1367 -0.0082 -0.0321
24671W        W39802  16.145   2.724   3.396 -0.0730 -0.0735  0.1488
24672W        W39803  13.441  12.334   0.267  0.0934 -0.1973 -0.0377
24673W        W39804   2.445   2.778  13.040  0.2196 -0.0615  0.1238
24674W        W39805  14.746  15.311   0.575  0.1240  0.3439 -0.0171
24675W        W39806  17.427  16.872   0.833 -0.1270 -0.3762 -0.1665
24676W        W39807   0.795  15.938  12.431 -0.0531 -0.2526 -0.1523
24677W        W39808  12.062   0.389   5.369 -0.1399 -0.1016 -0.0087
24678W        W39809  16.448   0.896  15.427 -0.1797  0.0334 -0.2927
24679W        W39810  16.884   0.210  11.872 -0.0108 -0.0757 -0.1918
24680W        W39811   5.812   3.962   1.461 -0.2882  0.1523  0.0163
24681W        W39812  14.947  15.091   4.098 -0.3468 -0.0776  0.0084
24682W        W39813   2.939  14.151  12.746  0.0964  0.0891  0.0498
24683W        W39814   7.669  17.224  13.398  0.1814 -0.0234 -0.0649
24684W        W39815   9.432   1.570   1.801  0.1894 -0.0139  0.0781
24685W        W39816   7.981   6.989   1.473  0.1970  0.0357  0.0563
24686W        W39817   8.000  14.909  13.557 -0.0594  0.1162  0.1393
24687W        W39818  12.213   0.095   1.693 -0.0464  0.4462 -0.0355
24688W        W39819  12.538  14.172   3.117 -0.0863  0.0508  0.0479
24689W        W39820   1.584  17.454  11.018 -0.1171 -0.1361  0.1996
24690W        W39821   6.437  18.473  16.071  0.3717 -0.0084  0.0542
24691W        W39822   7.954  17.074   0.530 -0.2201 -0.2528 -0.1786
24692W        W39823   4.881   4.068  13.542 -0.1460 -0.2781  0.2803
24693W        W39824  12.704   4.244   1.136 -0.2234 -0.0383 -0.0253
24694W        W39825  17.297   0.926  12.240 -0.1341  0.1124 -0.1753
24695W        W39826  11.414  11.106   2.835 -0.4569  0.0498 -0.0149
24696W        W39827   2.604   9.029   5.257 -0.0371 -0.0337 -0.2694
24697W        W39828  16.666  10.846   3.407 -0.2353 -0.0396 -0.0067
24698W        W39829  18.311   9.388   3.949 -0.0071  0.1845  0.0882
24699W        W39830   9.011  13.141   2.852  0.0780  0.2525  0.0951
24700W        W39831   4.989   1.062   0.920  0.1200  0.1766 -0.3709
24701W        W39832  16.020  15.910   3.023 -0.0800 -0.0138 -0.0495
24702W        W39833   8.909  12.621   2.805  0.0511  0.0261 -0.0581
24703W        W39834   6.907   2.637   2.746 -0.2138 -0.2503  0.0278
24704W        W39835   3.532  13.408  11.923  0.0190 -0.0127  0.0366
24705W        W39836  16.324  15.122  12.291  0.0947  0.0103  0.1562
24706W        W39837   7.234  12.497  12.370 -0.2674 -0.3401  0.1346
24707W        W39838  13.895   8.417   4.190  0.0036 -0.0446 -0.3419
24708W        W39839   6.167   4.025   3.863  0.1749 -0.0546 -0.1986
24709W        W39840   4.329   0.192   3.833  0.0877 -0.0833 -0.3003
24710W        W39841  10.926   4.032  13.791  0.1043  0.1906  0.2019
24711W        W39842   3.783  14.588   0.552  0.1178 -0.1470  0.0645
24712W        W39843  11.539   9.665   2.751 -0.2284 -0.0502  0.0415
24713W        W39844   3.197   0.936   3.044 -0.1155  0.4687 -0.0401
24714W        W39845  10.147   4.549  15.666  0.1777  0.1737  0.0479
24715W        W39846  17.426   9.150  15.344  0.0302  0.2988  0.0792
24716W        W39847   5.199   3.906  13.912 -0.0245  0.0293  0.0863
24717W        W39848   3.594  14.949  15.869  0.0950 -0.0188 -0.1465
24718W        W39849   0.228  12.546   4.312 -0.1194 -0.0287 -0.1380
24719W        W39850   9.068  14.021  11.223  0.1599 -0.0525  0.1256
24720W        W39851   0.371  13.804   3.456 -0.1727 -0.0261  0.0035
24721W        W39852  10.226  12.928  12.339 -0.0078 -0.1922  0.1596
24722W        W39853   8.481  15.847   1.414 -0.2816 -0.0969  0.1449
24723W        W39854  11.747   4.873   4.463 -0.1701 -0.0262  0.6773
24724W        W39855   0.431   0.381   3.040  0.2763 -0.2126 -0.3344
24725W        W39856   8.378   1.539  15.111  0.2477 -0.2303 -0.1728
24726W        W39857   3.351  15.023  12.763 -0.1806 -0.2368  0.3889
24727W        W39858   4.546   4.070   0.574  0.1031  0.0965  0.0011
24728W        W39859  14.870   1.886   3.041  0.0657  0.1092  0.0436
24729W        W39860  13.895   6.627  13.736 -0.1054 -0.1800  0.3815
24730W        W39861   7.426  14.294  10.160 -0.4883 -0.2057  0.0895
24731W        W39862  16.466   1.074  10.813  0.0454  0.1609  0.0018
24732W        W39863  10.138   3.997   1.340  0.1074  0.1988  0.0166
24733W        W39864  12.569  18.092  15.988 -0.0020  0.0963 -0.4765
24734W        W39865   9.005   0.956  14.722  0.0208 -0.0698 -0.0477
24735W        W39866   1.350   5.560   4.796 -0.3492  0.1537  0.1060
24736W        W39867  17.673  13.567  16.029  0.1381 -0.3019  0.1621
24737W        W39868  13.154  14.292  12.446 -0.2559  0.0456 -0.0402
24738W        W39869  12.198  14.591  11.611 -0.3879  0.0621  0.0306
24739W        W39870   4.639   9.994  11.350  0.1430  0.3791  0.2343
24740W        W39871  15.799   3.092  15.104  0.0158  0.0744  0.1247
24741W        W39872   2.283   8.798  11.564 -0.1427  0.1792  0.2438
24742W        W39873   5.180   7.825  13.814  0.0072 -0.0970 -0.1446
24743W        W39874  11.768  16.080   5.366 -0.4388  0.0216  0.0122
24744W        W39875   0.749   2.170  13.509 -0.0574 -0.0101  0.0024
24745W        W39876  16.372  11.695   2.615 -0.0736  0.2367 -0.0022
24746W        W39877   1.381  14.469   1.480 -0.0908 -0.1389  0.3158
24747W        W39878  13.178   0.906   3.839 -0.0943 -0.3239  0.1381
24748W        W39879   5.764   5.774  14.214 -0.0236  0.1430 -0.3825
24749W        W39880  13.231  16.463  13.330 -0.2964  0.0018  0.2681
24750W        W39881  13.413  17.332  13.367  0.0326 -0.1376 -0.1634
24751W        W39882  14.790   7.325   0.302  0.0359  0.1589 -0.3747
24752W        W39883  15.473   0.083  13.515  0.1234  0.0971  0.1536
24753W        W39884  13.424   3.284  12.769  0.1904  0.1856 -0.0669
24754W        W39885   1.945   6.645  11.101 -0.0066  0.2142  0.3159
24755W        W39886  12.463   3.696  15.261 -0.1386 -0.1693  0.0811
24756W        W39887   5.150  10.779  13.384  0.1128  0.3551 -0.0432
24757W        W39888  12.682   6.199  12.273  0.0555 -0.2126 -0.0046
24758W        W39889   2.426  15.835  13.424 -0.2203  0.3291  0.2104
24759W        W39890   5.411   1.747   2.827  0.3588 -0.1574  0.0553
24760W        W39891   0.395  13.669  11.862  0.1440  0.1896  0.0378
24761W        W39892   7.260   2.936   4.472  0.1229 -0.2445  0.0157
24762W        W39893  17.570   0.836   1.475 -0.3748 -0.0137 -0.0811
24763W        W39894   9.892  13.200   3.837  0.1650  0.4262  0.2146
24764W        W39895   7.492   0.978  11.422 -0.0270 -0.0096  0.0138
24765W        W39896  11.989   1.653  13.542 -0.1564  0.0480 -0.1149
24766W        W39897  11.869   2.009  13.103 -0.2342  0.0355  0.3153
24767W        W39898   4.249  17.189  14.928  0.0894 -0.0941 -0.2857
24768W        W39899  13.156  15.611   2.661 -0.0769 -0.4199  0.2664
24769W        W39900   4.837   8.102   0.209 -0.2901 -0.1107 -0.2913
24770W        W39901   3.901   8.104  15.765  0.0398  0.0311 -0.1432
24771W        W39902  10.505  17.736   5.204  0.1591  0.1354  0.0449
24772W        W39903   5.791   4.539   0.207  0.2202  0.0572 -0.1644
24773W        W39904   3.866   7.205   0.852 -0.1311 -0.0068 -0.2893
24774W        W39905   3.171  18.370   5.139  0.1002  0.1537  0.1508
24775W        W39906  10.220   5.135   5.391 -0.1723  0.1048  0.5365
24776W        W39907   0.805  17.252  12.754 -0.0784 -0.2571 -0.0565
24777W        W39908  14.999   2.876   0.235 -0.0385  0.0801  0.0340
24778W        W39909  14.258  15.451   4.493 -0.1446  0.1248  0.0778
24779W        W39910  11.422   3.707   2.211  0.2242 -0.1086 -0.5799
24780W        W39911   3.388   6.631  12.279  0.3121  0.2018 -0.0201
24781W        W39912   3.121   0.821   0.148  0.1199 -0.0752 -0.0328
24782W        W39913   4.058   5.522   1.062 -0.1332  0.0327  0.0127
24783W        W39914  11.782   1.395   4.395 -0.1978  0.2386  0.0204
24784W        W39915  18.392  15.622   3.840 -0.0481 -0.1356  0.3645
24785W        W39916   7.979  17.341   1.905  0.0017 -0.1424 -0.0608
24786W        W39917   1.470  11.461  14.350 -0.0888  0.2508  0.0791
24787W        W39918  11.383  13.736  15.627 -0.3260 -0.3518  0.3705
24788W        W39919  14.096   0.411   3.013 -0.0955 -0.0314  0.3786
24789W        W39920   3.521  11.167   0.071  0.0573 -0.2941 -0.0435
24790W        W39921  11.478  17.698  12.834  0.2747 -0.1831  0.2992
24791W        W39922   4.016   5.364   4.454  0.0197  0.2729  0.1601
24792W        W39923  18.223  13.396  10.902 -0.2421  0.0156 -0.0404
24793W        W39924   2.988  13.104   5.305  0.2908  0.0592  0.1901
24794W        W39925  13.293  14.120   1.211  0.2283 -0.3086  0.0806
24795W        W39926  11.032   3.971  15.987 -0.0249  0.1598  0.2031
24796W        W39927  15.902   3.834   5.763 -0.2803  0.4204 -0.1860
24797W        W39928   8.892   6.337   6.083 -0.2964  0.2272  0.1126
24798W        W39929  14.038   9.873   6.195  0.2309  0.0732  0.3521
24799W        W39930   8.693   6.352  12.307  0.1973  0.0892  0.2183
24800W        W39931  13.151   2.248   4.066 -0.2302 -0.0042  0.0441
24801W        W39932   7.421  10.377   6.199 -0.1816  0.3404 -0.2261
24802W        W39933   8.240   3.894  11.536  0.0172  0.3637 -0.2374
24803W        W39934   6.367   4.101  13.541 -0.0691  0.0097 -0.2317
24804W        W39935   5.914  16.889   1.346  0.0212  0.0595 -0.2520
24805W        W39936   2.157   1.220   1.949 -0.2500 -0.0423 -0.0264
24806W        W39937   8.190   5.289   5.452 -0.1632 -0.2383 -0.1201
24807W        W39938  14.996  14.983   3.019  0.1814 -0.1337  0.1981
24808W        W39939  17.803  10.522   2.410 -0.0082  0.0634  0.0064
24809W        W39940   4.945   5.672   0.143 -0.2652  0.0530  0.3493
24810W        W39941   1.637   3.276   2.767 -0.1586  0.2607 -0.0118
24811W        W39942  11.976   6.345   2.627 -0.0460 -0.2948  0.2447
24812W        W39943   6.110   8.100  11.693 -0.2281 -0.0284 -0.0157
24813W        W39944   0.345   2.050  15.470  0.1925 -0.2465 -0.0167
24814W        W39945   9.860   4.531   2.665  0.2185  0.1240  0.1803
24815W        W39946  18.015   5.564   4.150  0.1363 -0.0929  0.0194
24816W        W39947   3.205   9.704   3.702  0.3826 -0.3593  0.0048
24817W        W39948   5.449  13.979   1.149 -0.3309  0.2172 -0.0764
24818W        W39949  14.528   1.940   5.189 -0.3385  0.1919 -0.3773
24819W        W39950   4.666  15.067   3.668  0.2357 -0.0323 -0.0898
24820W        W39951   9.876   0.891   3.989 -0.3827  0.0265 -0.0900
24821W        W39952  16.546   9.130   4.607  0.2210 -0.2041 -0.2086
24822W        W39953   1.938  18.324  11.321 -0.1309  0.1308 -0.0157
24823W        W39954   1.835  15.203  14.762  0.3948 -0.1878  0.1448
24824W        W39955   9.927   3.413  12.165 -0.0887  0.1515  0.0911
24825W        W39956   3.211   6.054  14.161 -0.1411 -0.1001  0.3572
24826W        W39957   2.755  17.268   4.125  0.3030 -0.0765  0.0494
24827W        W39958  11.622   8.005  13.351 -0.2352 -0.1140 -0.1926
24828W        W39959  15.869  12.579   4.096  0.2028 -0.6213  0.2251
24829W        W39960   8.722  17.441   4.403  0.0539  0.0303 -0.1621
24830W        W39961   5.590  10.541  13.979  0.0915 -0.1247  0.0839
24831W        W39962   2.763   0.542  15.964  0.1135 -0.3832 -0.2592
24832W        W39963   6.446   4.295   3.535  0.0063 -0.0660 -0.1260
24833W        W39964  16.537   4.468  12.147  0.0606  0.2494  0.0536
24834W        W39965   3.050  15.782  13.917  0.0556  0.3862  0.2289
24835W        W39966  17.886   4.497   5.320  0.2124  0.2290 -0.4232
24836W        W39967   9.971   8.303  11.260 -0.1472  0.0063 -0.0075
24837W        W39968  14.726  12.564  14.820  0.0208  0.0361 -0.4693
24838W        W39969   0.030   5.876   3.921  0.0829  0.2982 -0.0940
24839W        W39970   7.138  13.659  15.937 -0.0282  0.3331 -0.0110
24840W        W39971   0.180  13.912   2.995 -0.0024  0.0598 -0.0988
24841W        W39972   7.943   3.256  13.479 -0.2197  0.2445 -0.0192
24842W        W39973  15.465   6.019  15.656  0.1946 -0.0703  0.4532
24843W        W39974   3.802   2.934   4.418  0.0360 -0.1713  0.3553
24844W        W39975  16.880  11.761  15.435 -0.1966  0.2647 -0.2625
24845W        W39976  10.770   5.111   4.866  0.1936 -0.2780 -0.2720
24846W        W39977  18.199  14.443   3.105 -0.0271  0.1114 -0.4214
24847W        W39978   5.320   3.977  14.989 -0.3146 -0.0820  0.3141
24848W        W39979  15.832  11.812  13.830  0.1881  0.0288 -0.0258
24849W        W39980   4.094   2.881  13.900 -0.2967  0.1894  0.1632
24850W        W39981  11.460  18.175  15.784 -0.0729 -0.1499 -0.1164
24851W        W39982  15.968   1.139  14.762 -0.2503  0.1530  0.1504
24852W        W39983   3.519   1.044   9.586 -0.1405 -0.3620  0.1836
24853W        W39984  11.893  16.547  11.606 -0.3033 -0.2740  0.0627
24854W        W39985  10.972  11.898  15.533 -0.0961  0.1041 -0.0471
24855W        W39986   3.074  10.156  14.743 -0.3213  0.1282 -0.1628
24856W        W39987  17.621   0.824  11.676  0.2016  0.1268 -0.0793
24857W        W39988   8.662   7.721  12.333  0.0941  0.3571 -0.0314
24858W        W39989   4.467   6.697   3.290  0.1633 -0.2376 -0.3134
24859W        W39990  15.748   0.937  10.306 -0.0511 -0.2491  0.2426
24860W        W39991  13.150   4.131  13.245 -0.2853  0.0807  0.0860
24861W        W39992   1.082  17.712  15.697  0.0912  0.1311 -0.1434
24862W        W39993  15.190   2.850   1.545 -0.1414 -0.2088  0.0416
24863W        W39994  11.418  16.440  11.890  0.0254  0.0007 -0.1211
24864W        W39995   1.171   1.760   0.716  0.0480 -0.0161  0.1838
24865W        W39996   8.262  11.928   3.410  0.1441 -0.0158 -0.1314
24866W        W39997  11.005   9.690   0.840 -0.2104  0.2296 -0.1823
24867W        W39998  11.963  10.918   1.120  0.1505 -0.1261  0.1748
24868W        W39999  16.465   4.282   3.602 -0.1809 -0.2108 -0.1105
24869W        W40000   4.027  13.777  14.529 -0.2595  0.0541  0.0643
24870W        W40001   2.528   9.261  14.412  0.1813 -0.0794 -0.3093
24871W        W40002  17.205  16.781  14.545  0.0423 -0.2413 -0.2596
24872W        W40003   7.638   4.293   5.565  0.2034  0.2876 -0.0182
24873W        W40004   6.060   2.546   4.327  0.0256  0.1606 -0.1375
24874W        W40005  12.059  11.059   1.992 -0.1426 -0.0220  0.0534
24875W        W40006  11.665   9.213  12.225 -0.2762 -0.4633 -0.2319
24876W        W40007   1.202  16.186   3.255  0.1620  0.1111 -0.2467
24877W        W40008   3.440   6.208  11.413  0.0141  0.0954 -0.3094
24878W        W40009   5.874  18.232   2.317 -0.4586 -0.0197  0.0384
24879W        W40010   1.043   4.391   2.460 -0.2432  0.0250 -0.1639
24880W        W40011   7.550  10.558  12.130 -0.0275 -0.0102 -0.0200
24881W        W40012  15.994   6.899   5.540 -0.0357  0.0626  0.2097
24882W        W40013  12.954  17.356   4.322 -0.0366 -0.2615 -0.1243
24883W        W40014   7.208   2.973  14.589  0.0614 -0.0992 -0.0094
24884W        W40015   2.020  11.913  16.000 -0.1235 -0.0998 -0.0411
24885W        W40016  17.389   9.707   2.993  0.1115  0.0257 -0.2803
24886W        W40017  12.715   6.550   0.983  0.1704  0.2660 -0.0817
24887W        W40018   5.944   8.050  13.521 -0.0469  0.2210  0.2149
24888W        W40019   5.727   5.302   4.467  0.3879 -0.3890  0.0947
24889W        W40020  11.674   8.376  14.784 -0.3797 -0.0600 -0.2865
24890W        W40021  10.715  18.356   1.779 -0.1483  0.1024 -0.1738
24891W        W40022   8.280  17.686   2.710  0.0320  0.0349 -0.2901
24892W        W40023  13.850   7.376   0.728  0.4324 -0.0053  0.1522
24893W        W40024   8.853   9.695   1.982  0.1473 -0.2663 -0.0239
24894W        W40025  18.284  12.865  13.746  0.0272  0.0563 -0.0171
24895W        W40026   4.834   2.894   1.080  0.0986 -0.1460  0.0740
24896W        W40027  12.767   3.349   4.235 -0.2776 -0.0297 -0.2979
24897W        W40028  17.510   7.896  11.488 -0.2832  0.1109  0.2035
24898W        W40029  13.448   3.258   0.268  0.0502 -0.4500  0.0476
24899W        W40030  10.555   1.939   1.646 -0.1662 -0.4317  0.0396
24900W        W40031   6.973   8.552   2.370 -0.1906 -0.1707  0.2091
24901W        W40032  17.888  15.160  10.591  0.0617  0.1168  0.1560
24902W        W40033   4.303  10.788  15.503 -0.1091 -0.0288 -0.0096
24903W        W40034   2.780  13.460   4.948  0.0317 -0.1858 -0.3039
24904W        W40035   8.385   0.853  14.403 -0.2465  0.0192 -0.0354
24905W        W40036   8.588  16.462  11.871 -0.1122 -0.0243 -0.2146
24906W        W40037   7.667   2.827   1.419 -0.0484  0.1875 -0.0305
24907W        W40038   9.351  10.644  12.147 -0.0504 -0.0149 -0.1195
24908W        W40039   7.774   4.887   2.546  0.0571  0.0465 -0.1382
24909W        W40040   4.284  10.700   2.706 -0.3296 -0.0935  0.0648
24910W        W40041  13.989   9.451   1.604  0.0695 -0.2492 -0.5675
24911W        W40042  12.961  13.171  14.836 -0.1981 -0.1106 -0.3246
24912W        W40043  13.337   4.741   0.168 -0.0639  0.0218  0.1146
24913W        W40044   3.812  16.235  12.787  0.0002 -0.2197  0.1826
24914W        W40045  17.200  17.666  11.356 -0.0678 -0.0193 -0.1094
24915W        W40046  15.734   9.455  11.555  0.1346 -0.1674 -0.0353
24916W        W40047  17.769  10.118   4.358  0.1978  0.4405 -0.0994
24917W        W40048   3.790  16.715   4.146 -0.0526 -0.0043 -0.1863
24918W        W40049   2.507  16.261  15.410 -0.2469  0.1614 -0.1865
24919W        W40050   3.601   5.780   5.300 -0.1787  0.1150  0.1470
24920W        W40051   2.117  16.656   2.966 -0.0015  0.2106 -0.0513
24921W        W40052  14.888   1.021  12.453 -0.0559 -0.2752  0.0924
24922W        W40053   8.839   7.729  15.210 -0.0011 -0.0422 -0.0066
24923W        W40054  18.423  11.714  13.099  0.4341  0.3482  0.1783
24924W        W40055   5.715  10.877   4.496 -0.2084 -0.1800  0.1495
24925W        W40056  12.995   4.578  12.179 -0.1151  0.1602 -0.1545
24926W        W40057  14.353  12.716  15.262 -0.2828 -0.1308 -0.0807
24927W        W40058   5.040  11.968  13.472  0.0897  0.1890  0.3181
24928W        W40059  12.527  14.988  11.472  0.2105 -0.0939  0.1497
24929W        W40060   0.866   5.903  12.038  0.1182 -0.0663  0.1112
24930W        W40061   1.544   2.771  13.396  0.0740 -0.0415 -0.2414
24931W        W40062  13.994   3.599   3.631 -0.1229  0.2474  0.0417
24932W        W40063  17.506  18.259  12.562  0.1927  0.1509  0.2579
24933W        W40064  12.397   8.835  14.806 -0.0484  0.0251 -0.1238
24934W        W40065  15.529  13.738  10.770  0.2505 -0.0503  0.0180
24935W        W40066  11.983   2.698   4.874  0.4076 -0.1914 -0.1851
24936W        W40067  12.867  10.626  11.199  0.2221 -0.1429 -0.2599
24937W        W40068   4.166  11.827  15.121  0.2946 -0.2564  0.1693
24938W        W40069  12.262   9.627  12.568 -0.0488 -0.1471  0.0002
24939W        W40070  11.291   9.401   3.071 -0.2510 -0.0879  0.1140
24940W        W40071   7.850  16.590  12.843  0.3388  0.0639  0.0022
24941W        W40072   5.281   5.919  11.924 -0.2250  0.1270  0.2034
24942W        W40073  11.668   5.356  11.432  0.2707  0.2002 -0.0084
24943W        W40074   0.175   6.162   2.188  0.3448  0.0585 -0.3053
24944W        W40075   3.123   8.388  12.819  0.2203 -0.0057  0.2506
24945W        W40076   2.047   8.434  15.781 -0.2750 -0.3983 -0.0930
24946W        W40077   7.533  11.204  12.291  0.1382  0.1078  0.1829
24947W        W40078  12.029   1.731   4.638 -0.1249 -0.1322  0.0839
24948W        W40079   6.391   9.116  11.500  0.1891 -0.0372 -0.0713
24949W        W40080   6.111  15.925   0.012  0.1340 -0.1989  0.2508
24950W        W40081   8.027   6.858  15.396  0.0853 -0.2462 -0.0901
24951W        W40082   0.990  10.959  14.894 -0.0695  0.0457  0.1207
24952W        W40083  11.805   9.271  15.722 -0.0073 -0.2743  0.2008
24953W        W40084  17.971  17.770   1.781  0.3667  0.1695  0.1686
24954W        W40085  16.278  14.385   0.859 -0.0244 -0.0094 -0.2057
24955W        W40086  12.214  17.671   2.065  0.0815  0.3950  0.1284
24956W        W40087   5.758  14.721   1.723  0.0216 -0.0211 -0.0209
24957W        W40088  12.280  11.454   3.692 -0.0111 -0.2199  0.3318
24958W        W40089   3.900   3.506  15.982 -0.1325 -0.0769 -0.4664
24959W        W40090   8.472   3.956  12.293 -0.2513 -0.2377 -0.2349
24960W        W40091  17.528   8.458   5.441 -0.1203  0.0490 -0.2142
24961W        W40092  16.790   5.002  10.300 -0.0339 -0.3191 -0.0301
24962W        W40093  11.842   9.413  11.369  0.1889 -0.0594 -0.0439
24963W        W40094   0.581  17.159  14.889 -0.4375 -0.2100  0.0915
24964W        W40095  17.774   3.847   5.184 -0.0975 -0.1060 -0.2357
24965W        W40096   3.667   5.218   0.676 -0.1597  0.2794 -0.4368
24966W        W40097   2.775   6.695  11.813  0.8238  0.0606 -0.3355
24967W        W40098  10.121  15.754  15.399  0.0086 -0.2916  0.4234
24968W        W40099   1.824   7.222  13.992  0.2723 -0.0220 -0.2325
24969W        W40100   0.949  15.718   1.330 -0.4377 -0.1067 -0.0779
24970W        W40101  16.497   4.555   0.804  0.1609  0.1717 -0.0164
24971W        W40102  12.110  18.373  12.689  0.0680  0.1458  0.0683
24972W        W40103   0.805  13.497   2.520  0.1379  0.3584 -0.2605
24973W        W40104   2.875   5.550   3.395  0.1027  0.0443  0.3268
24974W        W40105  13.752  15.673   4.303 -0.0568 -0.2967  0.0416
24975W        W40106   9.300   8.940  12.307  0.2576 -0.0233  0.1720
24976W        W40107   4.945  16.282  12.939  0.0677  0.1308  0.1332
24977W        W40108   2.125  18.232  13.514 -0.0439  0.0542  0.0065
24978W        W40109   1.291  15.144  14.292 -0.0875  0.1853 -0.1851
24979W        W40110  10.437   9.090   2.835  0.1425 -0.0929  0.0838
24980W        W40111   4.287  15.653  14.707 -0.2274  0.0169  0.0289
24981W        W40112  12.493  10.891  15.127  0.3040 -0.0720 -0.2646
24982W        W40113   3.658   3.131  12.194  0.1193 -0.2555 -0.0634
24983W        W40114   8.049  18.138   3.402  0.0872 -0.2036 -0.1155
24984W        W40115   9.219  11.455   3.722 -0.2677  0.1284 -0.0859
24985W        W40116  11.358   0.641   0.287  0.1614 -0.1315 -0.1617
24986W        W40117   4.358   1.604  13.036 -0.4083 -0.0164 -0.2702
24987W        W40118   2.072  13.188   3.606  0.0125 -0.0961  0.0422
24988W        W40119  13.291   1.731   1.943 -0.2375 -0.1602 -0.2444
24989W        W40120   4.192  16.688  14.235 -0.0535 -0.1664 -0.0681
24990W        W40121  15.775  12.482  12.137 -0.4374 -0.0902  0.1345
24991W        W40122   1.966  15.445   1.940  0.0868  0.0482 -0.0578
24992W        W40123   3.281   2.350  11.544 -0.0915  0.1319  0.6693
24993W        W40124   6.271  14.593  12.683 -0.3728 -0.1014  0.0229
24994W        W40125  15.819  16.724   1.928 -0.2292 -0.1030  0.1872
24995W        W40126   9.311   4.858   4.974 -0.2889 -0.1659  0.2666
24996W        W40127   5.872  10.133   3.088 -0.5654  0.1776 -0.1566
24997W        W40128  12.450  11.404   5.273 -0.2091 -0.0605  0.0083
24998W        W40129   3.203   2.668  15.946 -0.0876  0.0029  0.0014
24999W        W40130  11.599   3.478   4.063  0.2490  0.2904  0.0859
25000W        W40131   8.378   5.165  13.173  0.1905  0.1127  0.2292
25001W        W40132   4.053   7.822  13.993  0.0542 -0.1263 -0.2933
25002W        W40133   1.550   6.512   0.970 -0.2341 -0.0365  0.0765
25003W        W40134  13.784   5.806   4.667  0.3470  0.0660  0.3068
25004W        W40135   1.663  11.843  11.872 -0.2773 -0.1708  0.2261
25005W        W40136  16.523   8.872   5.027 -0.0138  0.2441 -0.4259
25006W        W40137   5.413   7.359   6.383  0.4161  0.0256 -0.1239
25007W        W40138   7.571   3.531  13.695 -0.1388  0.0726  0.3804
25008W        W40139   8.533   5.489  12.810  0.2331  0.0037 -0.2967
25009W        W40140  12.320  14.291  12.673 -0.0876  0.2605 -0.1191
25010W        W40141   5.219   8.948  16.032 -0.0206  0.0546  0.2081
25011W        W40142   4.335   5.350   0.106 -0.1707  0.0979  0.1013
25012W        W40143  18.365   1.981  11.527 -0.0388 -0.1885 -0.6012
25013W        W40144   5.802  11.224   9.978 -0.0809 -0.0769 -0.0970
25014W        W40145   5.573  10.987  12.391  0.0820  0.0302  0.0381
25015W        W40146  14.580   0.058   3.516 -0.0076 -0.0422 -0.0569
25016W        W40147   2.837   0.289   0.323 -0.1598  0.4928 -0.1831
25017W        W40148  16.888  16.820  15.381 -0.2263 -0.0005 -0.2672
25018W        W40149   8.317   4.330  15.924 -0.0081  0.0504  0.1365
25019W        W40150  13.896  16.828  15.996 -0.1209 -0.4111 -0.0944
25020W        W40151   8.512   2.062  15.124 -0.1388  0.2487 -0.1083
25021W        W40152   1.516   6.187   6.237  0.3383  0.0794  0.0660
25022W        W40153  10.974  10.196   3.781 -0.0009 -0.1652 -0.0003
25023W        W40154  14.550   9.640   5.367  0.2448 -0.0740 -0.1363
25024W        W40155   0.522  18.100   3.158  0.2705  0.0373 -0.2173
25025W        W40156   3.110   1.510  13.553 -0.1287  0.4449 -0.0643
25026W        W40157  10.844   8.821  14.920  0.3237  0.1371 -0.0178
25027W        W40158   7.116  16.776   1.045 -0.0873 -0.1108 -0.0914
25028W        W40159  13.402  17.508  14.864 -0.0485 -0.0900 -0.0603
25029W        W40160  12.382   2.843   1.530 -0.0032 -0.1327  0.0946
25030W        W40161   0.817   7.163  15.546  0.1307  0.0187  0.2316
25031W        W40162   3.176  11.482   4.407  0.0614 -0.0488  0.3519
25032W        W40163   2.969   0.687  13.457  0.1713 -0.1988 -0.4249
25033W        W40164  11.881  12.545  14.366  0.4560 -0.1106  0.1278
25034W        W40165   1.335  16.823   0.928 -0.2837 -0.0930  0.0122
25035W        W40166   6.851  14.092  14.416  0.0315  0.1620 -0.1798
25036W        W40167  16.180  13.673  13.751 -0.1682  0.2114  0.0372
25037W        W40168   0.666   7.467  12.382 -0.2299  0.3563  0.1387
25038W        W40169   3.133   8.317   1.459 -0.4196 -0.0358  0.4315
25039W        W40170   5.458   7.004  10.657 -0.0424 -0.1588  0.1490
25040W        W40171   6.925   5.498   1.757  0.1385  0.0533  0.2085
25041W        W40172  16.931   2.217  10.631 -0.1102 -0.2496 -0.0332
25042W        W40173   1.135  11.789  11.032  0.1103 -0.1101  0.0757
25043W        W40174   8.042   2.402  13.307 -0.1027 -0.0705  0.2016
25044W        W40175   1.185   2.075  11.456 -0.1344  0.3528  0.0032
25045W        W40176  16.834   0.311   1.138 -0.1607 -0.3683  0.2185
25046W        W40177   4.884   0.273   3.750 -0.1959  0.0724  0.0236
25047W        W40178  11.637  11.101  12.434 -0.0898 -0.0353  0.4628
25048W        W40179  13.237  14.449  14.447 -0.2199  0.0566 -0.0332
25049W        W40180  15.621  12.187   0.829  0.2160 -0.0251  0.0569
25050W        W40181  14.517  15.443   4.059  0.0727 -0.2054 -0.0505
25051W        W40182  10.017   6.733   0.341  0.1640  0.3286  0.1779
25052W        W40183   4.847   8.607  14.279 -0.3106 -0.1934 -0.3420
25053W        W40184   5.420   2.896  15.827  0.3034  0.1401  0.0290
25054W        W40185  17.279  15.062   0.303  0.1469  0.0897 -0.3829
25055W        W40186  13.831   1.470   5.554 -0.0295  0.0481 -0.0088
25056W        W40187  18.088   6.609  15.038  0.1489  0.2325 -0.2538
25057W        W40188  13.838  16.089  12.455 -0.0479  0.2453 -0.0532
25058W        W40189   2.302  15.391  10.983 -0.0943  0.1112 -0.1748
25059W        W40190  13.857  10.231  11.522 -0.1408 -0.0394 -0.0294
25060W        W40191   4.475  18.043  14.901 -0.1935 -0.1564 -0.0894
25061W        W40192   2.075   6.538   2.355 -0.2646  0.1459 -0.0134
25062W        W40193   1.359  18.059  15.507  0.1620  0.1417  0.3610
25063W        W40194  11.730   8.451  12.345 -0.0940  0.1965 -0.3051
25064W        W40195   3.014  17.440   3.719  0.2146 -0.1022 -0.3208
25065W        W40196  18.326   6.160  15.098  0.1648  0.0728 -0.0283
25066W        W40197  13.499   8.047   0.257 -0.0587 -0.1999 -0.2021
25067W        W40198  11.812  18.214   9.986 -0.4775 -0.0872 -0.0751
25068W        W40199   5.172   0.083  12.117 -0.2618  0.2385  0.1079
25069W        W40200  15.617   6.069  14.331 -0.0845  0.0370  0.1537
25070W        W40201  13.320  13.156   4.901  0.2229 -0.0106  0.1173
25071W        W40202  10.076  14.130  11.336  0.1789 -0.1591 -0.0543
25072W        W40203  17.510  18.273   2.338  0.2356 -0.0284  0.3675
25073W        W40204  13.721   0.931   0.291 -0.2912  0.0234  0.0114
25074W        W40205   7.038  15.454   0.931 -0.2121  0.2143  0.0982
25075W        W40206  18.314   9.595   2.526  0.1583 -0.2399 -0.4198
25076W        W40207   2.317   3.497  10.428  0.0896  0.0567 -0.3327
25077W        W40208   4.341  11.728   0.187 -0.0468 -0.3581 -0.2388
25078W        W40209  18.415  15.715   1.267 -0.1978  0.0811 -0.2508
25079W        W40210   2.493   9.650   4.479 -0.0803 -0.0870 -0.0557
25080W        W40211   2.316  14.367  13.440 -0.1446  0.0098 -0.2789
25081W        W40212  11.107  11.630  12.795 -0.1777 -0.0317  0.0777
25082W        W40213   7.327  13.549   0.527  0.1699 -0.1216  0.2587
25083W        W40214  10.835   3.236  14.811  0.3932  0.0376  0.0211
25084W        W40215  10.955   2.483  14.286  0.0239  0.2184  0.2811
25085W        W40216  15.489  15.158  14.007  0.0798  0.2087 -0.1500
25086W        W40217  16.912  14.869  14.354 -0.1955  0.1337  0.1341
25087W        W40218  12.684   2.029  15.886  0.0778 -0.1767 -0.1291
25088W        W40219   8.427  12.260  13.199  0.0809 -0.1801  0.1373
25089W        W40220   1.569   7.499   5.468  0.1991  0.1534  0.0335
25090W        W40221  10.356  15.449   4.626  0.4457  0.0182  0.1798
25091W        W40222   6.289   5.162  15.971 -0.0169 -0.0146  0.2611
25092W        W40223  10.689  17.733  13.609 -0.1137 -0.1906  0.2061
25093W        W40224   0.212  14.225  13.964  0.3923 -0.0451 -0.1883
25094W        W40225   3.281   2.908   0.973  0.0524 -0.0821 -0.0859
25095W        W40226  12.599   1.543  15.879 -0.1424  0.1217 -0.1054
25096W        W40227   3.187   5.120  13.004  0.1115  0.2518  0.4175
25097W        W40228  11.721   3.284   0.860 -0.0317  0.2165 -0.0724
25098W        W40229   2.117   7.515   4.235  0.0645  0.1727  0.0077
25099W        W40230   7.920   6.353   1.867 -0.1162 -0.1860 -0.3272
25100W        W40231   6.351   7.456   0.942 -0.2843 -0.2805 -0.0110
25101W        W40232   5.104   9.104   4.819 -0.0388  0.1103 -0.3978
25102W        W40233  10.574  13.742  13.077  0.4070 -0.3438 -0.0351
25103W        W40234   2.055   1.531  16.014  0.1764 -0.2600 -0.2855
25104W        W40235  14.470   9.062  14.854 -0.0812 -0.0498 -0.0062
25105W        W40236  10.741  14.435   1.477 -0.3009 -0.1536 -0.0529
25106W        W40237   6.171  11.537   4.399  0.1245  0.0064  0.1395
25107W        W40238  14.044  11.604  16.021  0.2957 -0.1944  0.0147
25108W        W40239   5.476  10.307  13.563 -0.1766  0.0973  0.3967
25109W        W40240  12.926   5.994  10.935  0.1058  0.1095  0.0220
25110W        W40241   1.472  17.974   1.925  0.0213 -0.1126  0.1495
25111W        W40242  12.971  17.607   1.090  0.0372 -0.1972 -0.2299
25112W        W40243   6.037   5.231   3.652  0.2647 -0.2137  0.2313
25113W        W40244  16.036  17.445  13.876 -0.0234  0.0439  0.1409
25114W        W40245   9.147   7.765  12.292  0.0345  0.1370  0.1084
25115W        W40246   2.634  14.347   0.365 -0.2323 -0.0792  0.2771
25116W        W40247  10.465   7.871  12.593  0.1561  0.0016  0.0374
25117W        W40248  15.386  17.245  15.591 -0.1926  0.1906 -0.0456
25118W        W40249  15.231  14.583  10.655 -0.1424 -0.0660 -0.3146
25119W        W40250  15.902  18.380   3.923 -0.2488 -0.0849 -0.2065
25120W        W40251   6.027   7.893   1.622 -0.1141 -0.0982  0.0176
25121W        W40252   1.343  12.880   0.476  0.2985 -0.0086 -0.0644
25122W        W40253   6.168   3.008   1.020 -0.1085 -0.1588 -0.0566
25123W        W40254  15.976   3.925   0.825 -0.0944 -0.0810 -0.2167
25124W        W40255  13.314   5.305   0.381  0.3290  0.0713 -0.0862
25125W        W40256  11.394   3.590   4.854 -0.0472  0.2506 -0.1787
25126W        W40257   5.355   6.370   5.377  0.1919 -0.3230 -0.0363
25127W        W40258  10.092   9.337   5.481 -0.0491  0.0192  0.1716
25128W        W40259   3.929   2.194  11.315  0.1214  0.0317  0.1200
25129W        W40260   0.396   7.804   2.526 -0.2846  0.1337 -0.3668
25130W        W40261   7.163  11.872  11.754  0.1181  0.5335  0.3253
25131W        W40262   8.718   9.572   3.307 -0.1746  0.0967  0.0229
25132W        W40263  17.255   8.295   1.856  0.0061  0.0148 -0.3085
25133W        W40264   9.607   6.267   0.190  0.3388  0.3636  0.1879
25134W        W40265  13.009   1.770   1.081 -0.1080  0.2069  0.3093
25135W        W40266   3.922   0.560   3.763 -0.1227 -0.5684 -0.0006
25136W        W40267  17.569  10.279  11.778 -0.3100 -0.0076  0.2678
25137W        W40268   6.288  11.792  15.997 -0.0558 -0.0496 -0.0973
25138W        W40269   8.187  16.511  10.937  0.2699  0.3599 -0.1274
25139W        W40270  17.698  13.571   2.929  0.1736  0.0971 -0.0842
25140W        W40271  14.582  14.734   0.577 -0.1981  0.0644  0.6736
25141W        W40272   7.401   4.106   1.619  0.0644 -0.4757  0.1082
25142W        W40273  17.289  17.379  13.672 -0.2673  0.0216  0.0982
25143W        W40274   0.097  18.313   4.475 -0.1197 -0.0705  0.1547
25144W        W40275   1.614  14.430   4.162  0.1495 -0.0797 -0.0971
25145W        W40276   1.195  15.304   2.589 -0.0325  0.1075 -0.0235
25146W        W40277   7.589  14.770  10.164  0.2951  0.2100 -0.0865
25147W        W40278   0.178  15.444   0.881 -0.3924 -0.0044  0.1762
25148W        W40279  16.708   0.362  12.833 -0.4303 -0.0652  0.1132
25149W        W40280  11.979  10.685   1.598  0.1013 -0.2959  0.1205
25150W        W40281  15.906  11.577   0.824 -0.0411 -0.0153  0.0345
25151W        W40282  16.674  12.484   2.603  0.2553  0.0894  0.2044
25152W        W40283   9.362   5.209  11.391  0.0473 -0.4218 -0.1640
25153W        W40284   9.171   2.378   2.884  0.2526  0.1318  0.2144
25154W        W40285   3.449  17.725  14.893  0.0487  0.1597 -0.0497
25155W        W40286   3.786  15.508  13.011 -0.3260 -0.1135 -0.1337
25156W        W40287  15.870   4.964   2.134 -0.1753  0.0338 -0.1332
25157W        W40288   0.434   7.794   0.287 -0.0020  0.3511 -0.0259
25158W        W40289   1.781  17.899  11.088  0.2393 -0.0203 -0.0044
25159W        W40290   1.034  17.139   2.332  0.0895  0.0020  0.1137
25160W        W40291  15.988   2.873   4.521  0.0084 -0.1260 -0.0664
25161W        W40292   8.407  15.406   0.308  0.1591  0.1591 -0.2645
25162W        W40293  12.594   5.798   3.556 -0.0493 -0.0546  0.0924
25163W        W40294  16.373  17.265  14.543  0.2817  0.4574  0.3028
25164W        W40295   0.324   6.728   5.300 -0.1061  0.0147  0.1305
25165W        W40296   6.825   5.575  15.364  0.0429  0.0691  0.1333
25166W        W40297  16.214   3.466  12.247  0.1769  0.1491 -0.0864
25167W        W40298   6.085  17.484  14.235 -0.2547  0.2454  0.2279
25168W        W40299  10.088  10.972  14.666 -0.0314  0.0995 -0.0504
25169W        W40300   1.636   4.572   0.665  0.1193  0.0183 -0.2811
25170W        W40301   9.019   9.129   5.861 -0.3081 -0.1234 -0.0707
25171W        W40302  13.090  15.875  11.276 -0.0521  0.3380  0.2491
25172W        W40303   3.180  18.438   0.051 -0.2975  0.3137 -0.0135
25173W        W40304  14.949  11.559  13.857  0.0115 -0.1789  0.2882
25174W        W40305  18.001   7.230   3.594 -0.0028 -0.0313 -0.0035
25175W        W40306   6.647  12.792   0.620  0.0653 -0.4540  0.1432
25176W        W40307  15.578   9.297   2.211  0.3416  0.2537  0.1999
25177W        W40308   8.568  10.198  14.104  0.1169  0.0511  0.1436
25178W        W40309   9.237  16.613   0.285 -0.3871 -0.0023 -0.2813
25179W        W40310   8.143   2.124  11.500  0.0667 -0.1042  0.2582
25180W        W40311   2.323  17.481   2.656 -0.0037 -0.3322 -0.0229
25181W        W40312   6.640   7.934   4.162  0.1080  0.1243 -0.0195
25182W        W40313  16.427   4.026   1.541  0.0262 -0.1852 -0.3047
25183W        W40314  15.441   1.511   5.246 -0.1823  0.0776  0.1713
25184W        W40315   6.268  11.084   0.125 -0.3556  0.1114  0.1204
25185W        W40316   5.271  17.954   3.621 -0.0719 -0.0323 -0.0384
25186W        W40317  11.133  14.310   2.658 -0.2015  0.1150  0.1537
25187W        W40318   2.564  14.022   5.106  0.0142  0.2905 -0.0209
25188W        W40319   3.973  11.229  13.522 -0.2731  0.6152  0.0443
25189W        W40320  10.966   7.165   3.483 -0.0342  0.3274 -0.1508
25190W        W40321  12.769   7.341  12.254  0.0408 -0.0902  0.1799
25191W        W40322  11.435  15.660   5.492  0.0595 -0.0393  0.0586
25192W        W40323   1.387  12.721  11.385 -0.1754  0.0509 -0.0609
25193W        W40324  15.369   8.942   4.331 -0.2979 -0.0450  0.2096
25194W        W40325  12.746  13.016  13.326 -0.1366  0.2233  0.0314
25195W        W40326   8.905   6.690  15.957  0.2743  0.1460 -0.2624
25196W        W40327   9.606   2.284  11.725  0.3406 -0.0909 -0.0209
25197W        W40328  10.341  14.583  13.614  0.1068  0.0722 -0.0365
25198W        W40329   7.103  10.512   1.611 -0.0242  0.3880  0.0956
25199W        W40330  18.172   8.776  12.546  0.0827 -0.0672  0.0270
25200W        W40331   6.514   3.121   5.656 -0.2703 -0.1445  0.0059
25201W        W40332  17.546   7.861  15.316  0.3286 -0.0651 -0.1886
25202W        W40333   6.180   7.550  15.438 -0.1349  0.4430  0.1470
25203W        W40334  11.921   6.050  15.452 -0.1077 -0.2036 -0.1608
25204W        W40335  13.899   6.872  14.589 -0.0505 -0.3053 -0.0605
25205W        W40336   0.418   1.825   4.545  0.0614  0.0545 -0.1717
25206W        W40337  11.436   0.935  15.577  0.0181  0.0583  0.0952
25207W        W40338  16.325   1.027  12.120  0.0419 -0.1602 -0.0101
25208W        W40339   1.068   1.449   1.094  0.0058 -0.3520 -0.0779
25209W        W40340   3.480  14.118   0.776  0.1708 -0.3074 -0.1446
25210W        W40341  10.794   0.363   1.969 -0.1753  0.0162  0.0388
25211W        W40342  10.624  16.863  12.629  0.1476 -0.1210  0.0838
25212W        W40343   0.073  10.097  11.465  0.4489  0.1381  0.0998
25213W        W40344   6.258   4.983   4.734  0.1512 -0.2146  0.1323
25214W        W40345  17.756  12.720  10.483 -0.1342  0.0864  0.2642
25215W        W40346   7.939  12.580   2.571  0.0513  0.1798 -0.0846
25216W        W40347  11.549  16.049   4.121 -0.0028 -0.3061  0.0273
25217W        W40348  17.696  17.142  10.403 -0.4003  0.0377  0.2128
25218W        W40349  12.753   3.424   3.265 -0.1560  0.4067 -0.2550
25219W        W40350  14.697  15.235   1.710  0.0209  0.1595 -0.1187
25220W        W40351  14.833   4.496  13.905  0.0468 -0.5144 -0.1075
25221W        W40352   1.082   8.503  16.056 -0.4685  0.0350  0.2751
25222W        W40353   8.750   1.706  16.009  0.5282  0.0107  0.1914
25223W        W40354  11.419   6.724  11.709  0.3117 -0.0968 -0.3083
25224W        W40355   3.794   2.108  14.149  0.2139  0.0940 -0.0922
25225W        W40356   2.865   7.579   2.762 -0.1026 -0.0078  0.3040
25226W        W40357  13.865   1.386   3.246 -0.1693  0.1308  0.2150
25227W        W40358  17.216   6.647   1.662 -0.1064 -0.2004 -0.3406
25228W        W40359  18.123   9.048   3.570 -0.3270  0.0406  0.0212
25229W        W40360   6.827   0.787  12.476 -0.1561  0.1172  0.0246
25230W        W40361   4.664   3.746  14.862 -0.0521 -0.1738  0.0620
25231W        W40362   1.773   2.537   4.673  0.1298  0.2224 -0.0192
25232W        W40363  12.129   4.077  15.697 -0.0225  0.0558 -0.0799
25233W        W40364   0.476   7.105  11.542 -0.0280  0.1976 -0.0924
25234W        W40365   5.624  10.955  11.039  0.1445  0.3974 -0.2394
25235W        W40366   7.078   7.234   2.844 -0.3923 -0.1416 -0.0016
25236W        W40367  17.743  11.874  13.119  0.2335 -0.1784 -0.1733
25237W        W40368   2.863  17.999   1.226  0.3234 -0.0438 -0.2356
25238W        W40369   4.268  14.294  15.990 -0.3226  0.3856 -0.0080
25239W        W40370  15.825   6.426  13.584 -0.1181 -0.1016 -0.0487
25240W        W40371   0.468  16.218  14.883 -0.2013  0.1248  0.2602
25241W        W40372  17.338  17.268  14.629  0.1326  0.1321  0.1138
25242W        W40373  17.429   0.825  15.061  0.1405 -0.0934  0.1130
25243W        W40374  14.268   4.325  10.832 -0.2127 -0.1638 -0.1634
25244W        W40375   6.504   2.215   2.573 -0.2023 -0.0779  0.4068
25245W        W40376  16.963  10.147  14.196 -0.0277  0.0559 -0.3301
25246W        W40377  16.298  18.246   1.911  0.4305 -0.3676 -0.2478
25247W        W40378  15.558   1.402  14.999 -0.0182  0.1903  0.0762
25248W        W40379   1.109   0.793  15.444  0.0571  0.1321  0.2173
25249W        W40380  11.908  17.428  10.771  0.0855  0.5943  0.2005
25250W        W40381  14.163   9.669   6.615  0.4166 -0.0474 -0.0242
25251W        W40382   3.944  13.120  12.083  0.1379  0.1083  0.1027
25252W        W40383   7.773  16.236   2.044 -0.0085 -0.2016 -0.1484
25253W        W40384   7.383   1.203   2.160  0.3349 -0.2443  0.0757
25254W        W40385  16.620  13.079   3.928 -0.1780 -0.0306 -0.1879
25255W        W40386   0.857  11.291  13.029  0.0522 -0.0475 -0.0531
25256W        W40387   2.935   4.095  15.602  0.2197  0.0280 -0.2612
25257W        W40388   1.209  15.231   3.606  0.2194  0.0732 -0.3076
25258W        W40389  15.972   0.152   0.728  0.0804 -0.1363 -0.0023
25259W        W40390  14.435   9.333   1.821  0.0382 -0.2982  0.0905
25260W        W40391  11.974   5.999   6.489 -0.1045  0.3816  0.1523
25261W        W40392   7.858  18.244   3.828  0.0126 -0.2143 -0.2019
25262W        W40393   3.975   6.512  11.581  0.1168 -0.4465  0.4054
25263W        W40394   4.543   8.201  11.084  0.0423 -0.3872  0.0514
25264W        W40395  17.768  10.014   0.569 -0.1644  0.0871  0.0712
25265W        W40396  11.434   9.197   5.101  0.4463 -0.1866  0.1110
25266W        W40397  16.433   7.111   4.588 -0.3490  0.0844  0.1719
25267W        W40398  14.478  11.175   3.986 -0.1433 -0.2497 -0.0535
25268W        W40399   1.403   9.483   0.294 -0.0575  0.1051  0.1218
25269W        W40400  15.013   3.421   1.568 -0.1221  0.0258 -0.0804
25270W        W40401  10.260   4.888   4.831 -0.0334  0.0245 -0.0093
25271W        W40402   8.190  11.558   4.333 -0.2091  0.1182  0.2515
25272W        W40403   7.071   9.862   4.491 -0.0673 -0.0981  0.1039
25273W        W40404  15.527  13.050  13.697 -0.3508  0.1894 -0.2497
25274W        W40405  14.297   9.863  13.927 -0.1795 -0.1300 -0.0828
25275W        W40406  14.260  12.364   3.028  0.0418 -0.0957  0.0518
25276W        W40407   6.914   4.630   1.487  0.1312 -0.0052 -0.1771
25277W        W40408  16.653  17.557   3.744  0.2974 -0.2228  0.0460
25278W        W40409   7.393   9.540   5.252  0.0631  0.0904  0.1356
25279W        W40410   1.385  16.749  14.787 -0.1533 -0.0571  0.4010
25280W        W40411   0.678   1.657   2.104  0.1423  0.0489 -0.0406
25281W        W40412  13.168   0.682   0.305  0.2273 -0.0906 -0.0558
25282W        W40413   9.381  17.404  12.472  0.0662 -0.0753  0.1950
25283W        W40414  11.405   5.348  15.670 -0.0577 -0.3453  0.2359
25284W        W40415   3.481   2.320   2.038  0.1467  0.2228  0.3998
25285W        W40416  13.061   3.969   1.660  0.1196 -0.0527 -0.1816
25286W        W40417   1.694   7.095  15.999 -0.1583  0.1244  0.0686
25287W        W40418   9.067   5.994  14.951  0.2264 -0.1451  0.1199
25288W        W40419  14.716  10.424  11.278 -0.1509 -0.1764 -0.1995
25289W        W40420  12.509  10.585  11.702 -0.0220  0.3062 -0.1006
25290W        W40421  14.627   8.722   2.637 -0.2448 -0.0055 -0.0624
25291W        W40422  13.337  12.994   2.701  0.1646 -0.1487 -0.3206
25292W        W40423  12.803   7.329  10.446  0.1282  0.1755 -0.1324
25293W        W40424  16.487  10.818   2.678  0.0264 -0.0480  0.0660
25294W        W40425  14.386   6.478  14.056  0.0535  0.2696  0.3096
25295W        W40426  10.551  17.639   2.272  0.1445  0.1873 -0.1550
25296W        W40427   9.672   9.752   2.886 -0.2749 -0.0753 -0.0669
25297W        W40428   8.020  15.562   0.540  0.4201 -0.0164  0.3381
25298W        W40429  15.956  13.334   2.571  0.2618  0.1517  0.1438
25299W        W40430  17.744  12.262  15.538 -0.0413 -0.0628  0.1025
25300W        W40431  15.936  18.207   2.945  0.0895 -0.0818  0.1885
25301W        W40432  10.183  10.972   1.376  0.1630 -0.1721 -0.0228
25302W        W40433   5.566  12.849  14.728  0.1112  0.1166  0.1496
25303W        W40434  11.504   4.051  15.636 -0.1286 -0.2307 -0.2416
25304W        W40435   2.383   4.064   2.885  0.1073 -0.0148 -0.1857
25305W        W40436  17.861   2.980   4.321  0.0004  0.0003 -0.1797
25306W        W40437  10.632  15.789   4.417 -0.1115 -0.0288 -0.2542
25307W        W40438   7.639   0.179  12.373  0.1536  0.1466  0.3861
25308W        W40439  11.056  11.139   5.535 -0.0431 -0.1211 -0.1690
25309W        W40440   4.170  18.422   0.915 -0.1701 -0.3775  0.0226
25310W        W40441   0.696  17.317  10.040  0.0313  0.4588 -0.0804
25311W        W40442   4.392   9.081   3.202  0.0450  0.2824  0.3114
25312W        W40443   8.567   9.922  13.118 -0.0237 -0.0896 -0.2696
25313W        W40444  17.017  16.679   1.848 -0.2214  0.2662  0.0331
25314W        W40445   2.275   0.652  13.937 -0.2597 -0.3198  0.1974
25315W        W40446   4.674   5.295  15.643  0.2257  0.2805 -0.0906
25316W        W40447  12.027  16.736  13.468 -0.0544 -0.1005  0.0174
25317W        W40448  11.690  17.032   5.404 -0.0186 -0.2220  0.2981
25318W        W40449   1.071  14.460  12.757 -0.1444 -0.2968  0.4851
25319W        W40450  10.959  10.421   2.621  0.0180 -0.2884  0.3253
25320W        W40451   1.894   3.255  15.331  0.2598 -0.0718 -0.1659
25321W        W40452  16.645   0.907  12.997  0.0119 -0.1671 -0.0960
25322W        W40453   5.908   8.304  11.269 -0.0356  0.0270 -0.1441
25323W        W40454   8.864  10.962   2.721 -0.0423  0.3702  0.1331
25324W        W40455   7.191  15.518   3.954  0.0286  0.0124 -0.2447
25325W        W40456   3.112  17.578   4.990 -0.4857 -0.1860 -0.1727
25326W        W40457  13.657   4.212  13.577 -0.2103  0.0364  0.0741
25327W        W40458   3.311   7.403  15.717  0.1930 -0.0913  0.1790
25328W        W40459  13.618  10.861  13.920  0.1726  0.0787 -0.1392
25329W        W40460  11.048   1.460   3.526  0.0013 -0.1147 -0.1309
25330W        W40461   0.851  12.658   2.016  0.3292 -0.0184 -0.0436
25331W        W40462  13.057  16.300  14.484 -0.0016 -0.1799 -0.1511
25332W        W40463   6.074  16.439   1.042  0.0066  0.2021  0.2737
25333W        W40464  12.522   8.886   3.815 -0.1820 -0.1680 -0.1681
25334W        W40465   4.459   2.032  13.441 -0.0334  0.0249 -0.0436
25335W        W40466   1.942   8.621   3.727  0.2405  0.1354  0.0841
25336W        W40467  14.232   2.380   1.118 -0.1495 -0.1416  0.0163
25337W        W40468   2.421   2.983  14.837  0.1316  0.0558 -0.1244
25338W        W40469  17.328  18.345  14.529  0.1932  0.0003  0.0606
25339W        W40470   3.409  10.715  12.022  0.0136  0.1582 -0.4314
25340W        W40471  17.349   5.118   3.808 -0.1672 -0.3933  0.0439
25341W        W40472  15.777   0.547   2.306 -0.0985  0.1597  0.0661
25342W        W40473  16.457   9.724   5.857  0.0821 -0.0450  0.0286
25343W        W40474   9.899   2.765   4.761 -0.1541 -0.1453  0.0801
25344W        W40475  13.350   7.475   2.870  0.2553 -0.0375  0.2628
25345W        W40476  17.453   2.509   0.938  0.0572  0.2108 -0.1425
25346W        W40477   1.386  16.708  15.821  0.0480 -0.1440  0.2823
25347W        W40478  17.349   0.305  14.758  0.0862  0.1194 -0.1158
25348W        W40479   9.045   6.230  13.814  0.3264  0.1527 -0.3016
25349W        W40480   2.529   3.281   4.106  0.0319 -0.0812 -0.1741
25350W        W40481   4.503   2.349  11.435  0.0605 -0.2130  0.0098
25351W        W40482  16.125  17.847  15.267 -0.0966 -0.0695 -0.1695
25352W        W40483   2.767   4.719   0.949  0.1154  0.1277 -0.2615
25353W        W40484   2.265   4.113  13.420 -0.1407 -0.3589 -0.1386
25354W        W40485   4.641   9.353  15.229 -0.1498  0.1049  0.2436
25355W        W40486  11.692   8.751   2.248  0.2058  0.2695  0.0412
25356W        W40487  17.189  13.099   1.375 -0.1046 -0.2118 -0.0332
25357W        W40488  14.993   7.236  11.468 -0.1705  0.4328  0.0733
25358W        W40489   4.222  11.607  15.787  0.1738 -0.3511 -0.0133
25359W        W40490  13.858   7.798  14.057  0.1531 -0.0094  0.0016
25360W        W40491   1.997  17.499   0.679  0.0215 -0.2029  0.0414
25361W        W40492   6.953   0.021  15.770  0.4082  0.2191 -0.0236
25362W        W40493  13.456   1.524  11.630 -0.0661  0.3481 -0.0334
25363W        W40494  18.270  10.785  11.444 -0.1896 -0.1828  0.1617
25364W        W40495  16.986  16.695  11.817 -0.1326 -0.1833 -0.3090
25365W        W40496   1.556   6.791  10.757 -0.3351  0.3595 -0.0215
25366W        W40497   9.785   5.566   1.839  0.3738 -0.0030 -0.1573
25367W        W40498   1.660  10.643  13.758  0.2752 -0.0547 -0.2184
25368W        W40499   1.721  12.788  14.834 -0.1613  0.2825  0.0958
25369W        W40500  13.905  16.721  13.999 -0.0315  0.0516 -0.0643
25370W        W40501   1.505   7.100  11.640  0.3992  0.0805 -0.1274
25371W        W40502   2.001   2.138  14.453 -0.1789  0.2078  0.0940
25372W        W40503  14.131  14.820  11.596  0.3129 -0.2625 -0.0285
25373W        W40504  10.490  16.854   1.664 -0.0266 -0.1169 -0.1198
25374W        W40505   3.412   7.351   1.847  0.0369 -0.1523  0.0381
25375W        W40506  16.149  18.455  11.081  0.0338  0.2015  0.1498
25376W        W40507   0.412   2.594   2.792  0.2917  0.0790  0.0062
25377W        W40508  14.093  11.902   4.983 -0.0144  0.0635  0.0699
25378W        W40509   6.444  15.331  10.864 -0.0402 -0.1565  0.0195
25379W        W40510  16.850   4.180   1.954 -0.2447 -0.0602  0.0809
25380W        W40511   5.722   8.272   5.066 -0.0230  0.1713  0.1762
25381W        W40512  12.625   6.600   5.331  0.0441 -0.1202  0.0297
25382W        W40513   2.293   1.776  14.731 -0.0026  0.2345  0.2337
25383W        W40514   2.584   1.174  10.891 -0.0086  0.2158  0.4204
25384W        W40515   9.079   1.884  11.255  0.0845 -0.0892 -0.0081
25385W        W40516   3.670  12.182  11.051  0.1221  0.0424  0.4456
25386W        W40517   2.605  11.412   5.227 -0.2909 -0.0113  0.1206
25387W        W40518   8.759  12.909   1.269 -0.1310 -0.0413  0.0092
25388W        W40519   0.919   0.576  12.478 -0.0511 -0.3700  0.1005
25389W        W40520  14.442   3.340  11.691  0.0717 -0.1595 -0.0736
25390W        W40521  18.404  16.914  11.043 -0.1003 -0.1496  0.0047
25391W        W40522   2.610   9.315   0.235 -0.2913 -0.4494  0.2162
25392W        W40523  11.711  12.007  16.095 -0.0953 -0.0127  0.2292
25393W        W40524   7.416   3.251   1.079 -0.2696  0.1357  0.0490
25394W        W40525   2.466  14.293  11.609 -0.0499 -0.4411 -0.2220
25395W        W40526   8.175   8.110   2.654 -0.0379  0.0470 -0.1130
25396W        W40527   7.468   9.688  13.275  0.2619 -0.0428 -0.3002
25397W        W40528   4.714   3.621  13.884 -0.0133  0.1146 -0.2576
25398W        W40529  14.239   3.529  12.975 -0.2402  0.1002 -0.0177
25399W        W40530  18.422   1.148  15.691  0.2703 -0.0012 -0.0184
25400W        W40531  15.304   1.919  13.838 -0.0489 -0.0192  0.1748
25401W        W40532   9.316   4.675   6.019 -0.0401  0.2153 -0.0431
25402W        W40533   3.972  17.113   4.699  0.0519  0.0043 -0.1347
25403W        W40534   0.408   0.876  14.946  0.2520  0.1426  0.0684
25404W        W40535   2.365   1.181  13.931  0.6928  0.0176 -0.2146
25405W        W40536   0.828  14.917   0.819 -0.2540 -0.2520 -0.1645
25406W        W40537   4.058   9.377   4.993 -0.1088 -0.1419 -0.0971
25407W        W40538  14.385   2.847  11.730 -0.1482  0.0711 -0.1028
25408W        W40539  12.638  18.052  13.949 -0.1679 -0.3631 -0.2095
25409W        W40540  18.486  16.592  11.452  0.0083  0.1988  0.1714
25410W        W40541   3.230   6.538  15.003  0.2502  0.0204  0.4370
25411W        W40542   4.218  15.564   2.117 -0.0807 -0.1208 -0.1230
25412W        W40543  11.307   9.322  14.872 -0.0341  0.0172  0.2980
25413W        W40544  15.426   1.518   0.243  0.2160 -0.1304  0.0948
25414W        W40545   8.422   2.761   5.925  0.0980 -0.1159  0.2369
25415W        W40546  11.366   1.171   4.334  0.0173  0.1702 -0.2047
25416W        W40547   5.373   5.978   5.990  0.0286  0.0524  0.0614
25417W        W40548   1.269   1.937  16.090  0.0619 -0.0680  0.0406
25418W        W40549  12.044  16.629   9.881  0.0953  0.1410 -0.0045
25419W        W40550  15.375  12.512  10.196 -0.1228 -0.1352  0.3336
25420W        W40551   4.112  16.879   1.551 -0.3753 -0.5732 -0.3616
25421W        W40552   5.921  18.030   2.851 -0.0672  0.0204  0.1188
25422W        W40553   4.399   3.780   4.880  0.0750 -0.1096  0.1188
25423W        W40554  17.971   5.545   3.137 -0.4446  0.3845  0.1627
25424W        W40555  15.018  11.419   5.236  0.0928 -0.2193  0.0419
25425W        W40556   7.861   1.884   1.162  0.1627 -0.0073 -0.1398
25426W        W40557  11.774  13.681  12.965  0.5128 -0.0413  0.0438
25427W        W40558  12.187   3.891  14.930 -0.0427 -0.0549 -0.1511
25428W        W40559  13.313  16.872   5.842  0.0358 -0.0440 -0.0748
25429W        W40560  12.284  17.464  12.736 -0.0410  0.1616 -0.2024
25430W        W40561   0.576   5.518   3.548  0.1668 -0.1345  0.1474
25431W        W40562  10.583   1.939  12.901 -0.1817  0.1808 -0.1090
25432W        W40563   8.504   2.509   0.631 -0.2052  0.3270  0.1615
25433W        W40564  17.564   3.238  15.281 -0.1854 -0.5076  0.0624
25434W        W40565  17.198   8.148   4.048  0.0018 -0.0423  0.0075
25435W        W40566   1.432   3.389   4.958 -0.1213 -0.1284 -0.1021
25436W        W40567  14.691   7.307  11.956 -0.5778  0.0080 -0.0180
25437W        W40568  17.268   5.032  15.621 -0.1927 -0.1228 -0.2144
25438W        W40569   6.777  12.705  13.332  0.1836  0.3702 -0.0637
25439W        W40570   7.754   5.292   0.005 -0.1099 -0.0854 -0.0005
25440W        W40571   3.518   7.105  12.921  0.4034  0.0905  0.1586
25441W        W40572  17.801   9.084  12.253  0.0025  0.0330 -0.4921
25442W        W40573   3.225  16.200   2.978 -0.1614  0.1133 -0.1086
25443W        W40574  15.916   1.295   1.209 -0.4644 -0.1509 -0.1508
25444W        W40575   9.044   3.067   0.245 -0.1939 -0.0580  0.0336
25445W        W40576  17.840  13.089  10.827  0.4060 -0.0583  0.0521
25446W        W40577   2.988   7.103  15.351  0.1280  0.1685 -0.0455
25447W        W40578  18.169   6.427   5.471 -0.0557 -0.2415  0.1279
25448W        W40579   0.371   0.236   2.258  0.0376 -0.0504  0.1343
25449W        W40580   5.919   4.954  12.945  0.0571 -0.3405 -0.2921
25450W        W40581  10.527  12.345  13.509 -0.0572  0.0190  0.0648
25451W        W40582  18.184   9.350   4.455 -0.2132  0.0454  0.0723
25452W        W40583  16.032  18.180   0.827  0.1674 -0.0064 -0.4822
25453W        W40584  16.664   1.554   4.548 -0.0244  0.0567 -0.1635
25454W        W40585   2.575   2.835   3.614  0.0738 -0.0435  0.2211
25455W        W40586  14.866   1.478   1.654 -0.0442 -0.2954  0.0760
25456W        W40587  16.969  16.816   1.322  0.2242 -0.4220  0.3216
25457W        W40588  18.479   2.168   5.211  0.1237  0.2482 -0.2131
25458W        W40589   6.061   4.275   1.956  0.1586 -0.0132 -0.2520
25459W        W40590   2.018   4.050  11.445 -0.2890  0.0586  0.3474
25460W        W40591   0.596  12.780  14.431  0.1040  0.0769  0.0371
25461W        W40592   5.281  16.506   5.492  0.0370 -0.1094  0.0699
25462W        W40593  10.892   9.675   5.557 -0.1160 -0.2168 -0.1817
25463W        W40594  12.675  11.382  11.876  0.1048  0.1715  0.2805
25464W        W40595  14.859   8.193   4.339 -0.0825  0.0360 -0.0285
25465W        W40596   3.656   7.360   2.553  0.0463 -0.0201 -0.2148
25466W        W40597   3.637   4.768   2.669 -0.3451  0.0666 -0.1344
25467W        W40598  15.234  17.941   4.333  0.0956  0.1432  0.2014
25468W        W40599  11.993  17.534  16.090 -0.3877  0.1906  0.0893
25469W        W40600   1.959   7.052   0.343 -0.1779 -0.1075  0.0924
25470W        W40601   1.508   7.873  15.821 -0.1870  0.2891  0.1010
25471W        W40602  14.462  17.354  15.219  0.1819  0.3103  0.0321
25472W        W40603   0.244  15.295  16.098 -0.0268 -0.3274  0.1929
25473W        W40604   0.156  17.004   4.384  0.1659  0.2299  0.0441
25474W        W40605   9.542  15.703  11.836  0.0657 -0.2210  0.2427
25475W        W40606   1.634  12.441   4.323  0.0951  0.4064  0.0642
25476W        W40607   6.555   8.468   0.980 -0.1086 -0.1839  0.1394
25477W        W40608   6.955   5.137   1.022  0.0391  0.1450 -0.0155
25478W        W40609  12.585  10.826   5.051 -0.0025  0.2053 -0.1232
25479W        W40610  12.114   6.099  14.513 -0.1464 -0.3613  0.0184
25480W        W40611  15.495  16.606  10.750 -0.0480 -0.0007 -0.2277
25481W        W40612  11.347   0.670   2.939 -0.2872  0.2345 -0.0931
25482W        W40613  12.043   0.264  14.607  0.1284 -0.3322  0.0752
25483W        W40614  14.286   7.474  14.108  0.1368 -0.0816  0.2220
25484W        W40615   8.155   6.758   1.840  0.4153  0.2196 -0.1630
25485W        W40616   8.065   0.898  14.782  0.3853 -0.1784  0.0070
25486W        W40617  11.525  15.498  13.071  0.1818 -0.0251  0.0497
25487W        W40618   3.059   9.260  11.430  0.0778 -0.1303 -0.2320
25488W        W40619   7.192   3.081   3.489 -0.1274  0.1007 -0.1488
25489W        W40620  12.144  16.304  14.187  0.0808  0.4721  0.2777
25490W        W40621   8.729   8.870  14.261 -0.0211 -0.0909 -0.2012
25491W        W40622  14.489  13.031  14.868  0.0159  0.0633  0.0052
25492W        W40623  10.867  12.355  13.981 -0.0339 -0.1081 -0.1224
25493W        W40624   8.572   7.436   0.572 -0.2067  0.1984 -0.2216
25494W        W40625  11.874  13.209  11.742 -0.0755  0.0131 -0.2802
25495W        W40626  15.507   2.649   4.677 -0.1326  0.3062  0.2363
25496W        W40627  10.554   5.006   3.688  0.0904  0.0515  0.1011
25497W        W40628   3.026   1.475   0.782 -0.3601 -0.0010  0.1059
25498W        W40629   4.751  16.771  15.556  0.1444  0.1778  0.2928
25499W        W40630  11.062   0.685  14.610 -0.0137  0.1216 -0.2732
25500W        W40631  16.201  10.754   5.188  0.0416  0.3870  0.0800
25501W        W40632   7.816  11.308   4.128  0.1533 -0.2048 -0.1106
25502W        W40633   1.476  13.883  14.521  0.0462 -0.0668  0.3768
25503W        W40634  17.295   5.578  11.743 -0.2401 -0.0716 -0.1449
25504W        W40635   0.699   9.828  12.035 -0.1940 -0.4274 -0.1928
25505W        W40636   3.746   9.082  15.634  0.1057 -0.2672  0.1047
25506W        W40637  12.897   6.691   4.019  0.0249 -0.1115  0.0908
25507W        W40638   2.906   4.678   3.759  0.0727 -0.0125 -0.3060
25508W        W40639   0.399  13.353   2.117 -0.1953 -0.0069 -0.1121
25509W        W40640  15.540   0.700   4.230  0.0187 -0.0128  0.1479
25510W        W40641  16.039   8.658   3.147  0.1678  0.0020 -0.1059
25511W        W40642  17.700   7.323   4.539  0.2380 -0.0166  0.1712
25512W        W40643   7.580   4.451   1.153 -0.0594  0.1374  0.1848
25513W        W40644   0.460   7.792   5.027  0.1781  0.0140  0.1261
25514W        W40645   9.152   4.573  12.153 -0.3717  0.3670  0.1485
25515W        W40646   4.285   4.624  14.037 -0.4242 -0.3598 -0.0619
25516W        W40647  15.225   9.356  11.450 -0.1406 -0.0100  0.0736
25517W        W40648  16.261   7.161  15.300  0.0835  0.0408 -0.0056
25518W        W40649   2.282  16.679  11.076 -0.0711 -0.0833  0.1654
25519W        W40650  11.904  11.199  11.570 -0.0025  0.0157  0.1547
25520W        W40651   5.161   5.176   2.567  0.0679 -0.1437 -0.5240
25521W        W40652   1.716  12.038  12.493 -0.0067 -0.1091 -0.0650
25522W        W40653  10.791   7.181   2.215 -0.1563 -0.1458 -0.1455
25523W        W40654   0.268  13.211  15.889  0.0242 -0.2957  0.0848
25524W        W40655  14.333   8.523   0.380 -0.3497 -0.0274  0.1807
25525W        W40656   0.806   4.111  11.337  0.2526  0.2074 -0.0945
25526W        W40657   5.493  15.642  13.037 -0.2953  0.3493  0.2312
25527W        W40658  13.014   9.910  15.352 -0.1942  0.2202 -0.0832
25528W        W40659   4.085   4.540   4.278 -0.6172  0.0964 -0.4188
25529W        W40660   9.795  12.280   1.492 -0.3406 -0.1040 -0.2941
25530W        W40661  16.364  10.448   3.112  0.0884 -0.1689 -0.1250
25531W        W40662   9.716  18.259  11.913  0.0959  0.0115 -0.0797
25532W        W40663   0.543  11.849  14.358 -0.1738  0.1466 -0.0439
25533W        W40664   9.941   3.189  12.791  0.2409  0.0907 -0.2122
25534W        W40665   6.789   5.433  11.700  0.0021 -0.0304 -0.2235
25535W        W40666   6.969   6.804  13.870 -0.2104 -0.1473 -0.2588
25536W        W40667   2.017   3.360   4.084 -0.0493 -0.2492  0.2252
25537W        W40668   0.256  17.525   2.156 -0.1919  0.2262  0.0768
25538W        W40669   0.942   0.218   9.514  0.0911  0.1140 -0.0776
25539W        W40670   5.310  18.007  10.112  0.0296 -0.1235 -0.1007
25540W        W40671   3.665   1.221   3.221 -0.2466 -0.0639  0.0424
25541W        W40672  12.284  15.961  12.393  0.2434  0.2377  0.1762
25542W        W40673   2.802   1.102   2.707 -0.2290 -0.1426  0.1809
25543W        W40674   9.248   4.941   1.427  0.1564  0.2385  0.1656
25544W        W40675  11.958  12.331   2.801 -0.2586 -0.1120  0.2427
25545W        W40676  11.564   8.467   0.129  0.2396 -0.1403 -0.0071
25546W        W40677  17.977   6.724   2.105  0.0237  0.1241 -0.4581
25547W        W40678   6.755   7.652   4.542  0.0790  0.2393 -0.2600
25548W        W40679  11.724   0.714   2.244  0.2715 -0.2763 -0.0383
25549W        W40680   9.975   8.299  13.975 -0.0560  0.4495 -0.1639
25550W        W40681  17.367   1.078   4.537 -0.3129 -0.0245  0.0025
25551W        W40682  10.784  13.896  14.561 -0.0613  0.1219  0.0378
25552W        W40683  15.019  11.385  12.546  0.1892  0.3297 -0.2188
25553W        W40684  14.189  14.322  11.810 -0.0214  0.2172  0.1446
25554W        W40685   1.096   0.011  11.005  0.0187  0.0816 -0.0882
25555W        W40686   2.880   0.749  11.339  0.2603 -0.0905  0.0245
25556W        W40687   2.844   1.888   1.131 -0.0750  0.0056  0.0284
25557W        W40688   1.119  15.608   2.031 -0.1659  0.1776  0.0578
25558W        W40689   7.398  15.962  10.952 -0.0905  0.3266  0.1107
25559W        W40690   3.638   1.433   0.377 -0.0635  0.5519 -0.1674
25560W        W40691   7.868  18.249   5.206  0.0752 -0.1166 -0.4558
25561W        W40692  13.553  13.377  13.729 -0.3027 -0.1915 -0.1035
25562W        W40693  10.321  18.057   4.788  0.0394  0.2346  0.1342
25563W        W40694  11.208  17.617   2.876 -0.2091 -0.0869 -0.3147
25564W        W40695  17.810  14.960   1.046  0.1515  0.0311 -0.0744
25565W        W40696   0.184   7.578  14.911 -0.0827 -0.0360  0.1448
25566W        W40697   3.124   7.434  12.847  0.1447 -0.1737 -0.2580
25567W        W40698   5.134   3.027  11.152 -0.2713  0.2709 -0.1750
25568W        W40699   7.390   0.252  15.588 -0.0204  0.3074  0.0079
25569W        W40700  14.190  17.012  15.526  0.0556  0.1425  0.3782
25570W        W40701   7.491   6.411   0.875  0.4015  0.0702  0.0459
25571W        W40702   5.954  10.519  14.509 -0.0081  0.1319  0.1075
25572W        W40703   7.635   5.695  15.595 -0.0850 -0.1410 -0.0471
25573W        W40704   5.292  14.358  10.963  0.3188 -0.1797 -0.1004
25574W        W40705  16.993  18.242  10.993  0.1542  0.5139  0.0532
25575W        W40706  15.737  16.836   5.813 -0.1372  0.0770 -0.1044
25576W        W40707   2.650  16.956   4.599  0.2096  0.1548 -0.0237
25577W        W40708   0.570  10.544  12.606 -0.0054 -0.0417  0.2790
25578W        W40709  11.358   2.556   6.947 -0.0639  0.0382  0.1208
25579W        W40710  10.871  11.531  15.883  0.1872  0.2187  0.3892
25580W        W40711  13.055   8.500   6.341  0.2867  0.0999  0.1088
25581W        W40712  15.502  15.537   1.145 -0.0921  0.2437 -0.1809
25582W        W40713  16.502   0.652   5.106 -0.3409 -0.2580  0.2766
25583W        W40714   8.518  14.946   2.647  0.1495  0.2783  0.0533
25584W        W40715   6.854  16.549   1.924  0.0421 -0.1686 -0.1860
25585W        W40716   6.461   2.507  15.770  0.1801  0.0482 -0.0578
25586W        W40717  12.350  13.694  14.648  0.1987  0.2321 -0.0338
25587W        W40718   2.054  17.742  13.732  0.2357 -0.2817  0.2089
25588W        W40719  15.623  17.840  14.947  0.2325  0.1823  0.1255
25589W        W40720  14.996  15.866   0.083 -0.0474  0.0918  0.1219
25590W        W40721  11.089  15.727  11.313 -0.1733  0.5221  0.2566
25591W        W40722   3.681  18.075  12.113 -0.1015 -0.0587  0.1047
25592W        W40723  10.025   2.892   3.811  0.0926 -0.0005 -0.0416
25593W        W40724  10.927   8.359  14.980 -0.1497  0.0650  0.1656
25594W        W40725  13.244  11.478   1.067  0.2526 -0.2726 -0.2255
25595W        W40726   0.490   2.646   4.241  0.2399 -0.2086 -0.2019
25596W        W40727  13.225   1.095   5.058  0.0276  0.1491 -0.1376
25597W        W40728   6.577   0.750   5.063 -0.1562  0.1941 -0.0209
25598W        W40729  14.196  15.020   0.632 -0.1024  0.2842  0.1580
25599W        W40730   7.093   1.926  16.004  0.0629 -0.2396  0.2291
25600W        W40731  14.284  11.941   0.232 -0.1712 -0.2899  0.0861
25601W        W40732  13.731   0.701   3.087 -0.4127  0.0451 -0.1641
25602W        W40733  11.849   4.518   5.010 -0.0889 -0.2289  0.0527
25603W        W40734   3.043   1.817   4.472  0.0650 -0.2814  0.1190
25604W        W40735   9.154  13.186  15.897  0.4151 -0.0032  0.0381
25605W        W40736  18.427   8.848  13.499  0.1110  0.0377 -0.0645
25606W        W40737   7.014  10.731   0.497 -0.1815  0.1339  0.0074
25607W        W40738   7.729  10.128   4.649 -0.2555 -0.0953 -0.2917
25608W        W40739  16.420  12.864  16.093  0.0159  0.2674 -0.1299
25609W        W40740  16.572   5.085   5.689  0.0769 -0.0417 -0.2389
25610W        W40741   2.256  17.046  14.950 -0.3981 -0.2744  0.2375
25611W        W40742  10.457   8.711  12.103  0.1533  0.0044  0.4188
25612W        W40743  15.733  15.438   0.672  0.1424 -0.1406  0.1967
25613W        W40744  15.970  16.780   4.453 -0.0873  0.2898 -0.0317
25614W        W40745   6.678   2.584   2.264  0.1365  0.2713  0.1218
25615W        W40746  12.751   6.785   1.423  0.2898  0.1315 -0.1390
25616W        W40747  17.679  12.922  14.361  0.0134 -0.2097 -0.0104
25617W        W40748   2.937   1.454  10.271  0.0471  0.2103 -0.1374
25618W        W40749   3.749  13.201   2.702  0.0910 -0.1223 -0.1825
25619W        W40750   3.469  14.050   3.216 -0.2049  0.1023  0.0870
25620W        W40751   2.016  16.840  11.857 -0.2631 -0.4062 -0.3982
25621W        W40752   5.090  14.160   2.278 -0.0484 -0.2130  0.1818
25622W        W40753  12.888   5.107   0.161 -0.0368 -0.1648 -0.2513
25623W        W40754   2.330   6.569  15.923 -0.0149  0.0181  0.0185
25624W        W40755   9.476   7.847   5.876  0.1690 -0.1591  0.0145
25625W        W40756   2.718  16.165  15.987  0.1747 -0.0728 -0.2209
25626W        W40757   1.705   9.407   0.691  0.0364 -0.0561  0.0289
25627W        W40758  16.386   9.486   6.308  0.0825 -0.1942  0.2416
25628W        W40759   4.407  16.452  11.425  0.1276  0.0905  0.3981
25629W        W40760   5.302  15.034   5.705 -0.1172 -0.1839  0.1793
25630W        W40761  15.472  17.376  13.465 -0.0914 -0.4349 -0.2237
25631W        W40762  16.519   9.876  11.757 -0.1164 -0.0135 -0.1039
25632W        W40763   1.653  13.547  13.140  0.1047  0.2957 -0.1910
25633W        W40764  13.420  16.691   2.189  0.1520  0.2604  0.2180
25634W        W40765  12.683   1.349  15.388  0.0028  0.1408 -0.3296
25635W        W40766   2.455  17.769  15.215 -0.2017  0.1440 -0.1356
25636W        W40767   5.259   1.192   0.514 -0.0383  0.0014 -0.2590
25637W        W40768   9.141  15.369  14.325 -0.1095 -0.1725 -0.1018
25638W        W40769  17.481   4.736  14.187  0.1010  0.3057 -0.1115
25639W        W40770   4.114   7.547   2.523  0.3872  0.0695 -0.0661
25640W        W40771   4.577  10.616   2.243  0.1849 -0.0929  0.1890
25641W        W40772  13.462   6.129   5.523  0.0708 -0.2726 -0.1296
25642W        W40773  16.550  16.469   2.158 -0.2000  0.0205  0.1014
25643W        W40774   3.558  17.682  15.519  0.0611  0.2970 -0.3211
25644W        W40775   9.318  17.927  15.355 -0.1147  0.0491  0.1482
25645W        W40776  11.434  10.177   3.088  0.4492  0.1804 -0.0170
25646W        W40777   1.816   3.878   0.134 -0.0339 -0.0958 -0.1811
25647W        W40778   9.538   3.664  14.579  0.2030  0.0961  0.0144
25648W        W40779  14.672   9.524   5.960  0.4791  0.2062  0.1024
25649W        W40780  17.769   0.105   3.664  0.3003 -0.0807  0.0804
25650W        W40781   6.220  11.775  13.954  0.3155  0.0991 -0.2845
25651W        W40782  17.998   6.187   2.812  0.0112 -0.0232  0.2808
25652W        W40783   0.438   2.256  14.556  0.0257  0.0139  0.0672
25653W        W40784   7.012   0.550  13.046 -0.0501 -0.0806  0.0706
25654W        W40785   1.469  11.110  11.602 -0.3819 -0.3830  0.1340
25655W        W40786   5.535  10.117   2.109 -0.0136 -0.1410 -0.0385
25656W        W40787   4.570  12.556  12.565 -0.1066 -0.2510 -0.0432
25657W        W40788  10.814   6.583  14.277 -0.2614 -0.0414  0.0562
25658W        W40789   2.713  13.489   2.855  0.2140 -0.0249  0.2963
25659W        W40790   0.889  10.395  14.638 -0.0804  0.0728  0.2216
25660W        W40791   0.963   0.170   0.612  0.1389  0.1017  0.4022
25661W        W40792   8.309   5.750   3.165 -0.1696  0.3008 -0.2271
25662W        W40793   7.644   8.450   0.696 -0.0591 -0.0281 -0.1183
25663W        W40794   7.046  18.204   3.425  0.1332  0.1989 -0.2375
25664W        W40795   3.969  17.201  12.504 -0.3891 -0.0894  0.2118
25665W        W40796   7.236   8.756  15.871 -0.0151 -0.3843  0.0462
25666W        W40797  12.665   4.242  12.337  0.5766 -0.0708  0.1127
25667W        W40798  18.147  13.203   3.781  0.4036 -0.0122 -0.0308
25668W        W40799  11.212  12.170   3.163  0.1952 -0.3455  0.0538
25669W        W40800   6.878  13.515  14.447 -0.1394  0.2669  0.1597
25670W        W40801   2.287  15.802  15.460  0.0471  0.1418  0.0594
25671W        W40802   8.841  11.984   4.093 -0.3430 -0.1436  0.0238
25672W        W40803   7.491   3.084  12.740  0.3200 -0.1219  0.3425
25673W        W40804   2.773  11.734  11.497 -0.1226 -0.0059  0.0526
25674W        W40805   7.319  12.053   5.150  0.0933 -0.1508  0.0446
25675W        W40806  18.365   7.339  15.779 -0.2955  0.2640  0.4161
25676W        W40807   2.297   5.388  15.596  0.0845  0.1956  0.3023
25677W        W40808  16.357  17.211   0.669 -0.2304 -0.2302 -0.0213
25678W        W40809   7.773   4.684   2.046  0.0164 -0.4980  0.1868
25679W        W40810  11.929   0.215   5.868  0.1709  0.1611 -0.3658
25680W        W40811   8.942   7.933   6.529 -0.1080  0.0473 -0.1867
25681W        W40812   8.751  12.604  14.035  0.1791 -0.0675 -0.5705
25682W        W40813   8.680  13.263  13.072 -0.1535  0.2240 -0.0203
25683W        W40814  13.395   3.332   0.768  0.1039 -0.1162 -0.1543
25684W        W40815  17.784   5.176  15.191  0.0413  0.1151 -0.0594
25685W        W40816  15.895  17.199   5.466  0.1934 -0.2254  0.1358
25686W        W40817   7.231   5.133  14.760 -0.3340  0.0122 -0.0676
25687W        W40818  10.361  10.072  13.707 -0.1057 -0.0404 -0.0809
25688W        W40819   9.696  10.281  15.030  0.0030  0.0523  0.0219
25689W        W40820  17.068  17.566   9.503 -0.1264 -0.0456  0.2680
25690W        W40821   7.175   7.473   5.695  0.1698  0.0406  0.0359
25691W        W40822  12.451   6.464  14.610 -0.0728  0.0123 -0.3231
25692W        W40823  15.216  16.884  11.133  0.0167 -0.0553 -0.0518
25693W        W40824  14.265  17.417   1.555  0.2988 -0.2392  0.0250
25694W        W40825  10.232   2.114  12.600 -0.0605 -0.2558 -0.4412
25695W        W40826   2.182   0.925   1.539  0.0324 -0.0129  0.0158
25696W        W40827  11.345   3.711  12.178  0.2711  0.2104  0.0331
25697W        W40828  10.308   0.911  11.626  0.0673 -0.2731 -0.0136
25698W        W40829   4.346   7.079  15.076  0.1842  0.2555  0.1321
25699W        W40830  13.933  13.136   1.485 -0.0278  0.2652 -0.2455
25700W        W40831  10.771   1.365  14.900  0.2023 -0.3121 -0.0873
25701W        W40832  12.486   6.240   2.558  0.1443 -0.2556  0.0028
25702W        W40833  16.177  16.353  11.676 -0.1595 -0.1732 -0.0104
25703W        W40834   3.550   2.881   3.405  0.2756  0.1511  0.0334
25704W        W40835   1.163   5.785  15.703  0.0311 -0.1238 -0.1803
25705W        W40836   4.284   8.927   1.935  0.1951 -0.2978  0.2969
25706W        W40837   5.903   7.693   0.568  0.0154 -0.1260 -0.2229
25707W        W40838   3.910   5.418  14.364 -0.0842 -0.2025 -0.2975
25708W        W40839   0.850  14.740  13.649  0.0859 -0.2908 -0.2851
25709W        W40840  16.095   9.474  15.011 -0.2926 -0.0478  0.3423
25710W        W40841  14.652  14.554  14.252 -0.3327 -0.0057 -0.0636
25711W        W40842   3.652  15.899   2.858 -0.3743 -0.0752 -0.2104
25712W        W40843  14.254  14.899  15.650  0.0001  0.0549  0.0556
25713W        W40844   8.191  13.959  11.501 -0.0427  0.0986 -0.0225
25714W        W40845  11.785   7.814  11.040 -0.0403  0.1625  0.0105
25715W        W40846  15.180   2.278  10.122  0.3268  0.3051 -0.2842
25716W        W40847   2.017  11.190  14.444  0.3365 -0.2392 -0.2919
25717W        W40848  17.067   6.568   4.088  0.2073 -0.1141 -0.0319
25718W        W40849  16.433   5.201   1.709  0.2210 -0.0349 -0.1637
25719W        W40850  10.843   1.852   2.115 -0.2047  0.3515 -0.1698
25720W        W40851  18.016   5.505   5.280  0.0158  0.1815 -0.0697
25721W        W40852   5.254   0.595  10.911 -0.0030  0.0519 -0.4496
25722W        W40853  14.281  13.813  12.073 -0.0151 -0.2435 -0.1567
25723W        W40854  13.149   5.556  11.679  0.0272  0.0542 -0.2538
25724W        W40855  18.073   9.482  13.106  0.0288  0.2852 -0.3042
25725W        W40856   8.260   3.359  11.598  0.2877 -0.2692 -0.0609
25726W        W40857  10.099  16.975  12.527  0.1608  0.2967 -0.1010
25727W        W40858   1.001   3.202  10.842  0.2664 -0.1986 -0.1167
25728W        W40859   2.272  16.625  12.297 -0.2597 -0.1595 -0.2304
25729W        W40860   6.341  16.291  11.797  0.1937  0.2358 -0.1828
25730W        W40861   8.931  17.169   0.978  0.2745 -0.1265  0.0413
25731W        W40862  14.206  13.759  15.093  0.0941  0.1262 -0.0904
25732W        W40863  11.602  11.702   4.879  0.0900 -0.1947 -0.1511
25733W        W40864  15.703   5.176   2.763 -0.0107  0.1477 -0.4164
25734W        W40865  10.407  17.911  15.836  0.1796  0.1548 -0.1575
25735W        W40866   1.740  14.219  10.962 -0.0835  0.0157  0.1341
25736W        W40867   5.073  11.698  11.713 -0.1112  0.0349  0.0235
25737W        W40868   3.664  14.291   9.810  0.1572 -0.2572 -0.0703
25738W        W40869  11.984   5.355  12.807 -0.1030  0.0318  0.0523
25739W        W40870  11.003   1.359  13.880 -0.1337  0.1181 -0.0662
25740W        W40871   4.891  15.433  15.317 -0.0426  0.1609  0.1003
25741W        W40872  15.758  10.464   3.380 -0.0632  0.2048 -0.0679
25742W        W40873  12.837   3.540   5.533  0.0986 -0.2032  0.0706
25743W        W40874  10.795   9.081   2.309 -0.0138  0.4077  0.0174
25744W        W40875   8.715   2.979  15.108 -0.1599 -0.0828  0.1187
25745W        W40876  16.961   3.575   0.639  0.4275 -0.0762 -0.1140
25746W        W40877   4.217   8.928   3.660 -0.6805 -0.0337 -0.0961
25747W        W40878   7.576   6.255   3.760  0.0631  0.0032 -0.1477
25748W        W40879   4.018  15.957   0.609 -0.1760 -0.0229  0.0458
25749W        W40880   5.299  15.613  15.138 -0.2620 -0.0040 -0.2995
25750W        W40881   5.776   8.112   4.096 -0.1846  0.1696 -0.5505
25751W        W40882  18.371  13.725  14.370  0.1096  0.1594 -0.2410
25752W        W40883  12.822  12.909   3.739  0.3222 -0.2203 -0.0434
25753W        W40884   9.143  13.789   2.377  0.1032  0.1905 -0.1086
25754W        W40885   8.686   6.084   4.568  0.1031 -0.2523  0.1140
25755W        W40886  10.399   9.072  12.768  0.2979  0.2211  0.1273
25756W        W40887  14.187   0.327  14.782 -0.0839  0.3755 -0.2537
25757W        W40888  10.532  10.444   1.173  0.2395 -0.1690 -0.1260
25758W        W40889   6.404  17.084   1.385  0.1951  0.3732  0.0396
25759W        W40890  16.743  15.088  12.024  0.1928 -0.0574 -0.2820
25760W        W40891  14.661  13.535  15.112 -0.0286 -0.0662  0.3683
25761W        W40892   7.640  16.360  13.820 -0.4194 -0.0689 -0.2384
25762W        W40893   1.478   3.370  12.595 -0.2339  0.2137  0.1316
25763W        W40894  15.463  17.546  14.272  0.3067 -0.0884 -0.1198
25764W        W40895   0.708   6.550   5.556 -0.0345  0.1018  0.1127
25765W        W40896  13.136   3.048  15.756  0.1199  0.0530 -0.0730
25766W        W40897  11.560   0.487  14.429  0.0500  0.1802 -0.1373
25767W        W40898  16.593   6.558   4.288  0.2086 -0.1067 -0.0231
25768W        W40899  13.052   3.225   2.150  0.2099 -0.1689 -0.3729
25769W        W40900  15.933   5.377   1.874  0.2013 -0.3642  0.1878
25770W        W40901  17.458  11.446  14.249  0.2479 -0.3096 -0.0667
25771W        W40902  12.123   5.698   5.282 -0.3659 -0.2158  0.1299
25772W        W40903   8.264   3.180  12.160 -0.0013  0.0288  0.1173
25773W        W40904   0.372  10.174  11.085  0.3521  0.1560 -0.0953
25774W        W40905   9.541  15.828   0.282  0.4520  0.2549  0.0126
25775W        W40906   1.300   6.833   4.836  0.0860  0.2204  0.1140
25776W        W40907  15.951  12.255  11.391 -0.0557 -0.1202  0.0297
25777W        W40908   8.471  14.446  10.735 -0.1263  0.1097 -0.0583
25778W        W40909  11.806  14.996  13.886  0.1006 -0.0646  0.0758
25779W        W40910   7.284  15.992  12.019 -0.1169  0.1868 -0.1523
25780W        W40911  17.354  17.249  15.361  0.0010  0.3400 -0.3972
25781W        W40912   7.061  17.004   0.486 -0.0671  0.1309 -0.1540
25782W        W40913  12.811   0.765  11.688  0.2634 -0.1739  0.3041
25783W        W40914   6.604   2.120   0.867  0.1008 -0.0366 -0.2705
25784W        W40915   4.371   0.035   4.348  0.0646  0.1888 -0.0950
25785W        W40916  17.436   9.116  12.599  0.1398  0.0588 -0.0733
25786W        W40917   0.991  17.733   0.825 -0.0634  0.0692 -0.0325
25787W        W40918  14.595  16.256   1.586 -0.2884 -0.3418  0.0675
25788W        W40919   5.164   2.306  10.927 -0.0569  0.0920  0.2067
25789W        W40920   1.628  14.508  12.807 -0.0628  0.1108 -0.1213
25790W        W40921  15.320  11.780   5.282  0.0084 -0.0144 -0.1043
25791W        W40922   2.532   3.930   2.437 -0.3000 -0.2063  0.2208
25792W        W40923   6.098   6.572   2.124  0.1204  0.0952 -0.2441
25793W        W40924   6.636  12.053  13.814  0.0093 -0.0135 -0.1079
25794W        W40925  14.273   4.531   2.032 -0.3446 -0.2123 -0.0593
25795W        W40926   6.007  13.499  15.789 -0.0411  0.3749 -0.0331
25796W        W40927   4.933   1.383   4.416 -0.2900  0.2742 -0.2934
25797W        W40928  12.475   5.119  13.464 -0.3929 -0.1139 -0.1835
25798W        W40929  10.849  16.587   0.466  0.0004 -0.2622 -0.0236
25799W        W40930  18.292   7.920  11.589  0.0953 -0.0324 -0.0719
25800W        W40931   9.289  14.783  14.501  0.1286 -0.1242  0.2557
25801W        W40932   2.690  16.502  10.558  0.0744 -0.1846 -0.0215
25802W        W40933   8.167  11.577  16.014 -0.3742 -0.2771 -0.1179
25803W        W40934  15.337   4.084   3.660  0.0293 -0.1701  0.2500
25804W        W40935   8.661   7.134  13.983  0.0048 -0.1878  0.0765
25805W        W40936   8.788   1.170   1.217 -0.0337 -0.0235  0.0011
25806W        W40937   0.425  13.300  13.692  0.3348 -0.0197  0.3071
25807W        W40938  11.876   3.408   5.377  0.0494 -0.0632 -0.2141
25808W        W40939  15.256   8.356   0.611 -0.3753 -0.1627 -0.2088
25809W        W40940   1.094   1.180   3.654  0.0656  0.2140 -0.0467
25810W        W40941   4.624   9.575   0.157  0.0226  0.3017 -0.2594
25811W        W40942   4.746   0.523   2.210  0.1721 -0.0037 -0.2750
25812W        W40943   1.982   5.459   9.473  0.0628  0.2228 -0.0301
25813W        W40944   7.434   7.834  14.639  0.0360 -0.0624  0.0698
25814W        W40945   4.020  12.029   1.722 -0.3780 -0.2736  0.0038
25815W        W40946   5.792   7.968  14.737 -0.0006 -0.0174  0.1671
25816W        W40947  14.790  15.040  14.199 -0.0570  0.2416 -0.1313
25817W        W40948  16.151   1.991  14.552 -0.0337 -0.0450  0.3165
25818W        W40949  12.881  10.323   3.785  0.0005 -0.1891 -0.0601
25819W        W40950   0.648   6.796   0.537 -0.2405  0.1724 -0.2055
25820W        W40951   5.252  13.150  12.346  0.1057 -0.0605 -0.1661
25821W        W40952  16.091  13.646  15.676 -0.2180 -0.1564  0.2104
25822W        W40953  16.161  12.992   3.823  0.2076  0.2724  0.0584
25823W        W40954   8.691  17.797   4.099 -0.0113 -0.0966 -0.2758
25824W        W40955   1.199   4.671   3.384 -0.0704 -0.0197 -0.3969
25825W        W40956  11.981  17.765   1.625 -0.3178  0.1110  0.1961
25826W        W40957   8.891  10.637  11.623 -0.0675  0.1601 -0.0110
25827W        W40958  15.351  10.907   0.286 -0.2672 -0.0493  0.0404
25828W        W40959   1.302  14.537  13.205 -0.0813  0.1563 -0.2428
25829W        W40960   1.106   6.353   2.534  0.2199  0.0726 -0.0172
25830W        W40961  16.774   5.550   3.135 -0.1748 -0.1586  0.3646
25831W        W40962  11.203  16.932  13.564  0.0058 -0.2191 -0.0657
25832W        W40963  10.526   2.430   2.148 -0.1957  0.3327  0.0906
25833W        W40964   3.599  12.243   4.630  0.1369  0.2016 -0.1500
25834W        W40965  18.329   8.299  14.213 -0.0680  0.1461  0.2992
25835W        W40966  14.169  17.367   3.985 -0.2302  0.2781 -0.2143
25836W        W40967  12.298  11.749   3.189 -0.3568 -0.0789  0.0218
25837W        W40968   9.101   5.817   6.066  0.2941  0.0513  0.2600
25838W        W40969  18.112   3.709   1.981 -0.1343 -0.2928 -0.3639
25839W        W40970  16.376   5.495  14.634  0.0975 -0.2078 -0.1725
25840W        W40971   4.636   4.515  14.395 -0.1447 -0.2023 -0.1443
25841W        W40972   2.664   9.033  11.869 -0.0939  0.0007 -0.1626
25842W        W40973   7.620   2.027  11.340 -0.3264  0.0459 -0.2322
25843W        W40974   0.093   4.674  15.717  0.2714  0.0255 -0.0182
25844W        W40975  12.815  12.428  10.937  0.1431  0.0192 -0.0224
25845W        W40976  14.551   9.163  13.449  0.0989  0.0436  0.4060
25846W        W40977  10.742  13.466   2.924 -0.0336 -0.2096 -0.2038
25847W        W40978   0.276  13.104  14.618 -0.3177 -0.2034 -0.0502
25848W        W40979   8.478  17.044   0.477  0.1227  0.1065  0.1321
25849W        W40980  12.016  10.766   0.162  0.3225 -0.0326 -0.0025
25850W        W40981   1.409  10.228  13.799  0.2778  0.0613  0.0952
25851W        W40982   1.019   9.979   3.035  0.0630 -0.3513  0.0324
25852W        W40983  13.179   3.109   5.752  0.1564  0.0523  0.0290
25853W        W40984  10.782  16.738  13.187  0.0054  0.3140 -0.2162
25854W        W40985   1.120   4.945  15.441 -0.0390 -0.1325 -0.0225
25855W        W40986   5.967   9.387   4.949 -0.1286  0.0466 -0.1965
25856W        W40987   7.172  16.468  15.422  0.0251  0.3241 -0.0716
25857W        W40988  14.780   2.742  15.076  0.1319 -0.1887 -0.0463
25858W        W40989   8.931   1.395  15.067 -0.1055  0.2060 -0.1297
25859W        W40990  16.680   6.071   4.060 -0.0382  0.2581  0.1734
25860W        W40991  10.624  10.469  13.923  0.1209  0.1772  0.1502
25861W        W40992   4.975  12.447   5.059 -0.2803 -0.1208 -0.1553
25862W        W40993   0.050  10.235  14.752  0.2715  0.2071  0.2640
25863W        W40994  13.577  13.726  15.681 -0.2166 -0.0833 -0.1171
25864W        W40995   9.360   1.418  14.119  0.1920  0.1373  0.0687
25865W        W40996   3.672  16.392  10.782  0.1996  0.0335  0.2309
25866W        W40997  11.536  14.814   5.148  0.1987 -0.3021  0.0587
25867W        W40998   6.752   3.079  11.572  0.0657  0.3430 -0.1863
25868W        W40999  10.773  13.512  12.603 -0.3223 -0.0868 -0.1620
25869W        W41000   2.304  13.553  13.106  0.0235 -0.0763 -0.2347
25870W        W41001  17.152  17.433   2.815  0.4126  0.0646  0.0495
25871W        W41002  13.659  11.883  11.079 -0.1799  0.0603 -0.0834
25872W        W41003  17.957  14.207  12.651 -0.1590 -0.1292 -0.0190
25873W        W41004   1.364  11.051   5.952 -0.0477  0.2283 -0.2077
25874W        W41005   3.086   0.897  15.747 -0.1617  0.1712 -0.0345
25875W        W41006   3.266  14.211   1.469  0.1602 -0.4657 -0.0206
25876W        W41007  14.088  11.115   0.939  0.2133  0.1386 -0.1374
25877W        W41008  15.729   8.054  10.593  0.1422  0.2518 -0.0935
25878W        W41009  12.520   6.826   4.785  0.1180  0.3300  0.0899
25879W        W41010  17.481  17.377  12.816  0.1994  0.0573  0.1401
25880W        W41011   4.392  11.544  14.774  0.3959  0.0301 -0.0137
25881W        W41012   0.436  15.515  14.341 -0.3842  0.5016  0.0584
25882W        W41013  10.213   7.457   5.355  0.0491  0.0750  0.0631
25883W        W41014  12.785   4.955   5.875 -0.0924 -0.0702  0.1340
25884W        W41015  10.772  13.509  15.668 -0.1895  0.3055  0.0796
25885W        W41016   3.923   9.576  13.396  0.1853  0.4196 -0.2259
25886W        W41017   9.883   9.563   4.595 -0.0938  0.2944  0.0367
25887W        W41018   9.997  17.060   1.668  0.1944  0.2925 -0.0235
25888W        W41019   6.646   6.930  14.708  0.0004  0.2238  0.0341
25889W        W41020   6.872  12.269  11.566  0.0874 -0.1523  0.1755
25890W        W41021  12.142  17.473  14.465  0.1344  0.4465  0.1409
25891W        W41022  11.705  13.786  13.442  0.0029 -0.1042  0.0527
25892W        W41023   2.941  15.056   0.485  0.0687  0.0267 -0.0869
25893W        W41024  13.978   2.929  14.666 -0.1481 -0.0546 -0.2045
25894W        W41025  12.371  12.310  15.798  0.0385  0.3694 -0.1164
25895W        W41026   5.817   3.346   4.248 -0.1838  0.1819  0.0612
25896W        W41027  15.707   9.832   2.262 -0.0571  0.1656 -0.1019
25897W        W41028  14.596  18.112  12.326  0.0314 -0.0150 -0.2181
25898W        W41029  18.145   1.079  12.078  0.0794  0.0427  0.1840
25899W        W41030  11.733  15.930   2.012  0.2410  0.0351 -0.0630
25900W        W41031   0.041  15.631   3.352  0.0731 -0.2873  0.2008
25901W        W41032   5.700  15.159  15.666  0.2490  0.1823  0.0486
25902W        W41033   4.760   8.712  14.774  0.2995  0.0796  0.0325
25903W        W41034   2.544   2.442   0.906  0.1946  0.1148 -0.0243
25904W        W41035   6.351   8.089  13.207 -0.0778 -0.0496  0.2158
25905W        W41036   6.120  13.969  11.076 -0.0787  0.1504 -0.1115
25906W        W41037   4.918  13.218  10.635 -0.3737  0.1688 -0.0194
25907W        W41038  16.075  10.805   2.349 -0.0922 -0.0539 -0.1742
25908W        W41039  15.495  13.854   0.062  0.1688 -0.1195 -0.2938
25909W        W41040  11.814   5.682  15.798 -0.0518  0.1787 -0.1790
25910W        W41041   9.217   0.312   2.263  0.0364 -0.1007  0.1301
25911W        W41042   7.888  14.366   4.001 -0.0065  0.0442 -0.0295
25912W        W41043   7.033   6.463   3.645  0.0120 -0.0754 -0.1102
25913W        W41044  17.173   8.285  13.772  0.4323 -0.0893  0.2453
25914W        W41045   7.963   0.858   1.442 -0.0414  0.1030  0.1868
25915W        W41046   6.312  16.237  15.726 -0.2600 -0.1329 -0.0566
25916W        W41047   7.218   9.893   1.621 -0.2262 -0.0138 -0.2079
25917W        W41048  16.666  15.569  10.420 -0.3250 -0.0590 -0.1500
25918W        W41049  18.440  14.652  14.239 -0.1658 -0.2663 -0.0043
25919W        W41050  14.483   1.309  15.186 -0.2127 -0.2072  0.0110
25920W        W41051   9.782   5.929  13.296  0.0392 -0.1579  0.2357
25921W        W41052   8.211  16.161  15.360 -0.0485  0.0122  0.1133
25922W        W41053  13.412  14.977   4.566  0.1121 -0.0148 -0.1876
25923W        W41054  17.756  17.043  12.067  0.0014  0.0748  0.1127
25924W        W41055   9.971  17.822  15.653 -0.0734  0.2181 -0.1419
25925W        W41056  12.799  14.151  13.747 -0.0776  0.0776 -0.0855
25926W        W41057   4.484  14.994   1.153 -0.0487 -0.2661 -0.3612
25927W        W41058  16.341   5.756  13.661  0.1299  0.2780 -0.5373
25928W        W41059   6.038  10.098   2.217 -0.1216 -0.0515  0.0352
25929W        W41060   7.719   2.834  13.190 -0.0649 -0.4947 -0.2032
25930W        W41061   0.772  18.137   2.670  0.0475  0.2189  0.1064
25931W        W41062  10.580  10.543  13.411  0.2630 -0.2187  0.0506
25932W        W41063   4.362  16.429  12.921 -0.2498  0.0175  0.3363
25933W        W41064  15.963  17.156   4.056 -0.1276  0.0884 -0.1517
25934W        W41065   7.893  16.402  11.743  0.2569 -0.0127 -0.2916
25935W        W41066   5.075  16.002  14.368  0.2695  0.0869  0.2318
25936W        W41067   2.876  10.868   4.962  0.3768  0.1354 -0.0608
25937W        W41068  10.083   4.172  12.435  0.0200 -0.1280  0.2621
25938W        W41069   6.699   4.345  15.097 -0.3110  0.0700 -0.1348
25939W        W41070   8.288   8.963   5.610 -0.1533  0.2578  0.1145
25940W        W41071  15.514  14.224   0.503  0.1690 -0.0239  0.0104
25941W        W41072  11.479  11.460   3.888 -0.0529  0.0955 -0.0344
25942W        W41073   9.407   5.018  15.882 -0.0867 -0.0468  0.2840
25943W        W41074   9.600   3.030   1.344 -0.2453  0.0941 -0.1908
25944W        W41075   2.353  16.933  10.639  0.0996  0.0109 -0.1466
25945W        W41076   1.198   6.577   5.319 -0.2248 -0.0519 -0.3114
25946W        W41077  12.472  17.652  13.305 -0.0675  0.2244 -0.0463
25947W        W41078   2.874  14.263   2.632 -0.2306 -0.0563  0.1262
25948W        W41079  17.678  17.102   1.257 -0.1264  0.1748 -0.0667
25949W        W41080   0.394   5.697   2.281  0.1667  0.0551 -0.0825
25950W        W41081  16.658   3.615   4.952 -0.3232  0.2658 -0.1590
25951W        W41082   5.125  10.706   3.994 -0.1639  0.1646  0.0448
25952W        W41083  16.870   6.115  15.668 -0.4631 -0.0340 -0.0011
25953W        W41084   4.936   0.717  14.845 -0.3301  0.2792  0.0772
25954W        W41085  10.447  17.956   4.146 -0.1069  0.0746  0.0996
25955W        W41086   6.447  12.537  11.234 -0.0351  0.1785 -0.0836
25956W        W41087   9.902   7.807   5.741  0.1443  0.0739 -0.1864
25957W        W41088  11.280  15.509   5.042  0.2499  0.0672 -0.1177
25958W        W41089  12.726  15.907  14.978  0.0865 -0.0714 -0.1281
25959W        W41090  17.612  12.566   2.897  0.1016  0.0729 -0.0824
25960W        W41091  13.362   9.181   5.034 -0.2227 -0.0937 -0.1265
25961W        W41092   9.811   6.034   1.588  0.0794 -0.0697  0.0817
25962W        W41093  13.130  14.962   1.539 -0.1412 -0.1883  0.0609
25963W        W41094   9.319  16.161   2.472  0.2018 -0.1512 -0.0365
25964W        W41095   9.270   1.611   5.056 -0.4237 -0.0735  0.0099
25965W        W41096  11.625  14.455   1.722 -0.0993  0.1371 -0.1243
25966W        W41097  13.550   5.858  12.477  0.3011  0.2388 -0.0523
25967W        W41098  14.283  10.617  11.511  0.3484  0.3061  0.3809
25968W        W41099  11.660   9.948   5.806  0.5243  0.0194  0.1002
25969W        W41100   6.930   2.550  14.678  0.0835  0.5021 -0.0770
25970W        W41101  12.311   5.239   5.080 -0.3544  0.0354  0.0673
25971W        W41102  15.246   3.978  15.378 -0.3656  0.0948 -0.3707
25972W        W41103   9.688   5.513  14.164 -0.0131 -0.1230  0.0857
25973W        W41104   2.655   1.473   0.400 -0.0478  0.0771  0.0247
25974W        W41105  16.703   1.147  15.898  0.1209 -0.1846  0.3607
25975W        W41106   1.299   5.727   0.424  0.6106  0.2077 -0.2959
25976W        W41107  10.374  10.594   2.520 -0.1368  0.1177  0.3066
25977W        W41108   1.538  15.911  13.251  0.0514 -0.2880  0.1046
25978W        W41109   7.443   6.205  11.949  0.1497 -0.1702 -0.0551
25979W        W41110  13.380  18.338   2.708 -0.0436 -0.0020 -0.2570
25980W        W41111  18.061  16.786   1.333 -0.0248  0.0284  0.1009
25981W        W41112   8.803   9.458   1.491 -0.2303 -0.0168  0.0727
25982W        W41113   1.590   3.836  11.735  0.2215  0.3343 -0.0414
25983W        W41114  18.103  10.750   4.470  0.2152 -0.0939  0.0660
25984W        W41115   6.552  11.848   0.270 -0.0824 -0.0208  0.1309
25985W        W41116   5.627   7.860   3.310  0.3422  0.1148 -0.0154
25986W        W41117   8.236   4.368   0.714 -0.0599  0.1354  0.2178
25987W        W41118   6.296   1.553   2.011 -0.1130  0.1944 -0.0733
25988W        W41119   2.424   4.993   0.655 -0.1250 -0.0773  0.0229
25989W        W41120   9.798   6.932   0.717 -0.0078  0.3022 -0.4587
25990W        W41121   5.661   6.133   4.984  0.1926 -0.1471  0.1396
25991W        W41122   1.406   8.805   5.335 -0.0427  0.1016 -0.2303
25992W        W41123  12.170  11.897  12.522  0.0140  0.0611 -0.2671
25993W        W41124  16.658   0.374  13.882 -0.1453  0.0368  0.0796
25994W        W41125  10.195   9.140  12.289  0.2732  0.0265  0.0990
25995W        W41126  14.436  16.253  12.274 -0.1696 -0.0070  0.0990
25996W        W41127   5.867  11.335   4.800 -0.1070  0.0094  0.0228
25997W        W41128   7.208  16.450  11.185  0.0020  0.1075 -0.1276
25998W        W41129  15.279  11.774  14.621 -0.0582 -0.0019 -0.0478
25999W        W41130   7.208   3.550   4.431  0.4147  0.0698  0.0198
26000W        W41131  14.598  11.167   3.429  0.2464  0.3044 -0.1144
26001W        W41132   3.252  13.294   2.611  0.1196  0.0257  0.0462
26002W        W41133   6.738  10.359  10.269  0.1609 -0.0116  0.0983
26003W        W41134   3.842   5.201   0.132  0.0365  0.2331 -0.1380
26004W        W41135  15.675  16.226   2.816  0.3738 -0.3227  0.1131
26005W        W41136  11.253   4.285  13.528 -0.0753 -0.0902 -0.1560
26006W        W41137  11.899   6.174   0.126  0.1721  0.0107 -0.2685
26007W        W41138   5.759  10.352   4.594  0.0176  0.1243  0.1546
26008W        W41139   2.692  16.616  15.033 -0.1103 -0.0760 -0.0667
26009W        W41140  11.752   1.111  15.205  0.1705  0.1817 -0.0524
26010W        W41141  15.410  13.668   0.660 -0.0325  0.1036  0.0634
26011W        W41142   1.163  18.487  11.536  0.1393 -0.3750  0.0524
26012W        W41143  17.004  12.248   1.079 -0.0605 -0.0709 -0.1041
26013W        W41144   8.433  14.530   0.269  0.0085  0.1374  0.1173
26014W        W41145  14.737  13.374   4.962 -0.0647  0.0921  0.2504
26015W        W41146  16.791  15.622  14.791 -0.1593  0.0121  0.3359
26016W        W41147  16.393  13.931   4.271 -0.2787  0.3107  0.0240
26017W        W41148   0.154   8.898   3.087 -0.1124  0.0870  0.1429
26018W        W41149  15.100  16.480  12.787  0.0671 -0.0949  0.2796
26019W        W41150   8.648   3.440   4.666 -0.4953 -0.0949  0.0474
26020W        W41151   6.955   6.720  14.378 -0.1516 -0.0726  0.0810
26021W        W41152   2.376   9.346   4.837  0.2264  0.0624 -0.1409
26022W        W41153   5.403   6.350   3.103  0.1093 -0.1294  0.1112
26023W        W41154   3.429   3.520   0.942  0.1045  0.0341  0.0787
26024W        W41155  15.898   7.641  11.555 -0.0264 -0.1576  0.1220
26025W        W41156  15.052  16.569  14.032  0.0564 -0.0505  0.2199
26026W        W41157  13.333  10.337  11.405 -0.1735 -0.4249  0.1532
26027W        W41158  10.553   0.705   2.594 -0.2138 -0.3113  0.0371
26028W        W41159   0.369   3.864   0.727  0.0073  0.0727  0.0033
26029W        W41160  13.261   4.224   1.209 -0.0249  0.2245 -0.1902
26030W        W41161  15.892  15.813   1.299 -0.2071  0.0873  0.0466
26031W        W41162   0.308   8.074  15.041 -0.1051 -0.1229 -0.4916
26032W        W41163   0.753   6.035  11.092  0.1913  0.3566 -0.2352
26033W        W41164   1.409   5.116  14.804 -0.0853  0.0380  0.0659
26034W        W41165  13.764  13.774   5.685  0.2206  0.1800  0.0194
26035W        W41166   9.105   8.395   2.487 -0.1734  0.4151  0.0401
26036W        W41167   8.872  16.400  12.929  0.3935  0.2201  0.3093
26037W        W41168   1.151   5.439  13.376  0.0620  0.4941 -0.0470
26038W        W41169   2.290   4.959   3.076  0.1317 -0.3715 -0.2874
26039W        W41170  15.398   0.342   0.740  0.0962  0.0815  0.2965
26040W        W41171  16.418   2.897  13.477 -0.0601 -0.2249 -0.2584
26041W        W41172   8.974   0.803  10.988 -0.2445 -0.1439  0.1375
26042W        W41173  11.721  16.413   0.952  0.1054  0.1951 -0.2318
26043W        W41174  13.314  17.488  15.364  0.0961 -0.1070 -0.1741
26044W        W41175  11.864  12.420  15.742 -0.1911 -0.0648  0.0761
26045W        W41176   5.388  14.220   5.012 -0.0982  0.1282 -0.1704
26046W        W41177  13.200   4.994  12.914  0.0237 -0.1548 -0.2964
26047W        W41178   4.385   2.813  15.028 -0.2240 -0.0184 -0.1557
26048W        W41179   5.407  18.486  15.942 -0.0856 -0.2230 -0.0164
26049W        W41180   5.020   4.834   0.546  0.0609  0.0876 -0.3250
26050W        W41181   6.707  17.888   0.276  0.2041 -0.1082 -0.0258
26051W        W41182  12.652   2.025   4.183  0.4234 -0.2869 -0.1359
26052W        W41183   3.949  13.283  11.556  0.3242  0.1604  0.2489
26053W        W41184   4.567   5.015   4.961 -0.0667 -0.2431 -0.2348
26054W        W41185   3.207  17.029  13.926 -0.3156 -0.1192 -0.0195
26055W        W41186   9.346  15.684  12.786 -0.2046  0.2583 -0.3024
26056W        W41187   6.946   2.680  12.144 -0.1682 -0.0522  0.0163
26057W        W41188  17.223   5.783  14.324  0.3020 -0.0877 -0.0843
26058W        W41189  11.499  11.597   0.330 -0.0387 -0.0127  0.0852
26059W        W41190  15.747   1.870  15.014 -0.2717 -0.1037 -0.0650
26060W        W41191  16.806   7.579  13.020  0.0969 -0.0337 -0.2630
26061W        W41192   8.734  15.895   0.214  0.1701  0.2226  0.3697
26062W        W41193   4.823  15.794  11.931 -0.0813  0.0116  0.3746
26063W        W41194   5.485   8.421   0.001  0.2188  0.0100 -0.0007
26064W        W41195  18.332   2.396  10.855 -0.1021  0.0824 -0.2615
26065W        W41196   3.037  12.838   4.397 -0.0324 -0.1655  0.4799
26066W        W41197   3.833   3.007   0.232  0.0219  0.0392  0.2672
26067W        W41198  10.260   1.564   1.384  0.1715 -0.2177  0.1920
26068W        W41199  13.877  15.683  15.140 -0.4805  0.3455  0.0535
26069W        W41200   7.007   2.523   4.372 -0.0535 -0.0691 -0.2586
26070W        W41201  16.441  16.710  15.482 -0.0974 -0.0951 -0.1675
26071W        W41202   3.060  12.615  14.689 -0.2893  0.0798  0.1875
26072W        W41203  10.565   3.255   6.283 -0.1680 -0.0083 -0.4784
26073W        W41204   3.742   0.384   0.645 -0.0246 -0.0533 -0.3305
26074W        W41205   4.216   0.823  12.552 -0.1183  0.3213 -0.0632
26075W        W41206   8.834   7.354  14.860 -0.2539 -0.1305 -0.0571
26076W        W41207   3.841   8.377  12.177 -0.2514 -0.1757 -0.0346
26077W        W41208  11.045  16.982   3.677 -0.0439  0.0252  0.0799
26078W        W41209   1.887   9.494   2.973 -0.0391 -0.0905 -0.0219
26079W        W41210   3.706  13.097   0.251  0.0232  0.1516 -0.2945
26080W        W41211   0.139  16.972  14.006 -0.0944  0.2703 -0.1444
26081W        W41212  12.443  12.613   1.115 -0.2985  0.1384 -0.0446
26082W        W41213   1.773   8.659   4.867  0.1243  0.4565  0.2139
26083W        W41214  10.204   9.609  13.985  0.0040 -0.1024  0.0860
26084W        W41215  15.838   5.929  11.983  0.0685 -0.2678  0.0952
26085W        W41216   8.845   9.062  11.543 -0.1329 -0.2490 -0.1377
26086W        W41217  13.514   1.841  13.174  0.1680 -0.2604 -0.0440
26087W        W41218   0.775  15.468   0.877  0.3628  0.0918  0.1637
26088W        W41219  11.296   9.303   4.627 -0.0008 -0.1703 -0.0225
26089W        W41220  14.067  16.917   1.238 -0.2703  0.2287  0.0928
26090W        W41221   6.684  13.590  13.124  0.3045  0.0685  0.2682
26091W        W41222   6.673  16.361   4.205  0.3011 -0.2536  0.0741
26092W        W41223  15.874   0.023  12.153 -0.1196  0.2311  0.1464
26093W        W41224  16.563  14.373   4.279  0.2144 -0.0896  0.1466
26094W        W41225  18.037   8.323   5.474  0.0469  0.3162  0.0137
26095W        W41226   5.583  15.180   3.078 -0.1639  0.1674  0.1742
26096W        W41227   2.748   4.226  10.912  0.1544  0.0615  0.0543
26097W        W41228  12.866   5.341   0.607  0.0255 -0.0242  0.0482
26098W        W41229  17.330   3.963  14.386 -0.0964 -0.0090 -0.1867
26099W        W41230   6.053  16.045  14.375  0.1382  0.0273 -0.2233
26100W        W41231  17.830   9.058   0.139 -0.2207  0.1667 -0.2007
26101W        W41232   1.720  17.513  12.535 -0.1000  0.4175  0.2813
26102W        W41233  16.957  11.193  12.040  0.1599  0.5655 -0.0652
26103W        W41234   0.976   8.472   4.682 -0.1176 -0.2030 -0.2046
26104W        W41235   4.574  14.781   3.101 -0.2661 -0.2927 -0.0014
26105W        W41236  17.456  13.564  12.585 -0.1690  0.2246 -0.0367
26106W        W41237   4.915   1.419  14.375  0.2820  0.0083  0.1800
26107W        W41238   3.581   8.012  13.997  0.2185  0.2182 -0.1494
26108W        W41239   4.612   8.104  12.553 -0.2533  0.2046 -0.0721
26109W        W41240   0.181   0.181  11.614 -0.3862 -0.1503 -0.1982
26110W        W41241   4.987  12.924  14.602  0.1563 -0.2129  0.3961
26111W        W41242   3.834   2.473   2.686 -0.1323  0.1775  0.0476
26112W        W41243   8.567   5.686   5.420 -0.2051  0.2306  0.2198
26113W        W41244  13.010  15.316   1.038 -0.2211  0.5099  0.3844
26114W        W41245   7.785   1.076  12.718  0.2925  0.0285  0.0010
26115W        W41246   1.063   4.622  13.062  0.2975  0.3111 -0.0248
26116W        W41247  16.741   9.667  15.705  0.0032  0.1800  0.0862
26117W        W41248   9.404  10.323   4.878  0.0799 -0.1081  0.0538
26118W        W41249   0.601  16.875  11.109 -0.2529  0.0961  0.2522
26119W        W41250   0.665   4.710  14.399 -0.0025  0.2840 -0.1021
26120W        W41251  14.785  14.027   1.611  0.1830  0.0268  0.0389
26121W        W41252  14.545   3.470  13.376  0.1927  0.2170  0.0838
26122W        W41253  14.080   7.813   2.039  0.1966  0.0549  0.0488
26123W        W41254   6.792  16.502  12.592 -0.4096  0.1207 -0.1103
26124W        W41255  13.743   3.766   3.108  0.1093  0.0401 -0.3767
26125W        W41256  16.555   6.636  12.949 -0.1524 -0.0314  0.1727
26126W        W41257   4.431   5.235   1.250 -0.1316 -0.0395  0.1508
26127W        W41258  11.775   8.762   0.511 -0.0386  0.0851  0.0550
26128W        W41259  13.314  11.762  13.773  0.1633  0.2041  0.0311
26129W        W41260   9.686   8.241   6.152  0.1347  0.2256 -0.0905
26130W        W41261  12.953   8.493   2.217  0.1147 -0.1149 -0.0882
26131W        W41262   7.903   5.864   1.793  0.0740 -0.0318 -0.5394
26132W        W41263  16.441  15.159  15.080  0.1451  0.0767 -0.5816
26133W        W41264   2.699  17.098   2.658 -0.0763 -0.4523 -0.2900
26134W        W41265   8.739  17.501   2.505 -0.3026  0.0757  0.0503
26135W        W41266  11.167  10.684   2.942 -0.1929 -0.2571 -0.0412
26136W        W41267  11.951  14.755   2.829 -0.1941 -0.0668 -0.1222
26137W        W41268   3.823   4.963   1.134 -0.1562 -0.2772  0.0684
26138W        W41269  10.617  15.601  11.176  0.0711  0.1654  0.0509
26139W        W41270   1.298   4.051  11.269  0.0211 -0.0955  0.0676
26140W        W41271  10.650  17.225   5.391  0.0183 -0.0779 -0.0280
26141W        W41272   4.621  10.717   5.406  0.1268 -0.3991  0.0097
26142W        W41273   6.968   5.509   3.240 -0.3900  0.0972 -0.0042
26143W        W41274  14.744  11.971  12.088  0.2576  0.1167  0.4028
26144W        W41275  14.517   2.822   0.794 -0.2445 -0.0068  0.0574
26145W        W41276  13.859   3.147  13.515  0.2415  0.0973  0.0317
26146W        W41277   5.936   6.392   1.406  0.2076  0.1010  0.1081
26147W        W41278  12.985  14.703   1.921  0.0625 -0.0923 -0.1930
26148W        W41279   6.598   3.097   2.529 -0.0318 -0.3128 -0.3916
26149W        W41280   0.377   5.167   2.205 -0.4208 -0.3117 -0.0224
26150W        W41281  16.059   2.320  10.724  0.0360  0.0356 -0.2873
26151W        W41282   7.007   3.013  12.640  0.0403 -0.2238 -0.2443
26152W        W41283   9.477   3.793   0.348 -0.0098  0.0283 -0.0486
26153W        W41284   0.810   3.675  15.635 -0.1116 -0.0165  0.1854
26154W        W41285  15.539   7.522  15.143  0.1731 -0.2155 -0.0654
26155W        W41286  18.425   2.004  14.358 -0.1649 -0.1685  0.1313
26156W        W41287   8.180   0.442   0.042  0.0229  0.0282  0.1090
26157W        W41288  10.908   2.703   1.019  0.1685 -0.2141  0.1743
26158W        W41289   3.020  14.786  12.124 -0.0169 -0.3448 -0.2937
26159W        W41290   4.337   0.300  12.440 -0.0872 -0.2595  0.0367
26160W        W41291  15.580   6.811  14.567  0.1772 -0.2792  0.0010
26161W        W41292  17.300  17.198   4.114 -0.0612 -0.1986 -0.0358
26162W        W41293  15.395  11.959   2.409 -0.1234  0.2060  0.2840
26163W        W41294   8.291   0.664   0.570  0.0604 -0.1422 -0.3150
26164W        W41295  17.237  13.710  15.133  0.4273  0.0456  0.4859
26165W        W41296  10.395  10.667   4.282  0.0960 -0.2819  0.5042
26166W        W41297  13.841  17.397   2.958 -0.0868 -0.2973 -0.0808
26167W        W41298   9.986   8.522   3.924  0.1938  0.0599  0.3369
26168W        W41299  13.360   8.907   3.730  0.0321  0.1330  0.2485
26169W        W41300   4.668   8.350   2.759  0.3523 -0.1212  0.0762
26170W        W41301  11.106  15.949   3.726 -0.0732 -0.1123  0.4166
26171W        W41302   0.652  13.614   3.039  0.0203  0.0936  0.0135
26172W        W41303   2.298   8.184  14.870  0.0598  0.1164  0.3167
26173W        W41304  11.661  10.165  14.035  0.0821  0.1940 -0.1739
26174W        W41305   7.666   7.305  11.177 -0.0858  0.0148  0.1828
26175W        W41306   4.121  13.297  13.954  0.0015 -0.1833  0.2045
26176W        W41307  16.596  16.460   0.391 -0.0654  0.1819 -0.0190
26177W        W41308   5.417   9.453  15.826 -0.2072  0.0940 -0.0320
26178W        W41309   8.948   5.380  12.370  0.0004  0.0394 -0.0817
26179W        W41310  10.216  17.987  13.517  0.2910 -0.3789  0.1916
26180W        W41311  12.377   6.954   3.101 -0.2259 -0.0616 -0.1325
26181W        W41312   5.520  17.038  12.936 -0.1024  0.3738  0.0080
26182W        W41313  11.361  16.445   3.838  0.1559 -0.0405  0.2677
26183W        W41314  13.318  17.238   2.881  0.0932  0.0989  0.1851
26184W        W41315  13.435   8.883   3.212  0.1205  0.1038  0.3281
26185W        W41316   2.017   6.351   1.768 -0.1465 -0.1632  0.0778
26186W        W41317  14.824  17.559  12.535  0.1852  0.3218 -0.2534
26187W        W41318   8.161  15.653  15.490 -0.1110 -0.2892  0.1370
26188W        W41319   0.712   4.007   2.469 -0.1303  0.2752  0.2362
26189W        W41320   3.709   7.822   1.784 -0.0691  0.1299 -0.0019
26190W        W41321   1.142  10.018  15.677 -0.2294  0.1996  0.0391
26191W        W41322   1.488  17.884   3.631 -0.0013  0.3419 -0.2955
26192W        W41323  17.661  14.710   4.910  0.1422 -0.0282  0.1690
26193W        W41324   9.911  15.645   4.638  0.0884  0.3766  0.0454
26194W        W41325   7.906  16.005  12.071  0.0016  0.3479  0.1258
26195W        W41326  14.050   9.452   2.118  0.1375 -0.0220  0.0869
26196W        W41327   5.202  11.962   5.402  0.0795 -0.2273  0.1889
26197W        W41328   3.702  10.263   5.389  0.5469 -0.1216  0.3035
26198W        W41329   1.568  16.829  10.113 -0.0082  0.1237 -0.0040
26199W        W41330   5.840   3.949  14.697  0.0985 -0.1269 -0.1554
26200W        W41331   3.877   4.175   1.927 -0.0691  0.0200  0.3837
26201W        W41332   9.948   7.826   2.919 -0.2762 -0.2459 -0.3419
26202W        W41333  14.164   2.532   2.494 -0.2934 -0.1193 -0.2366
26203W        W41334   7.597   2.544   4.630  0.4518  0.1692 -0.2178
26204W        W41335  10.643  14.966   3.335  0.1000  0.2415 -0.1399
26205W        W41336  13.007   9.223  13.610  0.1845 -0.2438  0.1650
26206W        W41337  16.936  13.811   2.423 -0.0961  0.0881  0.0667
26207W        W41338  16.608   9.691   4.951  0.0115  0.0440 -0.0828
26208W        W41339  16.012  14.314  13.222  0.0721  0.1838 -0.3359
26209W        W41340   2.718  17.547  13.198 -0.0070 -0.1207  0.1784
26210W        W41341   2.109   8.289   4.694 -0.1854  0.0100  0.1323
26211W        W41342  10.125  13.740   4.192  0.2891  0.1548  0.1256
26212W        W41343   9.621   1.144   5.328  0.1940  0.3697  0.3875
26213W        W41344  10.132   1.614  12.899  0.0060  0.1574 -0.2960
26214W        W41345  17.072   6.481   3.511  0.0196  0.1754 -0.1746
26215W        W41346  14.505  16.689   1.038 -0.1221  0.1052 -0.0578
26216W        W41347   2.460  15.451  10.422 -0.0748  0.0062  0.0289
26217W        W41348  11.630  15.543  12.052  0.1575  0.1697 -0.1222
26218W        W41349   9.997  13.977   0.839  0.2443  0.2273 -0.1124
26219W        W41350  11.963   5.961   1.818 -0.1760 -0.2700 -0.2981
26220W        W41351  15.204  14.547   3.233  0.0763  0.1526 -0.0612
26221W        W41352   4.711  12.173   5.445  0.2640  0.0124  0.2980
26222W        W41353  12.012   0.171  11.778 -0.3119  0.2090 -0.2240
26223W        W41354  11.209   0.245  13.065 -0.0607 -0.0013 -0.1301
26224W        W41355   5.377   8.048   0.417 -0.1054 -0.1959 -0.1947
26225W        W41356   9.409  14.016   4.825 -0.0650  0.1771  0.1869
26226W        W41357  16.739  14.486   2.126  0.1102 -0.1580 -0.3688
26227W        W41358   5.776  11.591  11.827  0.2024 -0.0136 -0.0536
26228W        W41359   0.815   4.518  11.936  0.0140  0.1098  0.0761
26229W        W41360  13.121   6.125   3.568 -0.1854 -0.2034 -0.1299
26230W        W41361  16.072  14.160   3.210 -0.0056  0.0083 -0.0558
26231W        W41362  16.768  16.665   5.425 -0.1206 -0.0249  0.2745
26232W        W41363  17.553  17.039   3.705 -0.2092  0.0347  0.3977
26233W        W41364  16.692   3.363   3.061  0.1285  0.2776  0.1920
26234W        W41365   0.636   1.642   0.418  0.3154  0.1179 -0.0418
26235W        W41366  12.347  10.179   4.480  0.0736  0.2490 -0.1498
26236W        W41367  16.495  16.418  10.900 -0.1043 -0.3586  0.3258
26237W        W41368   0.112  17.106  14.779 -0.2091 -0.0593 -0.1752
26238W        W41369  11.422   2.252  13.535 -0.2308 -0.4069  0.0424
26239W        W41370  18.220   5.974  11.444 -0.1928  0.0301  0.2565
26240W        W41371  13.272   5.418  10.886 -0.0770  0.3036  0.4428
26241W        W41372  17.244   4.511  11.587 -0.0668 -0.2294  0.2976
26242W        W41373   9.609  13.616  15.714  0.0353  0.1973 -0.0990
26243W        W41374   3.302   3.547  11.484  0.0963  0.0475 -0.0825
26244W        W41375  16.181   2.166  13.895 -0.3198  0.1005 -0.3008
26245W        W41376   9.846  16.293   0.345 -0.4183 -0.0849 -0.0617
26246W        W41377   3.690  18.145  15.461  0.3124  0.0027  0.1107
26247W        W41378   5.086  14.838  10.555  0.1039  0.0011 -0.1192
26248W        W41379   9.765  13.717   4.566 -0.2595 -0.3769 -0.1401
26249W        W41380   7.649   2.076   1.628 -0.1200 -0.1289 -0.0721
26250W        W41381   5.955  12.138  15.668  0.1214 -0.3073  0.0717
26251W        W41382  10.025  17.803   1.004  0.2202  0.3501  0.0867
26252W        W41383  12.085   3.575   0.647 -0.2418  0.0511  0.3213
26253W        W41384   6.449  17.635   3.772  0.3339  0.0292  0.0762
26254W        W41385   2.941  11.187   2.941  0.1262 -0.1125  0.3260
26255W        W41386   8.699  18.251   3.938  0.1649  0.2521  0.0472
26256W        W41387   3.753  18.140   4.116 -0.0700  0.2942  0.0831
26257W        W41388   9.391   8.933  11.789 -0.0200 -0.0460  0.1283
26258W        W41389  16.053  12.153  12.394 -0.2511  0.1689  0.3272
26259W        W41390   7.898   5.230   5.863  0.1333  0.0429  0.0649
26260W        W41391   5.941  11.085   5.811  0.2141 -0.0065  0.0052
26261W        W41392   9.059   1.927  11.782  0.2742  0.2626  0.0314
26262W        W41393   8.286   0.216  14.789  0.1609  0.4467 -0.4916
26263W        W41394  12.691  13.023   0.696 -0.2887  0.1108 -0.3120
26264W        W41395  16.586   4.438  15.884  0.2128  0.1891  0.0035
26265W        W41396  13.889   5.448  12.605  0.4698 -0.2823 -0.1980
26266W        W41397   7.590   0.360   0.004 -0.2886 -0.1407  0.1520
26267W        W41398  14.439  15.532   1.295  0.0381 -0.0563 -0.3581
26268W        W41399   2.398   1.367   4.094  0.4383 -0.2311 -0.3935
26269W        W41400   9.173  13.714  15.892  0.1427  0.2348  0.0575
26270W        W41401   6.741   4.931  12.451  0.1949  0.3815  0.2776
26271W        W41402  11.902   7.277  12.746  0.0012  0.0445  0.0629
26272W        W41403   9.043  16.628  15.555 -0.3548 -0.1183  0.0404
26273W        W41404   4.821   1.275   3.924 -0.2346  0.2059 -0.1732
26274W        W41405   4.183  10.679   0.063  0.1581 -0.0890  0.1677
26275W        W41406   6.249   5.911   0.396 -0.2579 -0.3977  0.0968
26276W        W41407   0.780   4.868  13.904 -0.2442  0.2095  0.3061
26277W        W41408  10.247   4.966  15.370  0.0236 -0.0640  0.3418
26278W        W41409   1.386  17.080   9.690 -0.0348  0.0495 -0.1622
26279W        W41410   1.935   5.696  12.431 -0.1999  0.0027 -0.2841
26280W        W41411   9.786   9.037   5.147  0.0964  0.1886  0.1230
26281W        W41412  12.190  13.750  16.089  0.0979  0.2134  0.0571
26282W        W41413   3.504   2.405  12.393  0.1606 -0.0003  0.1025
26283W        W41414  14.044   5.412  13.113 -0.2515 -0.0573  0.0259
26284W        W41415  10.909  13.424  14.444 -0.1403  0.0209  0.0907
26285W        W41416  18.009  11.381  13.205 -0.2364 -0.5752 -0.0787
26286W        W41417  17.390  12.625  10.904 -0.3169  0.0374 -0.2318
26287W        W41418  16.269  11.514  11.608  0.2678 -0.1261 -0.0171
26288W        W41419  17.113   4.492  11.132  0.0864  0.2474 -0.2035
26289W        W41420   6.609   7.329  11.782 -0.0458  0.0328 -0.1408
26290W        W41421  15.842  11.801  11.559 -0.1239  0.2074  0.1856
26291W        W41422   1.522   6.352   4.731 -0.0364  0.2828 -0.2428
26292W        W41423   5.822   2.090   4.444 -0.0186 -0.0415  0.1709
26293W        W41424   6.762  12.610   4.777  0.0379 -0.0188  0.1961
26294W        W41425  17.930  17.687   9.806  0.0184 -0.1615  0.2028
26295W        W41426   3.737   8.681  14.006 -0.1059 -0.2979 -0.0758
26296W        W41427  17.390  13.054   3.133 -0.0035  0.1350  0.1790
26297W        W41428  15.405   2.341  14.244 -0.2948 -0.0076  0.1220
26298W        W41429   8.695  13.920   4.398  0.3773  0.0843  0.4246
26299W        W41430   5.146  10.340   2.832  0.1870  0.1214  0.1617
26300W        W41431   1.925   2.149   2.164  0.0010  0.0937 -0.0460
26301W        W41432  15.038  17.099   2.621 -0.0418 -0.3925  0.0877
26302W        W41433   4.653  11.028   0.981 -0.0359  0.0720 -0.0291
26303W        W41434   8.826  10.856  13.444  0.0061 -0.0642 -0.1127
26304W        W41435   8.638  13.214   5.036  0.2459 -0.0918  0.1398
26305W        W41436   7.642  11.690  13.262  0.2196  0.1801  0.0645
26306W        W41437  13.423  16.533   1.625 -0.3136  0.3008 -0.2961
26307W        W41438   5.503  14.846  11.050 -0.0976 -0.0379 -0.0128
26308W        W41439   0.833   0.200  13.236  0.0285  0.1380 -0.0567
26309W        W41440  17.641  16.670  13.247 -0.0770  0.1817 -0.2545
26310W        W41441   5.982  14.949   3.276  0.0486  0.0915  0.1784
26311W        W41442  13.297   4.509  13.683  0.2074  0.1108  0.3249
26312W        W41443   7.863  15.616  11.042 -0.1182  0.2091  0.2513
26313W        W41444   8.502   9.040   1.295  0.1836 -0.2467  0.1748
26314W        W41445   1.905  15.704  14.666 -0.1881 -0.0048  0.1525
26315W        W41446   8.953   2.572   6.052 -0.2289 -0.0948  0.1678
26316W        W41447   6.904   0.812   4.689 -0.0918  0.0038  0.1466
26317W        W41448  16.617   7.846   3.922 -0.5136 -0.0453 -0.2364
26318W        W41449  10.048   2.008  11.239  0.0755 -0.1512 -0.0032
26319W        W41450  12.343   6.388   3.087 -0.2902 -0.1654  0.1728
26320W        W41451   1.653   6.902  15.023  0.4653 -0.1428  0.0672
26321W        W41452  13.363  13.818   2.264  0.3947  0.0105 -0.1242
26322W        W41453  16.834   5.989  13.943  0.2877  0.2890 -0.3680
26323W        W41454  13.942   7.194  13.737 -0.0791  0.0543  0.0237
26324W        W41455   1.767  11.803  15.210 -0.2127 -0.0423 -0.3061
26325W        W41456   4.581   2.832  14.041 -0.1815  0.0132  0.1260
26326W        W41457   1.372  18.412  13.509  0.2350  0.1337  0.2727
26327W        W41458   7.430   1.053   1.176 -0.0564 -0.0413  0.0379
26328W        W41459  12.273   9.330   3.351 -0.0778 -0.2449 -0.2367
26329W        W41460   2.664  14.399   3.562  0.0765  0.2340  0.4077
26330W        W41461  13.777  14.771  10.806  0.2863 -0.0645 -0.0643
26331W        W41462  18.406   3.448  12.426  0.3225 -0.1624  0.2773
26332W        W41463   8.061   1.192   1.826  0.0097 -0.0535 -0.4135
26333W        W41464  12.440   9.342  15.682  0.1275 -0.2942 -0.1992
26334W        W41465   6.451  13.251   4.116  0.0297  0.2718 -0.2095
26335W        W41466   9.323  12.850   1.444  0.1247 -0.1489  0.2132
26336W        W41467   0.380   2.612  12.680  0.1309 -0.1687  0.3128
26337W        W41468   1.651  13.742  11.449  0.0139 -0.0251  0.0779
26338W        W41469   9.612  10.883  14.538 -0.1162  0.2073 -0.0626
26339W        W41470  14.081  17.924  15.976 -0.0253  0.0933 -0.1066
26340W        W41471   8.168   5.637   2.193  0.3071  0.0968  0.2594
26341W        W41472   5.326   8.409   1.649 -0.1876 -0.1403 -0.2409
26342W        W41473  12.670   4.117  13.165 -0.0973  0.1640  0.2431
26343W        W41474  17.331   4.665   5.890 -0.2435 -0.3796  0.1859
26344W        W41475  15.389  15.875  13.295 -0.0234  0.0586  0.0241
26345W        W41476   3.403  17.198  12.522  0.0961 -0.2224  0.0833
26346W        W41477  10.611  17.645  13.045 -0.2341  0.1721 -0.1933
26347W        W41478   3.802   5.399  13.345  0.1858 -0.0154  0.0670
26348W        W41479   3.468   4.239   5.129 -0.0522  0.1332  0.1254
26349W        W41480   8.314   5.739   2.660  0.2506  0.0152  0.0489
26350W        W41481  14.913   0.458   2.005 -0.2505  0.2212 -0.3060
26351W        W41482  17.012   2.527   3.668 -0.0447  0.3867  0.1300
26352W        W41483   7.828  13.461  15.260 -0.3232 -0.0736  0.0328
26353W        W41484   8.812  12.276  15.622  0.1264 -0.0733 -0.0682
26354W        W41485  18.416   1.480   1.477  0.0791 -0.1176 -0.3719
26355W        W41486  15.048   4.207   0.583 -0.0612  0.2518  0.1015
26356W        W41487  14.591  18.387  13.070 -0.3426  0.0399 -0.0459
26357W        W41488   9.946   1.958  13.513  0.3479  0.3501  0.1217
26358W        W41489  15.884  10.102  12.550 -0.1149  0.3573  0.1071
26359W        W41490  16.206   2.065  15.055 -0.1141  0.0740 -0.0384
26360W        W41491   9.587   9.336   5.570  0.1616  0.0372 -0.0694
26361W        W41492   4.605   5.819  15.821  0.1914  0.0296  0.1667
26362W        W41493   0.872  15.432   4.912 -0.0129 -0.3858 -0.1685
26363W        W41494  12.317  12.098   4.874  0.1432  0.0408 -0.0290
26364W        W41495  11.584  16.431  12.952 -0.1691  0.3729  0.0967
26365W        W41496  11.012   8.005  13.466 -0.1656  0.2428  0.3086
26366W        W41497   2.492   6.064  11.741  0.0060 -0.1919  0.2299
26367W        W41498  13.152  14.593   4.866  0.0481 -0.0662  0.0027
26368W        W41499   1.167   8.882   5.804 -0.0784 -0.0794 -0.0160
26369W        W41500   8.426   2.544  11.257 -0.0414 -0.4609 -0.0297
26370W        W41501   7.659  14.999  12.970 -0.1893  0.1754  0.0129
26371W        W41502  11.825   9.423   3.074  0.1136  0.2955  0.0343
26372W        W41503   7.532  10.144  14.971  0.0162 -0.1767  0.3920
26373W        W41504   6.967   2.938   5.555  0.1434 -0.4667  0.2714
26374W        W41505   8.817   3.705   3.907  0.2312 -0.0575  0.1520
26375W        W41506   2.081   8.701   2.383 -0.3214 -0.0628  0.0710
26376W        W41507  10.187   2.516   1.743 -0.0795 -0.1509  0.1963
26377W        W41508   8.136  12.601  12.861 -0.2012 -0.0837 -0.1472
26378W        W41509   9.394  10.970   5.478 -0.1262 -0.0895  0.0483
26379W        W41510  12.336  17.337   2.395 -0.0063  0.2183 -0.1922
26380W        W41511   4.814  14.407  15.957 -0.0512  0.1115 -0.1992
26381W        W41512  11.245   1.899   0.813 -0.1633  0.3773 -0.0459
26382W        W41513   7.563  15.641   1.618  0.0209  0.5152  0.0574
26383W        W41514  13.487  11.796  11.521  0.0218 -0.6170  0.0589
26384W        W41515   3.794  15.891  11.977 -0.0154 -0.0210  0.2577
26385W        W41516  15.100   7.783  13.373 -0.0527 -0.1759  0.1525
26386W        W41517   3.394  10.521   3.585 -0.2299 -0.2594  0.1747
26387W        W41518  17.872   2.927  15.807 -0.0601 -0.0900 -0.0198
26388W        W41519  15.390  15.905   1.478 -0.3082  0.2276  0.1721
26389W        W41520  17.041   8.628   4.008  0.1397  0.0211 -0.0334
26390W        W41521  10.968  11.579   0.260 -0.2756  0.2355  0.4197
26391W        W41522   2.872  15.879  15.557  0.3662  0.5162 -0.2518
26392W        W41523   7.565   8.053  10.410 -0.0384 -0.0828  0.0279
26393W        W41524   2.650   0.752   0.388 -0.2125 -0.0666  0.0746
26394W        W41525   9.268   7.186  13.199  0.0186  0.0225 -0.0103
26395W        W41526  14.413   0.313   2.117  0.0820  0.2194 -0.2786
26396W        W41527  12.285  10.391  14.638 -0.0684 -0.0682 -0.2095
26397W        W41528  17.772  12.687   0.195  0.2092  0.2220  0.3403
26398W        W41529  16.982  18.037  11.534 -0.2896 -0.1253  0.0035
26399W        W41530   6.735   1.288  14.932 -0.2303 -0.1233  0.1566
26400W        W41531   2.622  16.238  12.312  0.3410  0.0939 -0.0448
26401W        W41532  12.058  12.708  12.020 -0.3434  0.0157  0.3127
26402W        W41533   5.994   1.681   1.476  0.2127 -0.2217  0.0187
26403W        W41534   5.450  13.624  13.191  0.0494 -0.1260  0.0901
26404W        W41535   7.222   0.421  14.963  0.1912 -0.2039 -0.0131
26405W        W41536  12.790  11.693   1.123 -0.0106 -0.0919  0.2301
26406W        W41537  15.000   3.728   0.790  0.0456 -0.0214 -0.0075
26407W        W41538   3.368  12.577  11.685  0.1685  0.2926 -0.1080
26408W        W41539   1.600   0.585   2.312 -0.2853 -0.0329  0.0299
26409W        W41540  11.342   5.297  13.530  0.0778  0.1973 -0.1842
26410W        W41541   7.077   3.177   4.891 -0.2370  0.5182  0.1326
26411W        W41542   6.633   7.825  15.884  0.0169  0.0052 -0.0540
26412W        W41543   6.162  14.217   3.766  0.0059  0.1689  0.1042
26413W        W41544   5.348  10.802   1.571 -0.1076 -0.1408 -0.0304
26414W        W41545   6.697   0.545   4.293  0.0232 -0.0776  0.2130
26415W        W41546   1.873  16.673  12.690  0.0072 -0.1559 -0.0063
26416W        W41547  12.778  15.771  11.705  0.1271  0.1496 -0.1780
26417W        W41548   2.589   8.511   4.411  0.1899  0.1630  0.1468
26418W        W41549  11.929  15.171  12.237 -0.2979 -0.0484  0.1323
26419W        W41550  13.540  18.215   5.031  0.0366  0.0178 -0.1653
26420W        W41551  15.623  12.097   3.756  0.1348  0.3252  0.1530
26421W        W41552  15.910   0.929  12.385  0.6425  0.2947 -0.1942
26422W        W41553   5.895  13.681  10.729 -0.1734 -0.0580 -0.1142
26423W        W41554   2.471   6.567  14.306  0.3249  0.0964  0.0531
26424W        W41555   2.432   0.822  15.298  0.3655 -0.0420 -0.1894
26425W        W41556  11.471   2.741   5.995  0.0615 -0.0064  0.0281
26426W        W41557   3.751  16.370  14.188  0.1207  0.5737 -0.1504
26427W        W41558  13.100   8.330   2.629 -0.2198  0.3058  0.1121
26428W        W41559  11.575  14.692   0.398 -0.2586 -0.2648 -0.0493
26429W        W41560   7.989   0.400   2.750 -0.1947 -0.1355  0.1968
26430W        W41561   6.854   4.046  13.757 -0.1201  0.1034 -0.0251
26431W        W41562   4.998  15.374   4.982 -0.1898  0.1624 -0.0674
26432W        W41563   5.385  15.203   1.594  0.1948 -0.0780 -0.3981
26433W        W41564   7.823  17.030  15.304  0.2455 -0.2119 -0.2475
26434W        W41565  15.826   6.325   3.725 -0.0677 -0.1244  0.1556
26435W        W41566   9.746   9.881   4.063  0.0498  0.0753 -0.1029
26436W        W41567  13.150   1.139  11.751 -0.0855 -0.2094  0.1757
26437W        W41568  16.033  16.289   1.141 -0.0245 -0.1211 -0.0230
26438W        W41569   6.697   8.309   0.481  0.3424  0.1219 -0.1799
26439W        W41570   7.126   1.340   3.178  0.0760 -0.3680 -0.1890
26440W        W41571   6.745   8.728  11.692  0.0016  0.0152 -0.0900
26441W        W41572  14.611   3.761  12.514 -0.0062 -0.1984 -0.1646
26442W        W41573   1.986  17.648  12.057  0.0521  0.0462 -0.0293
26443W        W41574   6.007   0.424   0.077 -0.1190 -0.2222  0.0643
26444W        W41575  13.012   6.091   2.633 -0.1518 -0.1696 -0.3513
26445W        W41576   7.307   3.637   2.975 -0.1380  0.2622 -0.1116
26446W        W41577   1.403  18.454   2.248  0.2106  0.0615  0.1392
26447W        W41578   4.304   5.817   4.292  0.1283 -0.0563 -0.2455
26448W        W41579   8.133  13.065   2.376  0.0003  0.0046  0.0090
26449W        W41580   7.732   9.320  10.737  0.0173 -0.2728 -0.0180
26450W        W41581   5.912  18.299   1.360 -0.2148  0.0649 -0.1563
26451W        W41582   0.761  13.473  11.005 -0.0638  0.1658  0.0210
26452W        W41583   5.997   5.111   3.142 -0.1399  0.3061 -0.1113
26453W        W41584  14.947  17.983   4.739 -0.0026 -0.1239 -0.3633
26454W        W41585  11.708  15.275  11.142  0.0841  0.1296 -0.0686
26455W        W41586  12.451  11.685   4.327  0.0533  0.0598  0.1170
26456W        W41587  10.018  14.508  12.220  0.1147  0.0849 -0.0480
26457W        W41588  12.337   4.835  15.457 -0.3055 -0.2541  0.1543
26458W        W41589  11.801   8.985   1.369  0.0289  0.4284  0.2795
26459W        W41590   1.256   8.775   0.349 -0.1193  0.0865 -0.1302
26460W        W41591   9.397  17.732   0.147 -0.1339  0.1520  0.0453
26461W        W41592  12.544  12.923  10.039 -0.0611 -0.2233 -0.0145
26462W        W41593   1.803  17.699  13.303  0.1119 -0.1337 -0.0259
26463W        W41594   8.309  13.248   2.776  0.4729 -0.1948  0.0264
26464W        W41595   8.667   5.047  15.272  0.2734 -0.2129  0.2083
26465W        W41596  17.422  13.923   2.610  0.6571  0.0215 -0.1783
26466W        W41597   9.909   0.911   1.923  0.1268 -0.4255  0.0642
26467W        W41598  17.461   9.212   2.454  0.0124 -0.2970 -0.0879
26468W        W41599   4.845  17.037   4.630  0.0964  0.1561  0.0284
26469W        W41600  11.949  16.288  13.267 -0.2001 -0.2352 -0.0231
26470W        W41601  16.775   7.378   1.308  0.2070  0.1699  0.2779
26471W        W41602   9.416   0.558   5.211  0.0170  0.2082  0.2147
26472W        W41603  12.111  16.670  12.923  0.0189 -0.2934 -0.1185
26473W        W41604   0.179  14.122  15.572 -0.0911 -0.1479  0.1447
26474W        W41605   4.175  18.431   2.909  0.3053  0.0056  0.0031
26475W        W41606   6.520  18.369  13.799  0.2052  0.1428 -0.2279
26476W        W41607  14.623   4.790   3.724  0.0369  0.0572  0.0003
26477W        W41608   6.954   7.223   3.684  0.1597 -0.0396 -0.1211
26478W        W41609  11.530   3.663   5.713 -0.1703  0.1400  0.0691
26479W        W41610   2.553  11.977  16.093 -0.1240 -0.0030 -0.1064
26480W        W41611   7.147  16.713   2.284 -0.1906 -0.0754 -0.0867
26481W        W41612  13.249   2.005  12.419 -0.1042 -0.2506 -0.2499
26482W        W41613  11.022   6.520   6.389  0.1158 -0.2749 -0.1653
26483W        W41614  15.497  15.540  15.410  0.0103  0.1706 -0.3767
26484W        W41615  18.435  13.474   5.856 -0.3295  0.0195  0.2063
26485W        W41616  12.624   7.005  11.380  0.4081 -0.1759 -0.0489
26486W        W41617  15.770  14.590  11.220 -0.0199 -0.4358 -0.1118
26487W        W41618  14.900   5.077  12.517 -0.1315  0.1124 -0.0280
26488W        W41619  14.306   9.811  15.212  0.0197 -0.3680 -0.0395
26489W        W41620   1.221  14.951   2.212  0.2200 -0.0177  0.1684
26490W        W41621   9.797  15.944  15.010 -0.1425 -0.0803 -0.0420
26491W        W41622   0.185   2.378  14.174 -0.1236  0.4303  0.4452
26492W        W41623  17.070   6.422  12.934 -0.1312 -0.1835 -0.2485
26493W        W41624  15.874  14.195  14.688 -0.1445 -0.1987 -0.0064
26494W        W41625   1.851  14.834   3.760  0.1446  0.1948 -0.1431
26495W        W41626   1.687  17.331  10.548 -0.0581 -0.0983  0.2312
26496W        W41627  12.108   9.950  13.935 -0.0834 -0.4111  0.0669
26497W        W41628  11.841   3.702  11.781 -0.0763 -0.2063 -0.0321
26498W        W41629  15.939  11.834   1.252  0.1045  0.3202  0.0215
26499W        W41630  18.330   4.036  11.241 -0.4470 -0.1239  0.0960
26500W        W41631  13.764   3.357  14.649  0.3085 -0.1116 -0.4168
26501W        W41632   3.258   1.287  14.001  0.0108 -0.3176  0.1193
26502W        W41633   6.961  12.745   1.418  0.0615 -0.2265 -0.0588
26503W        W41634   1.888   7.567   5.055 -0.2421  0.0453  0.4320
26504W        W41635  10.155  16.281  14.062  0.0786 -0.2836  0.0892
26505W        W41636   2.965  11.907  10.629 -0.0495 -0.1315  0.1788
26506W        W41637   1.656  12.170   0.174  0.1066 -0.2295 -0.2045
26507W        W41638   4.944  10.013   3.261 -0.2532 -0.0675  0.0075
26508W        W41639  15.792   4.726   4.523  0.2502 -0.1431  0.0485
26509W        W41640   1.269   7.957   4.635 -0.3686 -0.1775  0.1645
26510W        W41641  11.644  15.614   0.713 -0.1100 -0.0035  0.3004
26511W        W41642  11.287   5.243   2.334 -0.0786 -0.2377 -0.3298
26512W        W41643   8.759  16.202   0.710  0.0844 -0.0453  0.0967
26513W        W41644   8.224   3.817   0.789  0.2189 -0.0669 -0.2344
26514W        W41645   6.758  17.351  12.112 -0.0899 -0.0739 -0.0996
26515W        W41646   0.313  14.564  15.734  0.0745 -0.1747  0.1248
26516W        W41647   8.733  17.171  13.468  0.0042  0.0484  0.3787
26517W        W41648   3.440  12.868  12.052 -0.1257  0.0311 -0.0940
26518W        W41649  14.873   0.304  16.083  0.1914 -0.2211 -0.0749
26519W        W41650  16.189   7.559   4.881  0.0812  0.0881  0.5985
26520W        W41651  10.373   7.058   1.774  0.1685 -0.1416 -0.0728
26521W        W41652  12.174   8.477  13.477 -0.3151 -0.0187 -0.0998
26522W        W41653   0.344  10.088  12.978 -0.1152 -0.1770  0.1506
26523W        W41654   9.715  15.525  11.243 -0.0127  0.0750 -0.0395
26524W        W41655   7.046  17.145  15.980 -0.2128  0.0876  0.1291
26525W        W41656  13.157   7.181   1.395 -0.2183 -0.1660  0.0395
26526W        W41657   8.581   3.343   3.612 -0.2899  0.2184  0.1192
26527W        W41658   3.401   7.499  12.153 -0.2085  0.2202 -0.1612
26528W        W41659  13.102   3.611  11.899 -0.2308  0.3591  0.1546
26529W        W41660  10.693   9.180  11.500  0.1094  0.3925  0.0355
26530W        W41661  12.571   7.222   0.063 -0.1222  0.1177  0.1685
26531W        W41662  10.712   4.821  12.131 -0.0463 -0.0792  0.2497
26532W        W41663  17.484   2.786  13.583  0.3868  0.0213  0.1636
26533W        W41664  14.884  15.191  10.262  0.0374 -0.1572  0.1084
26534W        W41665  15.427  13.089   1.839  0.0457 -0.3186 -0.0647
26535W        W41666  14.562  16.215   4.240 -0.3321 -0.1882  0.1996
26536W        W41667  14.013   1.815   3.514 -0.1051  0.3043 -0.3144
26537W        W41668  14.478   6.667  15.501  0.1500  0.1041 -0.3142
26538W        W41669   5.004  11.226   3.788  0.0942 -0.0064 -0.2179
26539W        W41670   8.587  17.900  14.097 -0.2521 -0.0139 -0.3424
26540W        W41671   6.173   8.190   5.005  0.0647 -0.2231  0.2126
26541W        W41672  17.167  17.913   1.551 -0.0030 -0.0530  0.1988
26542W        W41673   3.009  13.607  12.640 -0.1251  0.0695 -0.0317
26543W        W41674   2.577  16.641   3.750  0.0680  0.0114  0.0478
26544W        W41675   3.265  11.904   4.915  0.0262 -0.1597  0.1198
26545W        W41676   7.424   6.618   5.477 -0.2049  0.1030 -0.1969
26546W        W41677  10.120   8.372  15.685  0.1399  0.0934  0.1512
26547W        W41678  17.935   4.096  10.933 -0.2939  0.3644  0.3821
26548W        W41679   6.925  17.737  15.492 -0.1797 -0.4206  0.0460
26549W        W41680   8.680   3.935   0.028 -0.0972 -0.4725  0.3275
26550W        W41681   2.796  13.918  12.272 -0.1171 -0.1643  0.0556
26551W        W41682   5.137   0.236  12.573 -0.3783  0.1345  0.0296
26552W        W41683   0.689  10.327   1.926 -0.0518  0.0736  0.1735
26553W        W41684  11.707   6.463  12.794  0.3228 -0.2949 -0.0187
26554W        W41685   9.621  15.735   1.787 -0.0647 -0.0351 -0.1444
26555W        W41686  16.710  14.037   1.833 -0.1134  0.3093 -0.1503
26556W        W41687   4.767  14.235  12.083 -0.2706 -0.1227  0.0655
26557W        W41688   3.091  16.387  11.957  0.2869  0.2946  0.0496
26558W        W41689  18.364  18.166  14.857  0.1956 -0.3532 -0.0740
26559W        W41690   2.701  13.461   3.647 -0.1426  0.2378 -0.0954
26560W        W41691   5.630  14.769  13.485 -0.0372  0.0622  0.1979
26561W        W41692   8.009   8.330   3.887  0.1205 -0.1071  0.2671
26562W        W41693  14.045  18.280  13.999 -0.2349  0.0869  0.0441
26563W        W41694  14.132  10.361   3.793 -0.0631  0.0533 -0.5022
26564W        W41695  11.299  12.121  12.688  0.0914  0.0095 -0.2372
26565W        W41696   6.739  13.886  12.655 -0.0693 -0.1718 -0.1281
26566W        W41697  12.976   5.225   1.139 -0.0566  0.2312 -0.1429
26567W        W41698   5.633   6.557   2.074  0.3221 -0.5094  0.3204
26568W        W41699  17.181   0.686   2.120 -0.0624 -0.2073 -0.1439
26569W        W41700   8.753  18.003  13.660 -0.3310 -0.0992  0.1924
26570W        W41701   6.603  15.730  15.833 -0.5981  0.1190  0.0332
26571W        W41702   3.935  10.842   6.370  0.1670 -0.2121  0.0278
26572W        W41703  10.947   2.051   5.238  0.3536 -0.0009 -0.1012
26573W        W41704  10.196  18.220  10.995  0.0613 -0.0788 -0.1721
26574W        W41705  12.307  14.106  11.733 -0.1986  0.1809 -0.4356
26575W        W41706  16.220   1.388  15.665 -0.1243 -0.0298 -0.0145
26576W        W41707  11.074   4.032   3.966  0.0472  0.1642  0.0081
26577W        W41708  11.532   6.354   5.630 -0.1065 -0.1998 -0.1086
26578W        W41709   5.225  11.673  15.948 -0.1425 -0.3950 -0.2761
26579W        W41710   9.424  12.560   3.760 -0.0603 -0.1476  0.2078
26580W        W41711  16.889  16.888   2.474  0.1392 -0.0552 -0.0540
26581W        W41712   8.448   5.267   0.974 -0.1133 -0.0056 -0.0704
26582W        W41713   1.407   6.488  13.749 -0.0782 -0.0511  0.1766
26583W        W41714  14.364   9.303  15.297  0.0818  0.1334  0.3202
26584W        W41715   6.591   3.873  15.220  0.1723  0.2364 -0.1983
26585W        W41716  15.748   2.057  13.666  0.3804 -0.0716 -0.0042
26586W        W41717   8.751   5.559  14.552  0.0797 -0.0018 -0.1550
26587W        W41718  14.283  11.155   2.224 -0.3170 -0.0775  0.0568
26588W        W41719  14.832   7.425   2.161  0.1820 -0.1347 -0.3415
26589W        W41720   8.389  17.831  12.188 -0.0714  0.3790 -0.1804
26590W        W41721  13.657  10.221  14.585 -0.1234 -0.1611  0.1491
26591W        W41722  13.144  11.457  11.669 -0.0752  0.2432  0.2127
26592W        W41723   0.889  12.468  13.282  0.2432  0.1577  0.1237
26593W        W41724  14.359  14.071   2.944 -0.0776 -0.1778 -0.0193
26594W        W41725   4.572   2.438   3.359 -0.1134 -0.1374  0.2098
26595W        W41726  10.161   5.793   0.623 -0.0485  0.2503 -0.1695
26596W        W41727   1.143   0.689  14.932 -0.4050 -0.1347 -0.1119
26597W        W41728   5.372   2.382  15.089 -0.0346 -0.0010  0.1615
26598W        W41729   5.818   3.638  14.267 -0.3996 -0.1386  0.2030
26599W        W41730   4.361  14.483  11.773  0.1979 -0.1477 -0.0367
26600W        W41731  11.720   2.397   3.925  0.1103  0.0358 -0.0080
26601W        W41732   0.758   4.236   9.946 -0.0590 -0.1118  0.1382
26602W        W41733  12.103  13.424  12.737 -0.1936  0.0515  0.0817
26603W        W41734   9.784  13.960   3.731 -0.1993  0.0772 -0.0872
26604W        W41735  13.409   5.342  12.645  0.0379 -0.2741 -0.0729
26605W        W41736   7.240  14.273   2.774  0.2999 -0.1272 -0.0690
26606W        W41737   6.167   2.850  13.916  0.0918 -0.0593  0.1346
26607W        W41738  10.302   0.914   3.582  0.0946  0.1919  0.1577
26608W        W41739   6.294  10.282  13.077  0.3119  0.3553 -0.0194
26609W        W41740  11.224  11.569   1.990 -0.2675  0.0436  0.1557
26610W        W41741  10.035   4.032  15.670 -0.3242 -0.2310  0.3494
26611W        W41742  10.889  16.702   2.695  0.2805 -0.0330  0.0811
26612W        W41743   1.009   1.942   2.372  0.1380  0.1639  0.3295
26613W        W41744   7.717  17.929  15.684  0.1914  0.1835  0.1430
26614W        W41745   8.454  17.614  12.668  0.1197  0.3159  0.1605
26615W        W41746   8.880  12.369  14.543  0.5503  0.1637  0.0400
26616W        W41747  11.356   9.407  12.982  0.0812  0.1935  0.0188
26617W        W41748  10.449   0.757  15.517 -0.1730 -0.1119 -0.2081
26618W        W41749  13.525  13.369  13.138  0.1286 -0.2643  0.1362
26619W        W41750  17.662   6.852   0.680 -0.1043  0.0126  0.3043
26620W        W41751   4.605   7.842   0.904 -0.0892  0.0391 -0.0841
26621W        W41752  12.393  11.095  11.591 -0.1546  0.2027 -0.3145
26622W        W41753   6.391  14.900   5.298  0.2945 -0.0159  0.2887
26623W        W41754   4.791  13.402  12.405 -0.0217  0.2527  0.2979
26624W        W41755   0.540  10.694   4.510 -0.3776 -0.3055  0.1352
26625W        W41756  16.549   6.210   1.511  0.1403  0.2473 -0.0310
26626W        W41757  13.269   0.771  11.386  0.2324  0.0874  0.0878
26627W        W41758   4.856  13.295  13.283 -0.0338  0.1150  0.0924
26628W        W41759   4.605  14.038   5.588  0.0515 -0.2206 -0.3979
26629W        W41760   4.517  17.156   1.711 -0.0143  0.3245  0.3194
26630W        W41761  17.955  16.372  14.058  0.1608 -0.2329 -0.1778
26631W        W41762  10.989   3.954  14.782  0.2912 -0.0353 -0.0436
26632W        W41763  14.370   4.825   2.495 -0.0489  0.3116 -0.2796
26633W        W41764  13.326  17.023  12.068 -0.4706  0.0759 -0.0151
26634W        W41765  15.677  16.479  11.799  0.0396  0.1023 -0.1061
26635W        W41766  10.993   3.206  13.899 -0.2367  0.0516  0.0561
26636W        W41767  13.107  12.121   2.821 -0.0060 -0.1163  0.4853
26637W        W41768   5.482   9.876  11.030  0.1827  0.1154 -0.0055
26638W        W41769   8.750  11.211  13.753 -0.1223 -0.0378 -0.1939
26639W        W41770  15.119   9.512   1.345 -0.0230  0.3070  0.3802
26640W        W41771   6.622   6.404   3.950  0.1119 -0.0361 -0.1028
26641W        W41772   0.890   9.044   5.177  0.1445 -0.0265 -0.0142
26642W        W41773  17.558  16.531  14.845 -0.0677 -0.0583 -0.0384
26643W        W41774  14.515  15.520  10.135 -0.0527 -0.3442 -0.1045
26644W        W41775  13.473   9.355  12.925 -0.0984  0.0515 -0.1205
26645W        W41776  11.011   2.031   3.264  0.0814  0.2425 -0.1472
26646W        W41777   8.877  17.974  11.379 -0.2482  0.0715 -0.1535
26647W        W41778  17.389  18.339  13.026 -0.0205  0.1330  0.1560
26648W        W41779  13.412  14.991   1.965 -0.0175 -0.1375  0.2349
26649W        W41780   2.305   3.248  11.395 -0.2408 -0.1591 -0.2408
26650W        W41781   8.052   1.044   5.524  0.0401 -0.1046  0.1755
26651W        W41782   7.440  11.756   3.971  0.0266 -0.1671  0.2782
26652W        W41783   5.843   6.613  15.134  0.0851 -0.2157 -0.1937
26653W        W41784   3.117   7.758   3.213 -0.0874 -0.4701  0.0291
26654W        W41785   8.686   1.013   0.719 -0.0932  0.0563 -0.0688
26655W        W41786  15.531   8.052  11.138 -0.3634  0.1929  0.0064
26656W        W41787  10.775   3.617  14.494 -0.2938  0.3250  0.2406
26657W        W41788  10.559  14.074   3.639  0.2911  0.0086  0.4004
26658W        W41789   9.326  17.788  11.134 -0.4323 -0.2197 -0.3220
26659W        W41790  14.416   0.749  13.607  0.2760  0.1110 -0.0967
26660W        W41791   2.324  17.359   4.422  0.0444 -0.0343  0.0232
26661W        W41792   3.717  12.381  12.599  0.1109 -0.4228 -0.0161
26662W        W41793   5.226   8.485  14.684  0.1107 -0.4486  0.0540
26663W        W41794   9.600  17.659  14.790 -0.2084 -0.1095  0.2130
26664W        W41795   1.906   8.640  14.767  0.0565 -0.0289  0.3068
26665W        W41796   5.617   2.309   2.998 -0.3058 -0.0841  0.3250
26666W        W41797  14.545   0.721   0.305  0.1249  0.2120  0.2768
26667W        W41798  14.411  17.416   2.947 -0.0002  0.4692 -0.0011
26668W        W41799  15.658  10.026  13.880 -0.1723  0.1311  0.0576
26669W        W41800  18.260  10.194  13.556  0.4078  0.0800 -0.1395
26670W        W41801  17.217  17.334   0.685  0.1099 -0.1011 -0.2513
26671W        W41802  13.882  15.588   1.343 -0.2825 -0.0046 -0.0530
26672W        W41803   3.837  12.279  15.181 -0.2329 -0.0854  0.0735
26673W        W41804   2.196   5.297  11.102 -0.2671 -0.1419 -0.0896
26674W        W41805  11.390   3.082   3.701  0.2508 -0.0260 -0.0856
26675W        W41806  11.379   1.963  11.700 -0.4091 -0.0731  0.2566
26676W        W41807   5.599  16.715  11.372  0.1654 -0.2474  0.0530
26677W        W41808  16.619  11.358  14.657 -0.0923 -0.1559  0.1218
26678W        W41809  17.406   5.973   6.344 -0.0992 -0.3135 -0.1704
26679W        W41810  15.883   9.181   0.004  0.2722  0.0993 -0.0007
26680W        W41811  15.560   6.193  10.949 -0.0309  0.1084  0.2656
26681W        W41812  14.392   0.014  11.917  0.0239 -0.0213  0.0349
26682W        W41813   3.008  15.284  10.043 -0.2642  0.0886 -0.0586
26683W        W41814  16.622   0.788   5.623  0.1779  0.0652 -0.0620
26684W        W41815   7.938  11.655   2.392  0.0078  0.0975  0.0970
26685W        W41816   2.228   9.024  15.467  0.0933  0.0424  0.0075
26686W        W41817   8.470   1.685  11.906 -0.4517 -0.3084 -0.2954
26687W        W41818  12.128  16.456  15.813  0.0862 -0.1634 -0.2084
26688W        W41819  13.866  11.009  15.244 -0.0160 -0.1252 -0.2633
26689W        W41820   4.598   9.020  14.220 -0.0576  0.3948 -0.0489
26690W        W41821   5.377   7.439   5.363 -0.0361  0.1958 -0.0157
26691W        W41822  11.857  10.317  11.298 -0.1053  0.3808  0.0979
26692W        W41823  10.602   0.926  15.086 -0.0038 -0.0772 -0.3209
26693W        W41824  16.997  11.156   4.957 -0.0546 -0.0460 -0.3493
26694W        W41825   4.322  13.940  13.000  0.2340  0.1178 -0.1869
26695W        W41826   7.230   7.436  15.267 -0.3471  0.0470  0.1290
26696W        W41827   9.506   9.071   3.347 -0.1789  0.0423  0.0601
26697W        W41828  12.096  15.503  12.549  0.0942 -0.1036 -0.0379
26698W        W41829  17.141   3.235  12.220  0.0636  0.1620 -0.0895
26699W        W41830   4.080   6.720  14.778 -0.1652 -0.2945 -0.0403
26700W        W41831   3.491  14.898   2.799  0.2463 -0.0077  0.1197
26701W        W41832  10.439  16.274  15.141 -0.1511 -0.1727  0.0823
26702W        W41833   7.263  11.798  12.722  0.1479 -0.0580  0.0151
26703W        W41834  17.662   4.584  13.659  0.3347  0.0350  0.3471
26704W        W41835  14.136   7.887   5.810  0.2522  0.0127 -0.0931
26705W        W41836  11.781   8.579   0.956 -0.0527  0.3391 -0.0252
26706W        W41837  11.124  16.153  15.767  0.3185 -0.1377 -0.3235
26707W        W41838   4.967  12.090   1.091 -0.1199 -0.1181 -0.2304
26708W        W41839   3.769  16.414   1.048 -0.0755 -0.1796 -0.1981
26709W        W41840   5.095  14.878   3.165 -0.1781 -0.1838 -0.1388
26710W        W41841   4.097  13.319  13.151 -0.2320  0.1484 -0.0707
26711W        W41842  12.860   0.484   2.178  0.0518 -0.0327  0.1712
26712W        W41843  14.498   3.801   4.816 -0.0574 -0.2375 -0.1009
26713W        W41844   0.807   2.067  15.978 -0.0988  0.0196 -0.0595
26714W        W41845   9.592   0.649  14.078  0.0260  0.0470  0.2753
26715W        W41846   7.910   1.222   2.287 -0.0928  0.0998  0.2682
26716W        W41847   1.916  16.831   1.425  0.1091 -0.2958 -0.4941
26717W        W41848  16.084  14.943   4.833  0.1645  0.2104  0.1409
26718W        W41849  13.189  15.982   0.185 -0.0205  0.0830  0.2027
26719W        W41850   0.634   4.794   1.891  0.0429 -0.0466 -0.3539
26720W        W41851  14.393   5.656  12.818 -0.1678 -0.1507 -0.0077
26721W        W41852   1.387  17.493  13.398 -0.0288 -0.1437  0.3793
26722W        W41853   3.056  10.878  14.445 -0.1477 -0.2443 -0.2230
26723W        W41854  16.177  17.181   1.885  0.1383 -0.2103 -0.3602
26724W        W41855  17.539  16.989   9.966  0.1922  0.1515  0.2163
26725W        W41856  15.565   5.150  11.977 -0.1719  0.1241 -0.0532
26726W        W41857  11.029   6.132  14.559 -0.0074  0.0911  0.0817
26727W        W41858  13.929  12.560  13.653  0.0733  0.0010 -0.0006
26728W        W41859  10.565   2.922   0.431 -0.0010 -0.4370 -0.1526
26729W        W41860   5.210  15.479   1.213  0.1172  0.1019 -0.5411
26730W        W41861  13.655  14.337  11.052 -0.3686 -0.3073 -0.1326
26731W        W41862   3.311   0.532  12.567 -0.0884  0.2701 -0.3643
26732W        W41863   2.498   4.518  13.342 -0.1179  0.1607  0.1613
26733W        W41864  17.465  15.165  11.781 -0.3272  0.7419 -0.4398
26734W        W41865   2.429  10.361   2.869  0.1839 -0.1268  0.1981
26735W        W41866  13.914  13.393  15.651  0.0193 -0.0392 -0.3521
26736W        W41867   2.827  10.282   1.174  0.1218  0.1135  0.1089
26737W        W41868   4.539  17.461  13.359  0.2440  0.3571  0.0357
26738W        W41869   3.914  17.993  10.940 -0.1549  0.1787 -0.3387
26739W        W41870  15.436   6.762   2.949  0.0494 -0.1709 -0.4319
26740W        W41871  10.553   1.461  13.051 -0.4300 -0.0859 -0.1447
26741W        W41872   0.372  11.192   4.393  0.0094  0.2443 -0.1395
26742W        W41873  17.635  15.292   1.391 -0.0573 -0.0893  0.0103
26743W        W41874  15.141  12.065   4.094  0.1763 -0.0248  0.0296
26744W        W41875  13.904   4.533  11.176 -0.1815  0.2441 -0.1231
26745W        W41876  12.443   7.860  12.050 -0.0712 -0.0232 -0.0828
26746W        W41877   5.168  17.483  14.677  0.1242  0.2978 -0.2588
26747W        W41878   5.744  14.196   5.422  0.2500 -0.2230 -0.2422
26748W        W41879   9.547  10.367   3.743  0.4616 -0.1701  0.0877
26749W        W41880   4.838   9.742  10.347 -0.1071  0.1298  0.2268
26750W        W41881  17.320   8.417   6.732 -0.1588  0.1878 -0.1306
26751W        W41882  11.103   4.795  14.728 -0.2796  0.1105 -0.2169
26752W        W41883  17.590  15.217  15.509 -0.3101 -0.0373  0.0052
26753W        W41884   3.746  12.265  11.556 -0.0459  0.0601  0.0293
26754W        W41885  10.218   8.805   0.568  0.0653 -0.2378 -0.1141
26755W        W41886   5.370  12.273  13.999  0.0738  0.0596  0.2179
26756W        W41887   9.716  15.121   4.368  0.1548  0.2380 -0.2075
26757W        W41888   4.928   7.981  15.516 -0.0985 -0.1135  0.2563
26758W        W41889  11.112  12.447   4.431  0.1471  0.0801  0.3176
26759W        W41890   4.607  18.048   4.338  0.1639 -0.1203 -0.0729
26760W        W41891  11.668  10.329  15.806  0.5079 -0.0413  0.0634
26761W        W41892   8.317  17.742   4.390  0.1028  0.1064 -0.0416
26762W        W41893  11.775   6.888  13.954 -0.0173 -0.3775  0.0158
26763W        W41894   9.272   7.403  14.578  0.0704 -0.0422 -0.1905
26764W        W41895  10.287   7.286  12.045  0.2458 -0.0867  0.0641
26765W        W41896   3.175  13.033  15.857 -0.0377 -0.1823 -0.3694
26766W        W41897   8.950  16.044  11.952  0.3078 -0.1665 -0.0095
26767W        W41898  10.758   5.728  14.872 -0.2262  0.2428 -0.1874
26768W        W41899  11.875  15.329   0.063 -0.2205  0.0532 -0.0789
26769W        W41900   0.474   3.890   1.502  0.0889  0.1087  0.3968
26770W        W41901   9.629  11.724   3.713  0.1282 -0.1335 -0.0099
26771W        W41902  15.721   2.578  13.003  0.1957  0.2811  0.0179
26772W        W41903   0.064   6.272  15.950 -0.0535  0.1760 -0.2320
26773W        W41904   2.788   2.760   1.202  0.0703  0.0013 -0.3090
26774W        W41905   5.056  15.222   0.621 -0.1285 -0.1243  0.0838
26775W        W41906   2.273   4.292  10.182  0.0917  0.2605 -0.1170
26776W        W41907  13.492   9.586   1.517  0.1533  0.1323  0.0079
26777W        W41908   0.678  12.932  13.369 -0.0668  0.0336  0.1551
26778W        W41909  13.631   3.224   3.496 -0.3437  0.1837  0.0370
26779W        W41910   2.156   0.297  11.079  0.0688  0.1233 -0.1056
26780W        W41911   1.542  14.982   2.814  0.0089  0.0893 -0.0325
26781W        W41912   9.339   7.171  15.319 -0.1789  0.1804 -0.4681
26782W        W41913  13.568   3.322   4.047  0.2370  0.1517 -0.0445
26783W        W41914  13.776  12.419  11.055 -0.0261 -0.3235 -0.0080
26784W        W41915  14.153  17.030   2.797 -0.1677  0.1142  0.2475
26785W        W41916   9.588  15.125   3.540  0.1587 -0.1297 -0.0434
26786W        W41917   0.537  10.510   0.645 -0.0219  0.0299 -0.0489
26787W        W41918  18.170  11.023  11.935 -0.0960 -0.0643 -0.3118
26788W        W41919   8.954  11.303  16.104  0.0533  0.1110 -0.0224
26789W        W41920  13.460   5.815   0.276 -0.0861 -0.0817 -0.2972
26790W        W41921  10.410   9.062  10.372 -0.1777 -0.0045 -0.0750
26791W        W41922  15.339   9.277  15.620  0.1114 -0.4431  0.4811
26792W        W41923  16.119   3.186   3.158  0.5112 -0.3448  0.2012
26793W        W41924  18.309  10.797   0.369 -0.5865  0.2560  0.2330
26794W        W41925  11.956  13.439   4.000 -0.1628  0.0713  0.1729
26795W        W41926  12.000   8.604  13.907 -0.0555  0.0129 -0.3342
26796W        W41927   6.301  13.869   3.471 -0.0244  0.1539  0.3414
26797W        W41928   1.235  10.214   4.620 -0.1263  0.2189 -0.0777
26798W        W41929  12.755   1.564  10.106 -0.0073  0.4179 -0.1407
26799W        W41930  11.649   1.538   1.594 -0.2722  0.0572  0.0700
26800W        W41931   3.745   8.444   3.504  0.0729 -0.0515  0.0461
26801W        W41932   0.079   5.289   0.034  0.0313  0.1169 -0.0924
26802W        W41933   2.322  11.344  12.135  0.0959  0.2662  0.0202
26803W        W41934  11.853  13.494  15.566 -0.1745 -0.1888  0.0993
26804W        W41935   6.980   5.766  14.374 -0.0717  0.0407  0.2645
26805W        W41936   2.570   4.856   5.112  0.0501  0.1144  0.0301
26806W        W41937  11.489  16.084  13.286 -0.0399 -0.0291 -0.2737
26807W        W41938   9.388   5.106   0.583 -0.2704  0.0258  0.1286
26808W        W41939  14.822  10.085  14.969  0.1828  0.1223 -0.0546
26809W        W41940   4.885  12.635  11.621 -0.2995 -0.2590  0.0985
26810W        W41941   7.002   0.201  11.020  0.0066  0.2918 -0.0011
26811W        W41942  15.311  10.707   3.665 -0.1403 -0.0919  0.0405
26812W        W41943   1.790   3.322   3.607 -0.0514 -0.2594 -0.1459
26813W        W41944   9.861  18.421  14.832  0.0468 -0.1686  0.3056
26814W        W41945  18.081   1.450   1.100  0.0648 -0.0709  0.0429
26815W        W41946  15.078   2.558   1.147  0.0839 -0.1135  0.1591
26816W        W41947   8.368   4.601   1.542  0.0215 -0.3390 -0.1367
26817W        W41948   0.846  17.453   4.206 -0.0684  0.1958 -0.2605
26818W        W41949   7.116   3.166   0.216 -0.0131  0.0442  0.1160
26819W        W41950  15.404  16.566  15.858 -0.0556 -0.1201 -0.2295
26820W        W41951   2.145  15.995  11.132 -0.0737 -0.1803  0.1395
26821W        W41952  14.062  17.800   2.583  0.3249 -0.2509  0.0054
26822W        W41953   2.701   7.355  12.490 -0.3225  0.0343  0.1170
26823W        W41954   3.947  13.376   0.954 -0.0269 -0.2537 -0.3602
26824W        W41955   7.555  14.339  14.261 -0.2295 -0.1994  0.1721
26825W        W41956   7.786  13.337  13.376 -0.0200 -0.0414  0.0426
26826W        W41957  17.289   6.526  11.429  0.1520  0.2344 -0.0910
26827W        W41958   6.887  16.775   4.329  0.5948 -0.4027  0.1980
26828W        W41959   2.070   5.374   2.070 -0.0902 -0.0886 -0.0121
26829W        W41960   9.661  10.077   1.041  0.2025  0.1104 -0.0700
26830W        W41961   8.983  12.027   1.813  0.0072 -0.1521 -0.0792
26831W        W41962  15.131  10.452   1.288  0.2401 -0.2048  0.1681
26832W        W41963   0.422  12.116   1.511  0.0838 -0.3113 -0.0441
26833W        W41964  15.503  15.656  13.803  0.0690  0.2417  0.1582
26834W        W41965  16.738   4.698   2.761  0.3473 -0.1847  0.1075
26835W        W41966   4.006  16.860  11.579  0.1189 -0.0003 -0.0154
26836W        W41967   4.375  17.048  12.070  0.0022  0.2643  0.1324
26837W        W41968  14.163  11.512  13.326 -0.0727  0.1032  0.2520
26838W        W41969   6.090   4.507   3.964  0.1748 -0.0608  0.1247
26839W        W41970   2.857  17.085   9.224 -0.4486  0.2016 -0.1544
26840W        W41971  17.780  10.613  12.592 -0.2292  0.1299 -0.0996
26841W        W41972  18.160  16.244  15.052  0.2241 -0.2451  0.3793
26842W        W41973  14.094   2.140   0.187  0.0681  0.4187 -0.0734
26843W        W41974   7.717  15.662  15.728 -0.0287  0.0632  0.0549
26844W        W41975  15.751  15.850   2.480  0.0217 -0.2312  0.0312
26845W        W41976  14.424   4.952   6.576  0.2854  0.4191 -0.1833
26846W        W41977   8.299  14.022  11.961  0.1181  0.0205  0.0235
26847W        W41978   0.210  11.097   2.371 -0.1428 -0.1566  0.3704
26848W        W41979  10.624   2.447   5.244  0.0658  0.2294 -0.0917
26849W        W41980   3.204   6.097  12.637  0.2505  0.1407 -0.0711
26850W        W41981   0.221  17.796  15.622  0.2006 -0.0405 -0.0130
26851W        W41982  11.068  16.162  12.002 -0.0250  0.1711 -0.0762
26852W        W41983  14.583  12.357  10.357  0.2205  0.2741 -0.0850
26853W        W41984  15.937   1.873   5.437 -0.0555 -0.2691 -0.1432
26854W        W41985  13.258   5.571  13.195  0.1697 -0.0771  0.1392
26855W        W41986  10.524   6.084   6.148 -0.1782  0.2691  0.0882
26856W        W41987   9.211   4.200   4.761  0.2048 -0.0404 -0.0499
26857W        W41988   2.449  16.510   1.664  0.2974 -0.4776  0.0887
26858W        W41989  12.934  18.416  12.978 -0.1845  0.0370  0.1058
26859W        W41990  16.895  12.388  12.944  0.0748 -0.2220  0.1876
26860W        W41991   1.538  13.024   9.741  0.0940 -0.1540  0.2004
26861W        W41992  17.253  11.383  15.750  0.2616  0.2336  0.1275
26862W        W41993  18.080  13.927   1.160  0.0615 -0.1975  0.1277
26863W        W41994   5.593  12.027  16.011  0.2268 -0.1323  0.1421
26864W        W41995  12.954   7.346  14.843 -0.0013  0.0049  0.0259
26865W        W41996  16.241   6.299   4.546 -0.1686  0.1523  0.1522
26866W        W41997  16.213  10.343  13.206  0.0434  0.1039 -0.0240
26867W        W41998  13.267   5.839  10.605  0.1183 -0.2852 -0.0465
26868W        W41999  13.095  16.803  14.780  0.1539 -0.0908 -0.0694
26869W        W42000   0.325  17.163   0.335 -0.2286 -0.0718  0.0143
26870W        W42001  17.704  15.728  15.517  0.2303 -0.1871 -0.1962
26871W        W42002   0.704   5.305  15.382  0.0620 -0.1429  0.0331
26872W        W42003  12.776   3.410  14.953 -0.0140 -0.0866 -0.2230
26873W        W42004  17.174  15.529  11.911  0.0995  0.2148 -0.1920
26874W        W42005   6.408  10.788  14.409  0.0432  0.0855  0.1015
26875W        W42006  10.054   3.168   5.005  0.1900 -0.3297  0.3084
26876W        W42007   0.713   3.447   2.417  0.0094 -0.2511  0.0237
26877W        W42008   6.708   0.165  14.528  0.0717  0.1686 -0.0943
26878W        W42009  14.400  13.346   0.392 -0.1513  0.0087 -0.1199
26879W        W42010   7.737   7.969  12.480  0.1493  0.0353  0.2120
26880W        W42011  14.520  10.927   1.265  0.1880  0.1671  0.0239
26881W        W42012   8.538  10.123   2.053  0.0901  0.0173  0.0451
26882W        W42013   1.682   2.287  15.370  0.0971 -0.4171  0.2528
26883W        W42014  17.451   6.483   6.537  0.1181 -0.0240  0.1570
26884W        W42015   8.538   2.424  11.762  0.0344 -0.1923 -0.2220
26885W        W42016   8.942   3.056   3.347 -0.2164 -0.2309 -0.0827
26886W        W42017  10.725  18.476   2.717  0.0864 -0.0147  0.0626
26887W        W42018  18.339  11.769  14.000 -0.0515 -0.0609 -0.0759
26888W        W42019   7.354   7.258  14.347  0.1143  0.0592 -0.1384
26889W        W42020  17.729   9.426  11.254 -0.3810 -0.2708 -0.2182
26890W        W42021  13.614   1.375   2.247 -0.0485  0.1554  0.2225
26891W        W42022   8.019   0.559   5.769 -0.0255 -0.0762  0.3182
26892W        W42023  17.654   2.100   1.590  0.3062  0.1447  0.0319
26893W        W42024  18.338   9.423  12.581  0.1720 -0.1082 -0.1333
26894W        W42025   1.763   8.139  11.900 -0.1418  0.3213 -0.1846
26895W        W42026  14.464   1.755  15.447  0.0727  0.1506  0.2005
26896W        W42027   6.823  17.205  13.727  0.0215  0.3374  0.1343
26897W        W42028  18.136   2.331  14.155  0.3625  0.0583  0.1937
26898W        W42029  14.169   2.104  13.895  0.0516  0.0509  0.1875
26899W        W42030   9.142   8.063  15.548  0.2032  0.0219  0.2178
26900W        W42031  15.424   5.617   5.827 -0.3429  0.1978  0.1344
26901W        W42032  14.316   1.500   5.355 -0.0481 -0.2497  0.1435
26902W        W42033  15.700   2.806  12.200  0.2774 -0.1787  0.3234
26903W        W42034  11.531   4.661   6.390  0.1779  0.3149 -0.3135
26904W        W42035   5.859  17.869  14.023  0.2770  0.2796  0.0167
26905W        W42036   3.298   6.571   1.415  0.4640  0.4078  0.1870
26906W        W42037  18.131  17.246  13.588  0.0276 -0.1266 -0.0603
26907W        W42038   8.622   8.812  13.174 -0.2070 -0.0416  0.3070
26908W        W42039  10.844   4.831  14.332 -0.3232 -0.0536  0.0270
26909W        W42040   4.432   1.523   4.249 -0.0541  0.1668  0.1893
26910W        W42041   1.888  14.856   4.291 -0.2973 -0.0813 -0.0640
26911W        W42042  11.174  12.060   0.069 -0.1154  0.0739 -0.0932
26912W        W42043  17.846   0.211  11.661 -0.1823 -0.0712  0.1915
26913W        W42044   9.152  15.142   9.940  0.2591 -0.3118 -0.0784
26914W        W42045   5.919  13.934   0.933 -0.1276 -0.0749  0.1171
26915W        W42046  16.125  16.558   2.970 -0.0596 -0.1018  0.0558
26916W        W42047   4.970   2.218   3.463 -0.2260 -0.4143  0.0097
26917W        W42048   8.528  12.797  14.875 -0.5004  0.2582 -0.2353
26918W        W42049   3.923   4.955  13.621 -0.1975 -0.1375 -0.0015
26919W        W42050  14.101  11.326   3.519  0.2121  0.1292 -0.0468
26920W        W42051  13.473  13.213  11.273  0.1235 -0.0216 -0.1189
26921W        W42052   5.531  16.522  11.859  0.0181  0.1111  0.1462
26922W        W42053   2.772  10.036  10.957 -0.1085  0.1004  0.2724
26923W        W42054  13.714  16.423  11.098 -0.0849 -0.2606 -0.1559
26924W        W42055   9.708  10.546  13.056  0.0733  0.2851 -0.0735
26925W        W42056   3.247  14.198   2.051  0.1365 -0.2166 -0.0254
26926W        W42057   2.160  16.296  11.944 -0.3830 -0.2823 -0.1755
26927W        W42058   4.014  13.624  15.743 -0.0667  0.1745  0.0544
26928W        W42059  11.315   8.626   3.135 -0.2975  0.3779  0.0451
26929W        W42060  15.171  16.615   5.075  0.0336 -0.3335  0.0570
26930W        W42061   7.632   1.392  12.125 -0.0298 -0.2305  0.2549
26931W        W42062   0.487  11.398  14.671  0.0417 -0.6796  0.0941
26932W        W42063  12.841  12.633  15.601  0.1990  0.0685  0.1437
26933W        W42064  17.065   9.113  10.241  0.2157  0.1798  0.2992
26934W        W42065  17.965   9.004   4.078  0.0903 -0.0686  0.2434
26935W        W42066   1.440  10.036  10.313 -0.0554 -0.1195  0.4160
26936W        W42067   6.190   6.351  13.379 -0.0500 -0.1901  0.5037
26937W        W42068   1.595  15.763  13.713  0.0316 -0.0209  0.0530
26938W        W42069  11.913  11.284   1.530  0.3163  0.1434 -0.1434
26939W        W42070  11.436   2.393   0.419 -0.2036 -0.0446 -0.1088
26940W        W42071  15.560   4.918   3.692  0.0795  0.0294 -0.2246
26941W        W42072   3.272  17.653  12.281  0.4079  0.1004 -0.1074
26942W        W42073  13.473  14.817   3.779  0.0021  0.0564  0.1145
26943W        W42074  13.838  14.217  15.012 -0.0133  0.0241  0.1930
26944W        W42075   2.820  18.436   1.921 -0.3342  0.2358 -0.0390
26945W        W42076   0.450  18.062   1.408  0.4173 -0.1829 -0.3030
26946W        W42077   9.669  16.710  12.776 -0.2834  0.0393  0.1062
26947W        W42078   0.028  18.232   3.016 -0.3512  0.0654  0.1781
26948W        W42079   8.343  15.994   2.791 -0.0918  0.0169  0.2377
26949W        W42080  16.777   7.704   2.888  0.2139 -0.4081 -0.2205
26950W        W42081   5.285   3.456   2.804 -0.3664 -0.2965  0.0315
26951W        W42082   1.545  13.947  15.045 -0.1484 -0.0377  0.0277
26952W        W42083  16.801   5.576  12.033  0.0448 -0.1717 -0.1559
26953W        W42084  16.115  15.699   1.754  0.0096 -0.5360 -0.0921
26954W        W42085   8.693   9.365   6.343 -0.0287  0.1013 -0.0808
26955W        W42086   9.793  11.777  14.718  0.1395 -0.0696  0.1014
26956W        W42087   0.229   6.042  11.270 -0.2737 -0.3490  0.0177
26957W        W42088   1.810   0.669  13.472 -0.0120 -0.1874  0.0148
26958W        W42089  14.892   8.784  14.997  0.1360 -0.2982  0.2412
26959W        W42090  13.838  10.665  12.886 -0.1338  0.4844 -0.1191
26960W        W42091  12.035  16.029  15.485 -0.0660 -0.2789 -0.1137
26961W        W42092  17.213   1.018  15.902 -0.1712 -0.0618  0.3646
26962W        W42093   8.522   4.947  14.419 -0.1063  0.2406 -0.0573
26963W        W42094   7.896   6.661  13.828 -0.0210  0.1200 -0.0984
26964W        W42095  16.061  11.299  15.085 -0.0769 -0.1826  0.1860
26965W        W42096  10.539  12.775  13.229  0.2692  0.0022 -0.2019
26966W        W42097   3.490   9.948   3.360  0.1527 -0.4548  0.1236
26967W        W42098   9.249  13.474  12.692 -0.4659 -0.3088  0.3421
26968W        W42099   6.156   1.296   3.662 -0.0570 -0.3213  0.0091
26969W        W42100  14.683   7.392   2.697 -0.0752  0.2609 -0.1026
26970W        W42101  11.501  15.428  15.823  0.0553 -0.3226  0.1603
26971W        W42102   6.395  10.958  12.814  0.0219  0.0005 -0.1540
26972W        W42103  14.704  16.898  11.130  0.0936  0.1641 -0.2387
26973W        W42104   5.157   1.585  11.330 -0.1069  0.2497  0.1724
26974W        W42105   0.960   1.405  13.241 -0.0095 -0.0447  0.2942
26975W        W42106  15.455  11.559  15.771  0.0540  0.0261  0.2600
26976W        W42107  11.116  16.177   2.864 -0.3478  0.0918  0.0018
26977W        W42108   6.226  17.406  11.331 -0.1546 -0.0909  0.1487
26978W        W42109  13.269   8.840   1.395 -0.0963  0.0948  0.0469
26979W        W42110  12.164   3.921   4.822 -0.0488  0.1609 -0.1473
26980W        W42111   4.657  14.781   4.159  0.0490  0.1694  0.0336
26981W        W42112  12.796  16.554   2.899  0.1486  0.0459  0.1433
26982W        W42113   1.606   5.440  13.698 -0.0434  0.0183 -0.1135
26983W        W42114   3.747  13.903   1.570  0.0498 -0.0476  0.1757
26984W        W42115  15.381  15.188   0.427  0.0838 -0.1545  0.2596
26985W        W42116   3.811   9.745   4.698 -0.1829  0.0872  0.2262
26986W        W42117   4.531   3.615   3.726  0.2276 -0.0184  0.1749
26987W        W42118   3.715  15.322   3.925  0.5561  0.2518  0.2328
26988W        W42119   4.596   0.072  15.638  0.1200  0.0688  0.2158
26989W        W42120   3.438   1.185  10.078 -0.0025  0.1356 -0.3784
26990W        W42121   8.814  16.156   5.296 -0.0508 -0.0466  0.0049
26991W        W42122  14.872   8.324   0.254 -0.3432 -0.2158  0.0908
26992W        W42123   8.749   9.376  13.702  0.0230 -0.0288 -0.0862
26993W        W42124   6.572  10.841  15.814 -0.2808 -0.6557 -0.3535
26994W        W42125   4.898   1.747   3.479  0.1569  0.1520  0.2225
26995W        W42126  10.261   8.242   2.798 -0.2159  0.0616 -0.3820
26996W        W42127   1.591   5.905  15.901 -0.0224 -0.0703 -0.5083
26997W        W42128  15.370  16.106  11.743  0.1642 -0.2938  0.1763
26998W        W42129  13.468   4.155   3.259  0.2791 -0.1153  0.1801
26999W        W42130   3.270  17.525   9.528 -0.1000 -0.1658  0.0054
27000W        W42131  11.548   1.073  13.265 -0.2674 -0.1160 -0.0340
27001W        W42132   2.465   9.070   4.364  0.1044  0.0310 -0.0660
27002W        W42133   0.381  16.605   3.018 -0.3676  0.0737 -0.0664
27003W        W42134   9.675   1.640   3.633  0.1931  0.0614 -0.0474
27004W        W42135  16.267   9.776   2.815 -0.0043 -0.2616 -0.3739
27005W        W42136   4.539   8.007  10.140  0.0399  0.0186 -0.1733
27006W        W42137   9.027   3.214  11.868 -0.0112 -0.3166  0.0575
27007W        W42138   6.984   9.372   4.371 -0.2604 -0.2771  0.0486
27008W        W42139   8.096  11.649   1.893 -0.2597 -0.1563 -0.1716
27009W        W42140   0.034   2.231   2.586 -0.0888  0.0416  0.0523
27010W        W42141   4.505   1.302   0.923  0.1206  0.0917 -0.2152
27011W        W42142   9.717   8.322   1.536  0.1406 -0.1015  0.3135
27012W        W42143  13.279   6.268  14.165 -0.2878 -0.0583  0.0350
27013W        W42144   4.885   2.506  15.122  0.3778  0.4171 -0.2948
27014W        W42145  17.883  14.910  13.042 -0.0349 -0.1481 -0.2420
27015W        W42146   3.849  13.378  12.695  0.2513 -0.1660 -0.1471
27016W        W42147   0.701   2.460  15.573  0.0099 -0.2148 -0.0369
27017W        W42148  11.307   6.965  12.138 -0.2113  0.0856  0.0567
27018W        W42149   0.457  18.383   5.433 -0.1103  0.2338  0.0186
27019W        W42150   4.877   0.397   0.704 -0.0256  0.0138  0.4306
27020W        W42151   1.164  17.425  10.729 -0.0138 -0.0426 -0.0704
27021W        W42152   4.546   4.492  13.635 -0.3989 -0.2234 -0.5097
27022W        W42153   0.865   8.557  11.448 -0.2093  0.0732  0.1085
27023W        W42154  15.084   0.559  13.436  0.2224  0.2371  0.2056
27024W        W42155  11.046  11.482   4.345 -0.2993 -0.1329 -0.1069
27025W        W42156   9.034  14.349  14.614  0.1948  0.1082  0.2243
27026W        W42157   1.758   9.064  11.056 -0.6353 -0.2565  0.1974
27027W        W42158   5.108   0.351  13.077 -0.0874  0.0763 -0.0330
27028W        W42159   1.473   0.306   3.900 -0.2856 -0.0973 -0.0713
27029W        W42160  12.759  17.490   0.603  0.2042 -0.0648  0.2049
27030W        W42161   1.103   9.297   1.220 -0.0225 -0.2071  0.1596
27031W        W42162   1.876   3.116  11.097 -0.0463  0.1497 -0.3010
27032W        W42163   2.476   4.256   5.413 -0.0698 -0.2134  0.0160
27033W        W42164  13.313   4.581  14.449  0.1469 -0.1814  0.0991
27034W        W42165  17.443   7.541   2.406 -0.1358  0.3644  0.0119
27035W        W42166   6.223  13.340   0.120  0.1636  0.1802 -0.2251
27036W        W42167   1.116   7.858   2.300  0.0033 -0.1377 -0.0742
27037W        W42168   8.433   9.266  11.801 -0.1977  0.1438  0.0856
27038W        W42169  12.219  15.319  14.670  0.1808  0.0297 -0.1901
27039W        W42170   1.657   8.814   3.371 -0.1962  0.1349 -0.1114
27040W        W42171  13.331   0.480   5.671  0.0331 -0.0588 -0.0274
27041W        W42172   8.783   4.074   6.424 -0.1428 -0.3660  0.2116
27042W        W42173   0.895  15.373  14.978 -0.0380 -0.0600 -0.0722
27043W        W42174   6.444   6.370  14.197  0.3980  0.0745 -0.1890
27044W        W42175  10.816   2.182  13.865  0.0004 -0.2405  0.0058
27045W        W42176  10.192  17.422   1.343 -0.1296 -0.2971  0.1313
27046W        W42177   4.861   6.683   4.061 -0.2124 -0.3834 -0.0651
27047W        W42178  10.373  13.970   5.646  0.0523 -0.0641  0.3810
27048W        W42179  10.009   1.965  14.770  0.0203  0.1075  0.1463
27049W        W42180  11.339   4.254   1.490  0.0522  0.1000  0.1052
27050W        W42181   8.746  12.759   4.351  0.1914 -0.0625  0.0290
27051W        W42182  12.253  14.624  10.645  0.1640 -0.1769 -0.1715
27052W        W42183   3.694   2.755   2.306  0.2249 -0.0701  0.4837
27053W        W42184  15.941   9.601   0.756 -0.0931 -0.2447  0.0816
27054W        W42185   2.683  10.108  13.778 -0.0892  0.1497 -0.2149
27055W        W42186  12.378  10.671   5.541  0.0611 -0.1456 -0.0926
27056W        W42187  13.334   8.326  11.492 -0.2198  0.1634  0.0875
27057W        W42188  15.907  12.435   2.187  0.4402 -0.4205  0.1604
27058W        W42189   0.195  13.212   5.435  0.0381  0.0194 -0.0120
27059W        W42190   0.950   6.560   4.579 -0.3059  0.3973  0.3379
27060W        W42191  15.796  17.237  11.469 -0.2253 -0.0228  0.0774
27061W        W42192   3.632   6.989  12.043  0.0637 -0.1977  0.1713
27062W        W42193  12.707   6.243  15.045 -0.0779  0.2308 -0.1980
27063W        W42194   9.253   6.697   3.431 -0.2044  0.0696  0.1604
27064W        W42195  13.242  15.278  12.566 -0.3344  0.2203 -0.1915
27065W        W42196  14.744   1.358  12.054 -0.5395  0.1596 -0.1011
27066W        W42197   3.229   3.960   0.441  0.1512  0.3778 -0.2080
27067W        W42198  14.337  15.398  15.521  0.2237  0.4852 -0.0519
27068W        W42199  17.591   3.119  10.645  0.1706 -0.2316 -0.0953
27069W        W42200  15.426   6.387   6.440  0.1962 -0.2706  0.1883
27070W        W42201   7.548  11.871   1.170  0.0752 -0.2455  0.1042
27071W        W42202   5.650  13.988   4.559  0.3354 -0.2856  0.0081
27072W        W42203  11.084   9.020  14.491  0.0359  0.2381 -0.2051
27073W        W42204  12.228  13.083  13.144 -0.0299 -0.0131  0.4295
27074W        W42205   6.758   1.203  12.827 -0.1444 -0.0289  0.2431
27075W        W42206   7.190  10.512   0.046  0.1100 -0.1627 -0.1344
27076W        W42207   2.566  10.284   4.551 -0.3166 -0.1003 -0.3092
27077W        W42208   8.086  18.003  14.198 -0.0103  0.0412  0.2362
27078W        W42209   8.524   1.090  10.135  0.3104  0.0879 -0.1458
27079W        W42210   6.216   4.598  15.187  0.2174 -0.0506 -0.1550
27080W        W42211  14.969  10.042  13.841  0.0021  0.0082 -0.0025
27081W        W42212   8.184  10.810  15.885 -0.1958 -0.0215 -0.0060
27082W        W42213   6.775   2.617   3.919  0.0246 -0.2043  0.0104
27083W        W42214   9.386   8.806   4.915  0.5228  0.1263 -0.1242
27084W        W42215   1.090   2.811   3.455 -0.1680 -0.1015  0.2962
27085W        W42216   7.735   6.352  11.505 -0.0978 -0.2266 -0.3648
27086W        W42217  13.059  16.838   1.403  0.0289 -0.1939  0.0278
27087W        W42218  16.666   6.723   3.677  0.3729 -0.0799  0.1722
27088W        W42219   1.963   2.475  12.556  0.2290 -0.2267 -0.1954
27089W        W42220   2.246  18.171   5.190  0.2775 -0.1169  0.1591
27090W        W42221  13.685  17.635   5.306 -0.0172  0.1067 -0.0595
27091W        W42222  13.979  15.417  13.719 -0.1011 -0.2064  0.2317
27092W        W42223   7.194  13.551  12.842 -0.0237  0.0309  0.1168
27093W        W42224  10.015  16.672  14.409 -0.0168  0.1154  0.0904
27094W        W42225  11.447  13.871  13.878 -0.4216  0.2721  0.0175
27095W        W42226  14.143   7.485  15.397 -0.1553  0.3176  0.1552
27096W        W42227  13.244  14.341   5.767 -0.2000 -0.1237 -0.3481
27097W        W42228   9.556  15.696   3.613 -0.1036 -0.0637  0.1050
27098W        W42229  12.740   9.610  15.958 -0.1710 -0.3477  0.3504
27099W        W42230   4.825  12.055  10.958 -0.0840  0.3227 -0.1266
27100W        W42231   4.822  14.313  12.689 -0.4042  0.3019 -0.1818
27101W        W42232  16.016  14.799   3.964  0.2493 -0.4390  0.1278
27102W        W42233   8.381   7.176   2.750  0.2196  0.1469  0.3189
27103W        W42234   3.026   5.237   1.278  0.0835 -0.0835  0.3721
27104W        W42235   4.363  15.099  11.133 -0.0352  0.2325  0.1202
27105W        W42236   4.905   6.799   0.874  0.0932 -0.2254 -0.0213
27106W        W42237  14.594   2.187  15.156  0.2031  0.0305 -0.0882
27107W        W42238   1.756   8.400   5.340  0.2139  0.1321  0.0260
27108W        W42239   9.911  15.557  13.498 -0.1809 -0.2300  0.0420
27109W        W42240  17.406   7.236   0.965 -0.1389 -0.0010 -0.1592
27110W        W42241   1.839   4.862   3.347 -0.0345 -0.0389 -0.1140
27111W        W42242   8.390   4.166  15.399  0.1449  0.0917  0.2783
27112W        W42243   6.623  15.376  12.899  0.1935  0.0920 -0.0825
27113W        W42244  15.908  15.314  12.756  0.4301  0.3620 -0.1176
27114W        W42245  18.052   4.169   1.697  0.2972 -0.0160  0.2387
27115W        W42246   2.373   7.232   2.408  0.2011 -0.0566  0.3987
27116W        W42247   4.766   5.628  13.414 -0.0326 -0.1171  0.0256
27117W        W42248  14.456  11.467  11.482 -0.0161 -0.0620 -0.0081
27118W        W42249   6.842  17.736  13.767 -0.0202  0.1596  0.0610
27119W        W42250  13.631  14.825   0.851 -0.1210 -0.2552 -0.1469
27120W        W42251   4.754  14.555   2.616  0.0015  0.0886 -0.2927
27121W        W42252   8.049  15.183   4.741  0.1027 -0.1348  0.1852
27122W        W42253   5.834  13.053  16.041 -0.0086  0.1390 -0.2504
27123W        W42254   7.820   0.371   4.759  0.1407 -0.4704  0.0715
27124W        W42255  10.430   1.953  13.620  0.1185 -0.1378 -0.0756
27125W        W42256   4.154  11.652  13.736  0.0865 -0.2501  0.2125
27126W        W42257  11.246   5.196   1.360  0.0327 -0.0155 -0.0356
27127W        W42258  15.423  15.067   3.304  0.2201  0.2487  0.2419
27128W        W42259  15.909   4.198   1.537 -0.1925 -0.1173  0.1143
27129W        W42260   8.524   3.576  12.958  0.0833  0.0409  0.2823
27130W        W42261  11.866   4.207  12.002 -0.2781  0.2736  0.0230
27131W        W42262  12.653   0.716  11.201  0.1122 -0.3126  0.2211
27132W        W42263   5.206  17.725  14.249 -0.1042 -0.0493 -0.0742
27133W        W42264  10.226   2.560   0.038  0.1526  0.1498  0.1270
27134W        W42265   0.878   0.251   3.927 -0.1186  0.1171  0.1428
27135W        W42266   4.355   6.117  14.137  0.1867  0.0072 -0.3455
27136W        W42267   1.124  18.246   0.324  0.2116 -0.1924  0.2124
27137W        W42268   7.224  18.115   5.023  0.2595  0.1456 -0.0498
27138W        W42269  10.041  11.501  12.340 -0.1677 -0.2878  0.0412
27139W        W42270   8.865   4.604   1.421  0.1559 -0.3782 -0.1041
27140W        W42271  18.440  12.912   3.400  0.0505 -0.3687  0.2764
27141W        W42272   6.352   9.329  10.030  0.0137 -0.2117 -0.2309
27142W        W42273   9.042  16.595   2.587  0.1935 -0.3237  0.2273
27143W        W42274   1.758  16.185   4.177  0.0685  0.0052 -0.3305
27144W        W42275  13.810  12.579   1.678  0.0335 -0.0188  0.2728
27145W        W42276  17.261   6.852   2.923  0.3069  0.1132  0.3621
27146W        W42277   0.880   3.585  12.118 -0.1035  0.0418 -0.0611
27147W        W42278   1.638   0.517   4.647  0.1867  0.0277  0.3371
27148W        W42279   3.760  15.418  15.941 -0.1753 -0.2022 -0.0082
27149W        W42280   5.746   4.677   1.084  0.0105  0.1528 -0.1103
27150W        W42281   7.223  10.301  11.184 -0.0745 -0.3516  0.0637
27151W        W42282   3.917   5.522  14.875  0.1332  0.2574 -0.1652
27152W        W42283  12.924  11.623  13.496  0.3036 -0.1784 -0.0106
27153W        W42284   5.859   3.912  12.584 -0.0171  0.2936 -0.3381
27154W        W42285  12.965   1.910  14.535  0.0363  0.0383  0.3433
27155W        W42286   7.145  16.365  13.589  0.1478  0.1315 -0.4711
27156W        W42287  16.564   9.755   1.005 -0.0236  0.0668  0.1536
27157W        W42288   3.736   2.066  12.014  0.2124 -0.0595  0.2965
27158W        W42289   4.901   5.496  12.449  0.4621  0.0445  0.0662
27159W        W42290   5.911   2.072   2.679 -0.0449  0.0530 -0.1390
27160W        W42291   5.860  18.122  11.922 -0.0734 -0.0221  0.4668
27161W        W42292  10.471   9.583  12.216 -0.0304 -0.0246  0.2329
27162W        W42293  18.252  16.486   9.723 -0.2692  0.1570  0.1979
27163W        W42294   5.978   5.003   1.370 -0.1700 -0.2201  0.1960
27164W        W42295   2.082  10.241  10.317 -0.2184 -0.1671  0.1776
27165W        W42296  17.992   5.207   4.843  0.0222 -0.5692  0.0949
27166W        W42297   7.875   0.510  10.902 -0.0089  0.3014 -0.2091
27167W        W42298   6.731  11.767   3.192 -0.0376 -0.1501 -0.2086
27168W        W42299  18.282  15.456  10.525  0.3206  0.0514  0.0359
27169W        W42300  17.649   5.224  11.552  0.0152 -0.3217 -0.1393
27170W        W42301   0.567  12.497   2.427  0.0368 -0.1747 -0.2116
27171W        W42302   0.734  17.345  13.635 -0.1443  0.1344 -0.2034
27172W        W42303   9.230   8.766   2.042  0.3145  0.2034  0.0626
27173W        W42304   7.381   4.756  11.793 -0.1082 -0.1063 -0.2234
27174W        W42305  18.294   9.400   3.200 -0.0665  0.2999 -0.1363
27175W        W42306   4.660   9.526   3.235 -0.1467  0.1042 -0.1930
27176W        W42307  12.555   0.304   4.394  0.1724  0.3416 -0.0239
27177W        W42308   7.093  18.157   4.349 -0.0853 -0.1704  0.4293
27178W        W42309   5.833  17.470   2.064  0.1205  0.7447  0.1299
27179W        W42310   9.582  11.174   3.853  0.1220  0.1634 -0.2391
27180W        W42311   6.440  18.036   5.302  0.1783 -0.2944  0.1816
27181W        W42312  15.503   9.467   3.064 -0.0680  0.0526  0.0275
27182W        W42313  12.734   1.702  11.949  0.1207 -0.1003 -0.0732
27183W        W42314  15.746  11.023   1.670  0.0957  0.0351 -0.1521
27184W        W42315  11.553   5.792   4.476  0.0633 -0.0173 -0.1016
27185W        W42316  14.587   4.344   0.537  0.0117 -0.0491 -0.1716
27186W        W42317   7.421   0.957  12.386 -0.0582 -0.1555 -0.1713
27187W        W42318   5.718   5.650   5.003 -0.2493 -0.2525 -0.0166
27188W        W42319  13.649   6.728  13.278 -0.1716 -0.3135 -0.0310
27189W        W42320   0.077   1.262  14.651  0.3802 -0.0723  0.0779
27190W        W42321   2.639   7.453  12.972  0.0820  0.4328  0.0143
27191W        W42322  15.349  12.175   1.979 -0.2132  0.2674 -0.0380
27192W        W42323  18.185  12.442  11.417  0.0991 -0.0313  0.0417
27193W        W42324  15.261   5.951  12.943 -0.0299 -0.0649 -0.0245
27194W        W42325   1.005  16.990  11.846  0.2378 -0.0257 -0.1189
27195W        W42326   7.210  16.835  14.642 -0.1156 -0.0002 -0.0484
27196W        W42327   3.623   9.420  11.817 -0.0835  0.0561 -0.0577
27197W        W42328   1.695  16.128   5.268 -0.1652 -0.1731 -0.1036
27198W        W42329  11.864  14.217   1.193  0.2842  0.0318  0.1928
27199W        W42330  10.983  16.014   0.476 -0.0186  0.1013 -0.2337
27200W        W42331   6.376  14.037  13.022 -0.0758  0.1823 -0.2703
27201W        W42332   3.679   3.647  14.757  0.2527 -0.0539  0.0401
27202W        W42333   2.005   5.417  15.174  0.2528 -0.0835  0.2962
27203W        W42334   1.210  11.085  13.347  0.1542  0.2223  0.0698
27204W        W42335  13.839  12.903  15.465  0.0102 -0.3453  0.0278
27205W        W42336  16.700   0.157  14.333  0.0061 -0.0400  0.1060
27206W        W42337  15.231   3.596   2.283 -0.0654 -0.2914 -0.3907
27207W        W42338   0.053   4.937  11.512  0.0214  0.0895  0.1590
27208W        W42339   3.540  12.691  10.807 -0.0090  0.0940 -0.1615
27209W        W42340   8.999   8.343   0.999  0.3874  0.0409 -0.0767
27210W        W42341   5.218  14.439   2.886 -0.1062 -0.0623 -0.1316
27211W        W42342   3.309   7.214   0.511  0.1408 -0.1376  0.1869
27212W        W42343   4.732  13.580   2.597 -0.0421 -0.0822  0.2924
27213W        W42344   4.436   8.768   1.396 -0.1190  0.3024  0.0948
27214W        W42345  12.473  15.726  15.485  0.4159  0.0082 -0.1832
27215W        W42346  17.276   8.185   2.406 -0.3558  0.0854  0.2020
27216W        W42347  18.083  16.956  14.736  0.1035  0.1621 -0.0127
27217W        W42348  12.149   9.646   1.298 -0.1339 -0.0628  0.1196
27218W        W42349   0.779   8.366  13.503 -0.3583 -0.2823 -0.1822
27219W        W42350   0.862   0.514   0.970  0.3512 -0.0279 -0.1921
27220W        W42351   1.818   2.021  12.111  0.1316 -0.1093 -0.2485
27221W        W42352  12.466  11.126   4.310 -0.3328  0.0592  0.1893
27222W        W42353   5.372  17.544  12.591 -0.2460  0.1877  0.0098
27223W        W42354  15.076  15.358   0.048 -0.1412 -0.3059  0.0332
27224W        W42355  16.953   0.548   3.493  0.0818  0.0208  0.1481
27225W        W42356   0.103  14.002   2.489 -0.0823  0.0891 -0.0698
27226W        W42357   4.937  15.672  11.035  0.1030  0.2867 -0.3083
27227W        W42358  13.542  14.748  14.745  0.0882 -0.1904  0.1546
27228W        W42359   6.438  12.801  14.170  0.1656 -0.2010  0.0771
27229W        W42360   3.719   9.372  16.078 -0.0330  0.1989  0.4195
27230W        W42361   5.294   5.586  15.253  0.1640  0.2830 -0.0748
27231W        W42362  17.825  12.331  15.061  0.0771  0.4941  0.3374
27232W        W42363  11.269   6.554  14.508  0.0442  0.4380  0.1362
27233W        W42364  13.531   8.377   2.809 -0.0166  0.0287  0.2060
27234W        W42365   9.248   7.801   6.955 -0.1084  0.2801 -0.0088
27235W        W42366   3.090   2.625   3.049 -0.2408  0.1663 -0.4263
27236W        W42367  15.975   7.057  14.451  0.1244  0.0337 -0.0436
27237W        W42368  17.186   1.181   4.056  0.3350  0.0508 -0.2873
27238W        W42369   2.207  14.446   4.443  0.1358  0.1961  0.1379
27239W        W42370  11.662   4.800  12.325  0.0292  0.2820  0.3891
27240W        W42371   5.372  13.111  10.878 -0.1839 -0.3914  0.2791
27241W        W42372  12.196   8.573  12.953  0.1476 -0.3140 -0.0521
27242W        W42373  17.503  17.733  13.229 -0.0857  0.2700  0.4984
27243W        W42374   0.390   7.336  15.311  0.0015  0.2852 -0.1577
27244W        W42375  11.888  10.852  15.256 -0.0936  0.3127 -0.0056
27245W        W42376   8.455  14.659   3.126  0.0975 -0.1374 -0.0621
27246W        W42377   2.078  15.597   3.270  0.0759  0.0630 -0.0406
27247W        W42378   1.614   4.785   0.094 -0.1423 -0.0543 -0.0538
27248W        W42379  14.892  12.466   3.848  0.1269 -0.0016 -0.1635
27249W        W42380   7.626  12.063  11.589 -0.1383  0.3017  0.2609
27250W        W42381   1.357  11.901   2.130  0.0905 -0.1609 -0.3876
27251W        W42382   7.698   8.210  14.756 -0.1648 -0.1886 -0.3304
27252W        W42383  11.023  11.412   3.834 -0.1235 -0.0103  0.1320
27253W        W42384  11.766  16.926   1.257  0.2337 -0.1452 -0.1273
27254W        W42385   9.032  11.275  15.566  0.2003 -0.0910 -0.2175
27255W        W42386  15.800   6.315   0.440  0.4027 -0.0267  0.0570
27256W        W42387  10.213  15.088   4.370  0.1628  0.0153  0.0018
27257W        W42388  12.369  16.299   2.886 -0.1791  0.2147 -0.3008
27258W        W42389   6.692   3.636   1.671  0.1020 -0.2669  0.3233
27259W        W42390   4.534  13.160   4.782  0.0026  0.0451  0.0619
27260W        W42391  10.475  12.044   3.770  0.0207  0.0791 -0.1134
27261W        W42392  15.127   0.685  12.112  0.0892  0.0755  0.0482
27262W        W42393   4.341  17.162   1.129  0.0736 -0.1112  0.1079
27263W        W42394   3.030  11.779  13.132 -0.0744  0.3446  0.0461
27264W        W42395   1.933  16.101  13.540  0.2092 -0.0301 -0.3552
27265W        W42396  13.856  16.437   1.909 -0.2332  0.1269 -0.2268
27266W        W42397   1.497   9.492   2.690  0.1172  0.1661  0.3522
27267W        W42398  10.659  17.500  15.975  0.4144  0.0123 -0.2158
27268W        W42399  14.967   9.259  10.468 -0.2801 -0.2428  0.0601
27269W        W42400  14.593  14.072  15.919  0.0486  0.1339  0.1893
27270W        W42401   9.851   1.179   1.139  0.0136 -0.4660 -0.0382
27271W        W42402   4.576   7.379  12.815 -0.2852  0.1819 -0.2298
27272W        W42403   2.909  10.621  13.326 -0.2185 -0.1222  0.0900
27273W        W42404  13.221   7.497   1.912  0.0013 -0.1635 -0.1265
27274W        W42405   0.202   2.812  10.602 -0.3551  0.1934  0.1371
27275W        W42406   6.501   3.142  13.623  0.0329  0.3195  0.0838
27276W        W42407   5.144   1.737  11.771  0.0281 -0.1945 -0.3346
27277W        W42408  16.845  17.211   1.016 -0.0771 -0.1680 -0.1473
27278W        W42409   5.455   7.464   4.066  0.0981 -0.2699 -0.2821
27279W        W42410  15.179  13.122  11.283 -0.0767  0.2091  0.2073
27280W        W42411  16.679  10.866   4.326  0.0139 -0.1757  0.0772
27281W        W42412  12.004   0.275   2.109  0.3300 -0.2501  0.2633
27282W        W42413  10.491   9.990   1.463 -0.1527  0.0691 -0.1161
27283W        W42414  16.242   1.030  12.784 -0.1905 -0.2086  0.0519
27284W        W42415   8.909   4.509  14.388 -0.2611  0.2246  0.0628
27285W        W42416  16.347  17.789   2.175  0.0079 -0.1028  0.2828
27286W        W42417  17.179   3.217   4.809  0.0345  0.0840 -0.2696
27287W        W42418  10.400   6.891  14.084  0.0204 -0.1559  0.2398
27288W        W42419  12.835  14.584  14.074 -0.2202  0.0160 -0.1118
27289W        W42420   4.484   3.699  13.319 -0.2112 -0.3636  0.0853
27290W        W42421   4.585   4.859  11.118  0.0728 -0.2366  0.2194
27291W        W42422   3.900   4.327   5.386 -0.2252 -0.1884 -0.1203
27292W        W42423  11.117  13.892  10.613 -0.1034  0.0062  0.1245
27293W        W42424  16.068  15.815   0.479 -0.1933 -0.0982  0.0642
27294W        W42425   1.305   0.464  10.887  0.0524  0.2384 -0.0638
27295W        W42426  16.141  16.858   0.113  0.1475  0.0728  0.3386
27296W        W42427  10.534  11.946  13.911 -0.3376 -0.1286  0.0523
27297W        W42428   4.396  14.433   1.654 -0.1111 -0.1197 -0.1017
27298W        W42429   7.999   3.685  12.043 -0.1492 -0.3786 -0.1699
27299W        W42430  14.933   5.377   4.068 -0.1681 -0.1361 -0.2263
27300W        W42431  10.647   1.654  14.001  0.0886 -0.0376 -0.1659
27301W        W42432  17.940   0.035   3.070 -0.4230 -0.2387 -0.1477
27302W        W42433   8.392  12.356  14.731 -0.0912 -0.0473  0.1247
27303W        W42434   5.336   0.132   1.558 -0.1360 -0.0715 -0.0293
27304W        W42435  14.535  14.695  14.760  0.1886  0.0958  0.0596
27305W        W42436   4.635   1.157  10.329  0.0220 -0.0718  0.2046
27306W        W42437   9.577   4.996  12.848 -0.3576 -0.0827  0.2782
27307W        W42438  10.677  10.857  14.680  0.1512 -0.0020  0.0513
27308W        W42439   6.894  15.829   1.244  0.0145  0.4015 -0.0047
27309W        W42440  17.961   6.539   3.228 -0.1179 -0.1256  0.3202
27310W        W42441  13.620   7.170   5.060  0.0184  0.0557  0.1448
27311W        W42442  12.054  14.943   2.344  0.0319  0.2734 -0.2015
27312W        W42443  11.145  15.115  12.691 -0.0800 -0.1358  0.2302
27313W        W42444  11.771  15.652   3.155  0.2518  0.1533 -0.1075
27314W        W42445   0.012  16.326  14.609 -0.1810  0.2147 -0.1381
27315W        W42446  14.416  15.268  14.603 -0.2230 -0.1777  0.1673
27316W        W42447  11.292   8.462   0.777 -0.2149 -0.4483 -0.2869
27317W        W42448   1.369  11.044   4.517 -0.1086 -0.2131  0.0480
27318W        W42449   6.402   9.894  12.175 -0.1380  0.1297  0.3851
27319W        W42450   2.923  15.819  14.877  0.1244 -0.4092  0.1989
27320W        W42451  17.462   0.455   3.475  0.1473  0.0259  0.5129
27321W        W42452   6.634  10.348  14.092 -0.0667 -0.3576  0.2145
27322W        W42453  14.501   7.921   0.297 -0.0521 -0.3391  0.0156
27323W        W42454   6.343  17.244   3.459 -0.2631 -0.1853  0.4684
27324W        W42455   9.678  12.906   4.590 -0.0731 -0.2507  0.0366
27325W        W42456   1.615   8.015   2.272  0.2447 -0.2315  0.2501
27326W        W42457   1.532   5.651  14.973 -0.2561  0.1632 -0.2739
27327W        W42458   0.970   1.573  15.059  0.1651 -0.0591 -0.1003
27328W        W42459  12.986   3.048   0.501  0.3835 -0.1537 -0.3207
27329W        W42460  16.157   4.365   4.568  0.0183 -0.0716  0.0640
27330W        W42461   5.429   1.740  14.370  0.1838  0.0309 -0.1808
27331W        W42462   4.965   6.243   5.108 -0.1483  0.1133 -0.0627
27332W        W42463  13.192   0.635  10.909 -0.0529  0.0207 -0.0536
27333W        W42464  12.339  11.899  15.460 -0.1351  0.4713 -0.0981
27334W        W42465  11.519   3.488  15.234 -0.1427 -0.0834 -0.0470
27335W        W42466   4.968  13.397  14.300  0.0771  0.2434  0.1368
27336W        W42467  15.744  16.843   2.840  0.0463  0.1239 -0.1049
27337W        W42468   3.139   7.710  13.978  0.0824 -0.2151  0.0526
27338W        W42469   6.516   9.741  15.418  0.1141  0.0214  0.2228
27339W        W42470   3.622   8.781   2.053 -0.2823  0.1793  0.2230
27340W        W42471  17.659   3.101  12.200 -0.0092  0.2931  0.3023
27341W        W42472   2.439  15.701   4.715  0.2908 -0.2329 -0.1557
27342W        W42473  10.006   5.573   5.192  0.2113 -0.0920  0.2505
27343W        W42474  13.488   3.872  15.099  0.2195  0.1452 -0.0465
27344W        W42475  14.854   7.844   1.453  0.2103  0.0612  0.2524
27345W        W42476   1.884   2.563  13.825 -0.0495 -0.3577 -0.2025
27346W        W42477   6.386  14.896   0.427 -0.4579 -0.0493  0.3732
27347W        W42478  12.972  10.123   4.290  0.1929  0.1876  0.0620
27348W        W42479  17.474   3.210   2.979 -0.1455  0.2032 -0.0774
27349W        W42480   7.155  12.104  13.167 -0.1552  0.2500  0.1223
27350W        W42481  16.982   0.078  11.382 -0.2350  0.1902 -0.0263
27351W        W42482  11.890   4.501  15.540 -0.0258 -0.4118  0.0125
27352W        W42483  12.283  16.770   2.084 -0.1914  0.2277 -0.0707
27353W        W42484   0.358  13.617  12.712  0.2817 -0.1232 -0.1845
27354W        W42485   4.880  13.166  11.144 -0.2505 -0.0514  0.0584
27355W        W42486  15.005   4.282  14.404  0.1467 -0.4062  0.3821
27356W        W42487   5.404   9.329   3.763 -0.0836  0.0135 -0.2059
27357W        W42488   4.091   6.472   3.539 -0.0944  0.3457 -0.1455
27358W        W42489  15.649  12.680  15.660  0.0273 -0.2833 -0.1088
27359W        W42490  15.467   1.757   3.358  0.2339 -0.0282 -0.3025
27360W        W42491   6.757   6.636   1.489  0.1585 -0.0531 -0.0786
27361W        W42492  18.202  12.939   5.858  0.0500 -0.5310 -0.3498
27362W        W42493  10.329  13.619   1.036 -0.0978  0.1609  0.1617
27363W        W42494  16.629  18.237   0.127  0.2654 -0.1449  0.0742
27364W        W42495   9.760   6.318   5.825  0.1613 -0.5827  0.1485
27365W        W42496  13.568   3.195  11.723  0.0796 -0.1255 -0.1617
27366W        W42497  17.549   6.486  15.756  0.4741  0.0637 -0.1003
27367W        W42498   3.910   4.526   2.262 -0.1206 -0.0587  0.0552
27368W        W42499  17.858   1.982  13.902  0.2252  0.0872 -0.1085
27369W        W42500   7.933  11.968   0.055  0.1417  0.0637  0.0966
27370W        W42501   8.426  11.349   0.297 -0.1563 -0.2382  0.2601
27371W        W42502  12.641   1.469   1.985  0.3369 -0.0169 -0.1007
27372W        W42503   0.094  11.183   3.418 -0.3920 -0.0497 -0.1983
27373W        W42504   6.307   0.239  13.630 -0.2430 -0.0777  0.2041
27374W        W42505  17.282  10.509  12.218  0.1328 -0.2750  0.0453
27375W        W42506   4.590  15.591  15.695 -0.0278 -0.1275 -0.6192
27376W        W42507   6.704   1.718   1.484  0.1760  0.3453 -0.0076
27377W        W42508   3.471  11.515   3.943 -0.0835 -0.0965  0.2492
27378W        W42509   2.674  16.589   3.186  0.3228 -0.3592  0.1081
27379W        W42510   1.350  14.077  12.870  0.0861 -0.1464 -0.0858
27380W        W42511  10.671  11.054  10.474  0.1740  0.0938  0.4471
27381W        W42512  16.944   4.790   5.621 -0.0548 -0.2380 -0.0264
27382W        W42513  14.631  16.948   2.952 -0.0940  0.1085 -0.1210
27383W        W42514   4.644   1.957  14.386  0.0673  0.0556  0.0451
27384W        W42515  15.090  15.715  11.886 -0.0092 -0.0874  0.1066
27385W        W42516  15.501  14.131   3.203 -0.0630 -0.2792 -0.0976
27386W        W42517   8.072  16.293   4.840 -0.0450  0.1442 -0.0586
27387W        W42518   0.622   9.195   1.826 -0.0309  0.2048 -0.2679
27388W        W42519   8.669  12.577   1.795 -0.3501  0.0502  0.1320
27389W        W42520   0.811  13.216  15.642 -0.0502  0.1775  0.2370
27390W        W42521  15.071  10.459  15.099  0.0698 -0.0042 -0.1994
27391W        W42522  12.904  13.825   2.137 -0.1295 -0.0120 -0.0349
27392W        W42523   8.887  12.614  15.258 -0.1519 -0.3077  0.1393
27393W        W42524  12.612  12.139   0.925 -0.3123 -0.0428 -0.0186
27394W        W42525   4.244   4.771   5.280 -0.0914  0.0641  0.3634
27395W        W42526  10.936  17.578  15.577  0.2812 -0.0611  0.1224
27396W        W42527  14.116   7.825   0.676 -0.1619  0.0050 -0.0596
27397W        W42528   6.620  14.434   5.232 -0.0312 -0.2900 -0.1865
27398W        W42529  16.452   7.561   0.526 -0.0343  0.4450 -0.0819
27399W        W42530   4.910  16.717   0.312  0.1498  0.2666 -0.1466
27400W        W42531   3.356  10.631  12.515  0.0217 -0.1239 -0.0967
27401W        W42532  16.976  13.314   2.211  0.0125  0.0515 -0.4082
27402W        W42533   3.962  16.356   1.712  0.2970  0.0865  0.2470
27403W        W42534   2.369  13.220  11.826 -0.0308  0.0120  0.0965
27404W        W42535   0.143  10.296  15.779 -0.2658 -0.0326  0.2220
27405W        W42536   2.230  18.380   0.225 -0.0945  0.2084  0.0582
27406W        W42537  11.293  12.843  15.424 -0.2376 -0.2483 -0.2850
27407W        W42538  13.612  11.609   0.791  0.1944 -0.1490  0.0095
27408W        W42539   0.680   8.884  16.093  0.4471  0.0970 -0.2558
27409W        W42540   3.600  16.464   2.730 -0.1044  0.3158  0.0218
27410W        W42541  16.306  14.273  12.736 -0.3107  0.1579 -0.0237
27411W        W42542   9.966  15.143  14.177 -0.0680 -0.0415 -0.2145
27412W        W42543   9.711   6.665   1.111  0.0911  0.0695  0.4167
27413W        W42544  17.114   0.059   0.174 -0.2051  0.3010 -0.0301
27414W        W42545   4.663  17.520   0.217 -0.2703 -0.0306  0.2771
27415W        W42546   7.979  15.029   3.499  0.1103  0.1630  0.4396
27416W        W42547   6.413  13.511  14.304 -0.3051 -0.0775  0.0106
27417W        W42548  11.287  12.651  10.958 -0.1237 -0.0861  0.2425
27418W        W42549  11.373  15.588   2.828 -0.0640 -0.0684 -0.0085
27419W        W42550   4.713   8.080   5.489  0.1937 -0.2164  0.5640
27420W        W42551  18.114  11.458   3.489 -0.0286 -0.1470  0.2478
27421W        W42552   0.612  18.371   0.296  0.3367  0.2070 -0.0549
27422W        W42553   5.808   4.651  13.402  0.0564  0.0789  0.3143
27423W        W42554  14.973  10.279  13.336 -0.3032  0.4113 -0.1317
27424W        W42555  11.883   3.100  15.226  0.1296  0.2206 -0.0111
27425W        W42556   3.304  18.144  11.571 -0.0684  0.2674  0.3452
27426W        W42557  17.759   7.321  15.438 -0.1986  0.1492  0.1061
27427W        W42558  11.980  13.015   4.830 -0.1370  0.0187  0.1065
27428W        W42559   8.199  11.908  12.260  0.1707  0.2337 -0.2148
27429W        W42560  13.250  15.767   4.198 -0.3276  0.1096  0.0751
27430W        W42561  13.245  13.872   3.236  0.1958 -0.2565  0.1349
27431W        W42562  12.433   4.166   6.380 -0.1730  0.2541 -0.2671
27432W        W42563   3.675   0.847  12.305 -0.2342 -0.1751 -0.1029
27433W        W42564  10.264  12.326  13.938 -0.0903 -0.0222  0.0592
27434W        W42565   3.247  11.613   0.625 -0.2144 -0.0191 -0.0739
27435W        W42566   0.064   2.906   0.479  0.2248  0.1643 -0.4667
27436W        W42567  17.822  10.791  15.737  0.1421 -0.1564 -0.0431
27437W        W42568  11.628  14.639  12.928 -0.1146  0.1659 -0.0621
27438W        W42569  11.058  13.703  14.902 -0.0106 -0.0525 -0.1115
27439W        W42570  12.562  15.940   5.122 -0.1029 -0.1813 -0.1861
27440W        W42571   4.125  10.406   0.713 -0.3774 -0.0116 -0.1102
27441W        W42572   5.632  15.451   4.960 -0.0844 -0.3755 -0.0148
27442W        W42573   2.804  13.940   0.653  0.1013  0.2943 -0.2724
27443W        W42574   6.932  15.532   1.652 -0.1602  0.2639 -0.0202
27444W        W42575  17.996  14.326  11.788  0.3230  0.3372 -0.0857
27445W        W42576   4.268  15.930   4.518 -0.3115 -0.1822 -0.0717
27446W        W42577   6.498   3.555   3.780 -0.3648 -0.1957 -0.0854
27447W        W42578   6.738   8.340   5.233  0.1640 -0.0578 -0.5063
27448W        W42579  12.043   9.298  14.754  0.0263  0.0299 -0.2088
27449W        W42580   8.583  13.173  15.914 -0.0867 -0.1336 -0.1589
27450W        W42581   9.407  17.111   0.305  0.1101  0.0418 -0.1022
27451W        W42582  14.990   2.039   3.545 -0.1053  0.1584 -0.0299
27452W        W42583   9.463   1.767   4.560 -0.1753 -0.1911 -0.3321
27453W        W42584  11.223  17.939  15.402 -0.2904 -0.1286 -0.3272
27454W        W42585   4.839   1.477   2.123  0.1595 -0.1648 -0.2009
27455W        W42586   3.197   9.163   3.955  0.2086 -0.3468 -0.1576
27456W        W42587   0.133   2.816   4.570 -0.0897 -0.1339  0.0632
27457W        W42588  11.305   0.074  11.235 -0.2989 -0.1671 -0.0786
27458W        W42589  13.799  16.306   0.851  0.1371 -0.1060  0.0207
27459W        W42590  15.882   3.844  11.999 -0.0369  0.2936 -0.2789
27460W        W42591   6.158   8.908  12.354 -0.3167 -0.2389  0.2346
27461W        W42592   6.258  13.883  16.094  0.2720  0.1560  0.0418
27462W        W42593  10.724  13.184   5.497 -0.3207 -0.1959  0.0123
27463W        W42594  16.959  15.226  10.639  0.1635  0.0324 -0.0642
27464W        W42595   6.265  18.227  14.853 -0.0250 -0.0890 -0.0450
27465W        W42596   5.848   1.630   0.981  0.3067 -0.3386 -0.0510
27466W        W42597   6.719  11.523  13.936 -0.2499 -0.0714  0.2526
27467W        W42598  16.321  11.325   4.102  0.1125 -0.0101  0.1122
27468W        W42599   1.031   3.454  14.893  0.0066  0.2726  0.0811
27469W        W42600   8.062   7.598   2.751  0.4577  0.0767 -0.1304
27470W        W42601  10.646   7.363   0.740  0.0241 -0.2538  0.1239
27471W        W42602   1.868   2.730  15.503  0.0980  0.2662 -0.0250
27472W        W42603   3.070   7.587  14.991  0.1512  0.1204  0.2565
27473W        W42604   8.769  17.133   4.023 -0.2160  0.2391 -0.0052
27474W        W42605   5.126  12.676  15.639  0.1786 -0.0953 -0.2684
27475W        W42606  15.152   0.394   2.809 -0.0011  0.0795  0.0124
27476W        W42607  17.674   1.463   2.350  0.1587 -0.1539  0.1453
27477W        W42608   1.512   7.556  11.330  0.0653  0.3672 -0.1704
27478W        W42609   9.611   5.466  15.658 -0.0757 -0.2941 -0.3820
27479W        W42610   4.545   7.964  13.048  0.1072  0.0288  0.2949
27480W        W42611  10.617   9.147  11.970 -0.2266 -0.0617  0.1564
27481W        W42612   4.201  14.019  15.513  0.2407  0.2228 -0.3131
27482W        W42613   5.030   0.927   4.227 -0.1208  0.1771  0.0258
27483W        W42614   0.436  14.960  12.969  0.1825  0.2006  0.0838
27484W        W42615  15.436  15.687   0.232  0.1483  0.1277 -0.3757
27485W        W42616   8.736   1.326   0.322 -0.0287  0.2777 -0.1239
27486W        W42617  10.310   0.332  12.228 -0.1857  0.0026 -0.1612
27487W        W42618  15.744   6.861   0.474  0.0867 -0.2417 -0.2211
27488W        W42619   5.090   6.714  12.263 -0.2361  0.0233  0.2104
27489W        W42620   0.302  16.032   2.919  0.1583 -0.0708 -0.0977
27490W        W42621  16.230   7.340  14.168 -0.0657 -0.0718 -0.1811
27491W        W42622   5.460   6.474   1.145 -0.1060 -0.0480  0.2652
27492W        W42623   9.425   6.729   4.835 -0.1996  0.3086  0.0082
27493W        W42624  12.908  10.739  13.947 -0.0248 -0.3488  0.0586
27494W        W42625  16.234  12.730  14.733 -0.0699  0.1146 -0.1116
27495W        W42626   6.886  16.304  15.832 -0.0129  0.1566  0.0923
27496W        W42627  15.287  16.842  13.038 -0.2398 -0.2121  0.1660
27497W        W42628  11.055  13.228   3.330 -0.2138 -0.0429  0.0852
27498W        W42629  11.610   7.806  12.816 -0.1889  0.0489  0.0531
27499W        W42630   6.002   4.709   5.124 -0.1742  0.0405  0.0639
27500W        W42631   6.744   0.123   3.169 -0.1338  0.1052 -0.1263
27501W        W42632  14.964   8.407  14.589  0.3415 -0.0327 -0.0544
27502W        W42633  11.488   5.684  12.729  0.0081 -0.2992  0.2516
27503W        W42634  16.001   0.566   0.105  0.2178 -0.0589 -0.1813
27504W        W42635   7.567  14.201  14.709 -0.1376 -0.0457  0.0072
27505W        W42636   4.331  12.329   2.809  0.0892 -0.1626  0.2178
27506W        W42637   7.322   6.345  15.268 -0.1431  0.4283  0.1579
27507W        W42638  14.196  17.229   9.939 -0.0380  0.3895 -0.2832
27508W        W42639   5.487   2.789   3.212 -0.0305 -0.2574 -0.0716
27509W        W42640  14.706   6.846  14.245 -0.2461  0.0002  0.1446
27510W        W42641   1.471  15.705   1.084  0.2180  0.0305 -0.1476
27511W        W42642   9.599   6.637  12.002 -0.4280 -0.2592  0.2746
27512W        W42643   4.232  15.051   4.285  0.2695  0.0016  0.0316
27513W        W42644   0.266   1.579  15.628  0.0572 -0.2520 -0.0194
27514W        W42645  12.301  16.704   2.553  0.2923  0.0149  0.2303
27515W        W42646  10.873  13.915   3.271 -0.1739 -0.0057  0.0741
27516W        W42647   0.281  11.345  14.215  0.3399 -0.1621  0.0824
27517W        W42648  13.075   6.527   4.523  0.0080 -0.1966 -0.1828
27518W        W42649  13.733   6.134   2.948  0.1577 -0.0917  0.0602
27519W        W42650   3.708  13.839   1.077  0.1823 -0.1311  0.0738
27520W        W42651  11.433   4.538   4.692  0.1460  0.1021 -0.1904
27521W        W42652   2.886  18.484  11.707  0.1901  0.1223 -0.2570
27522W        W42653  13.083   2.024   0.586 -0.1464  0.0087  0.1217
27523W        W42654  13.475   9.907  11.680 -0.0740  0.1902  0.3488
27524W        W42655  11.896  15.353   2.024 -0.0255 -0.0799 -0.1755
27525W        W42656  10.482   3.205  12.062 -0.2089  0.0259 -0.0949
27526W        W42657  15.843  12.849   2.667 -0.0888 -0.2292  0.0823
27527W        W42658   1.755   8.683  14.269  0.0037  0.4793  0.1407
27528W        W42659  16.447   8.391   3.314  0.1464  0.1627 -0.1584
27529W        W42660  17.475   3.549   0.787  0.0621  0.0587  0.3953
27530W        W42661   4.450  13.787   3.939 -0.0888 -0.0617 -0.1492
27531W        W42662  14.948   5.836   3.843 -0.0168 -0.1679  0.0827
27532W        W42663  14.789   3.268   2.442  0.3490 -0.1822  0.1886
27533W        W42664   1.819  14.507   1.079 -0.0428 -0.0275  0.1707
27534W        W42665   1.942  10.712  11.457 -0.0841 -0.1281 -0.0259
27535W        W42666  15.918  13.597   4.519  0.1048  0.3279 -0.0289
27536W        W42667   0.187  16.767  15.652 -0.3814 -0.1356  0.0984
27537W        W42668  11.257   0.053   4.112 -0.2583  0.0070 -0.0938
27538W        W42669  14.308   8.069   4.223  0.1210 -0.2373  0.3476
27539W        W42670  15.729  11.395   5.411 -0.0940 -0.0241  0.0784
27540W        W42671   4.135  12.314  11.178 -0.0607 -0.2054  0.0323
27541W        W42672   9.723   7.767   1.451  0.0743 -0.1112  0.1821
27542W        W42673  17.200  15.744  14.278  0.3952 -0.1010  0.1087
27543W        W42674   6.191   4.050  12.273 -0.0632 -0.0002  0.2026
27544W        W42675  11.283  15.750   1.654  0.0581  0.1993  0.1741
27545W        W42676   4.875   1.228   3.034 -0.2433 -0.0460  0.3711
27546W        W42677  18.231  10.635  10.503 -0.1086  0.0036 -0.1589
27547W        W42678  14.331   3.997   3.519 -0.2553 -0.2247 -0.1855
27548W        W42679  18.137   3.694   0.475 -0.0455 -0.0112  0.1935
27549W        W42680  14.630  10.076  12.133 -0.0877 -0.0100 -0.1486
27550W        W42681  16.007   4.642   3.618  0.2231 -0.4159 -0.0204
27551W        W42682   9.866  16.213  15.466 -0.1353  0.2187  0.0254
27552W        W42683   5.286   8.478   3.976 -0.1801  0.3204  0.1531
27553W        W42684  16.172   8.174   4.397  0.2087  0.0497  0.0920
27554W        W42685   5.735  11.103   1.768 -0.0832 -0.0768  0.4682
27555W        W42686  15.151  18.065   2.305 -0.2336 -0.0302  0.4462
27556W        W42687   1.189  12.073   0.634  0.1446  0.1927  0.0633
27557W        W42688   2.881  11.176   3.486  0.3160 -0.1683  0.0904
27558W        W42689   9.863   2.909  12.345  0.3475 -0.1807 -0.1637
27559W        W42690  16.632  10.129  13.391 -0.0154 -0.1715 -0.0040
27560W        W42691  10.267   9.629  15.237 -0.0574  0.2766  0.3578
27561W        W42692  13.461   4.045   2.161  0.1627 -0.3094  0.1655
27562W        W42693  14.326   7.106  14.623  0.0479 -0.0104  0.2924
27563W        W42694  13.206   2.629  14.601 -0.0864 -0.0430  0.4180
27564W        W42695  17.060   7.101   2.010  0.1447  0.1290 -0.0444
27565W        W42696   9.885  10.134   2.645  0.1471  0.0713  0.1214
27566W        W42697   0.904   2.449  11.662 -0.1392 -0.1008 -0.2547
27567W        W42698  13.391  13.337   0.513 -0.0210 -0.1251 -0.1849
27568W        W42699  15.253  15.440   5.371 -0.0390  0.0365 -0.1055
27569W        W42700   9.956  17.575  11.729 -0.1986  0.0949  0.1820
27570W        W42701  17.910   5.429   1.231 -0.3094  0.0535  0.1222
27571W        W42702  18.400  17.023  12.284 -0.0376  0.3707  0.1409
27572W        W42703   5.428  15.035  12.324 -0.0114  0.0024 -0.0541
27573W        W42704   5.910   2.317  14.646  0.1983  0.3025  0.3160
27574W        W42705  18.364   9.537  13.485  0.0189  0.2506 -0.1074
27575W        W42706  15.578   7.536   3.292 -0.0715  0.1553 -0.1429
27576W        W42707   6.900  16.901   4.935 -0.1352 -0.2575 -0.0876
27577W        W42708   4.986  15.195  14.815 -0.1025  0.2151  0.0385
27578W        W42709  11.099   5.039   5.356 -0.1004  0.0829 -0.2315
27579W        W42710  15.580  12.264  10.671  0.0479 -0.2815  0.0866
27580W        W42711  13.603   7.830   0.719  0.0274  0.0550  0.1770
27581W        W42712   3.579   7.961  11.902 -0.3134  0.0993 -0.1781
27582W        W42713  16.121  10.448  15.996  0.2849 -0.2284 -0.0522
27583W        W42714  16.093  15.821  14.443  0.2443  0.2695  0.1448
27584W        W42715  11.052   4.428   0.987  0.0565 -0.1430  0.2014
27585W        W42716   3.939  15.776   5.447 -0.1317  0.2298 -0.3360
27586W        W42717   1.459  11.001   3.621  0.0980 -0.4000 -0.1755
27587W        W42718   6.630  18.052  15.789 -0.4371  0.1856 -0.0398
27588W        W42719   1.115   0.144   1.250 -0.2459 -0.3864 -0.0613
27589W        W42720  10.196  14.380   0.522  0.2850 -0.1382 -0.0545
27590W        W42721  10.744   1.755   0.623 -0.0946  0.1469  0.2217
27591W        W42722   6.470   0.455   2.805  0.0635 -0.1504  0.0140
27592W        W42723   5.734   9.766   3.776 -0.1503 -0.4029  0.1491
27593W        W42724  13.244   9.776   4.678  0.2591  0.0501 -0.3479
27594W        W42725   2.587   3.264   1.308 -0.1035 -0.1075 -0.2038
27595W        W42726   4.575  11.230   4.017 -0.1056  0.1507  0.0867
27596W        W42727  14.163   9.021   1.300  0.2564 -0.0870 -0.2451
27597W        W42728  11.561  11.844   0.984 -0.0162 -0.1276  0.0436
27598W        W42729  17.676  17.411   2.086  0.2539 -0.1327 -0.2282
27599W        W42730   7.352  10.425  14.459 -0.0729  0.0030  0.0949
27600W        W42731  11.128  14.187   4.358 -0.1487  0.0434  0.3076
27601W        W42732  16.619   5.527  10.207  0.0795 -0.0921  0.2214
27602W        W42733   0.774   9.226  10.970  0.0917  0.0791 -0.1693
27603W        W42734  11.835  16.115  11.875  0.0686 -0.2275 -0.1472
27604W        W42735   0.824  11.878   0.895 -0.0632  0.0905  0.0579
27605W        W42736  12.686   3.037   5.548 -0.1161  0.1671 -0.0174
27606W        W42737   6.102   1.939   2.213  0.0730 -0.0267 -0.2050
27607W        W42738   5.337  18.255  11.082 -0.1673 -0.1566  0.2244
27608W        W42739   6.794   7.562  12.303 -0.1494  0.0711  0.0889
27609W        W42740   7.098  14.923   4.449 -0.1809 -0.0456 -0.0712
27610W        W42741  13.470   1.358   4.658  0.0622  0.0052  0.2629
27611W        W42742   5.843  17.868   0.163 -0.3618 -0.1437  0.0304
27612W        W42743   3.455  16.291   4.676  0.0861  0.1432 -0.1285
27613W        W42744   1.745   4.202   5.200 -0.0550 -0.1124  0.1645
27614W        W42745   1.353  12.878   4.269 -0.1330 -0.0213 -0.1499
27615W        W42746  11.766  14.188   3.434  0.0254  0.5723 -0.1352
27616W        W42747  15.049   2.462   1.973 -0.0379 -0.0040 -0.1714
27617W        W42748   0.029  13.465  14.846  0.1254  0.1412 -0.1000
27618W        W42749   3.485   0.550   3.223 -0.5219  0.2970  0.0355
27619W        W42750   7.106   7.632   3.185 -0.0149  0.1370  0.2613
27620W        W42751  10.841  17.219   1.964  0.1666  0.2397  0.1483
27621W        W42752  13.882  17.154  14.187  0.1993  0.2784  0.3127
27622W        W42753   6.942   0.518   5.542  0.3512  0.3061  0.0037
27623W        W42754  10.555  10.324  14.816  0.2421 -0.1632 -0.2270
27624W        W42755  17.700  17.055   5.028 -0.4409  0.3536  0.0193
27625W        W42756  15.927  13.111  11.616 -0.5305 -0.2435  0.1399
27626W        W42757  17.295  16.885   5.182  0.0617 -0.5260 -0.0931
27627W        W42758   6.936   1.971   4.751  0.2666 -0.1435  0.0201
27628W        W42759   0.545  10.412   3.589  0.0312 -0.0268  0.1019
27629W        W42760   9.202   4.722   2.236  0.1102 -0.4412 -0.0433
27630W        W42761  18.057  17.728  10.940 -0.1234 -0.4304  0.0320
27631W        W42762  14.791  16.307   5.252 -0.6692 -0.1529  0.0417
27632W        W42763   4.236  15.542  16.000 -0.0828  0.1327  0.0746
27633W        W42764   2.830   7.391  14.409  0.1287 -0.3228 -0.1117
27634W        W42765   6.648   6.778   3.569 -0.1317  0.0170  0.2176
27635W        W42766  10.361   2.144   3.005  0.3187 -0.0710 -0.0119
27636W        W42767  14.230   0.452  10.563 -0.0675 -0.1185 -0.1899
27637W        W42768   8.197   6.743   2.972 -0.1842 -0.1677 -0.1749
27638W        W42769   1.389   4.215   4.721  0.0935 -0.0651 -0.2216
27639W        W42770   6.802  18.294   2.050  0.0241  0.3254  0.0396
27640W        W42771   2.111  11.925  14.869 -0.2503 -0.1001 -0.0680
27641W        W42772   1.703  11.558  12.456 -0.3344  0.0222  0.3959
27642W        W42773   1.728  17.662   3.988  0.0081  0.1694 -0.0385
27643W        W42774  10.123   6.519  12.127 -0.1304  0.1753 -0.0531
27644W        W42775  17.899  10.042   3.815  0.3423  0.2435 -0.1739
27645W        W42776   0.165   1.237  12.197 -0.1278 -0.0465  0.0796
27646W        W42777  15.442  18.293  10.933  0.2279  0.0973  0.0471
27647W        W42778   0.440   8.377   1.333 -0.3222  0.1616 -0.0973
27648W        W42779  13.505   9.399  11.680  0.2662  0.3965 -0.2718
27649W        W42780   9.597   7.152  13.665 -0.1536 -0.0555  0.3287
27650W        W42781   0.932   0.897   4.445  0.2169 -0.1553  0.2055
27651W        W42782  16.376  16.519  16.002  0.2796  0.2497  0.0737
27652W        W42783  14.012   0.923   2.739  0.0703 -0.0474 -0.0314
27653W        W42784   7.577  14.807  11.168 -0.1003 -0.4341  0.2235
27654W        W42785   5.709   3.160   1.138 -0.1810  0.0307 -0.1220
27655W        W42786  10.939   1.383   4.151 -0.2098  0.1065  0.2273
27656W        W42787   9.693  18.427   3.229 -0.2383 -0.0223  0.1221
27657W        W42788  17.304  14.780   1.934 -0.1729 -0.0899  0.1257
27658W        W42789   0.726   7.803  14.986 -0.1635 -0.1387  0.2107
27659W        W42790   4.006   3.676   0.969 -0.1621  0.0528 -0.0152
27660W        W42791  10.489   0.217  14.054  0.0033  0.2437 -0.2928
27661W        W42792  13.102   5.705   2.138 -0.1668 -0.3232 -0.0137
27662W        W42793   3.408   4.028   0.994 -0.0994 -0.0604 -0.2841
27663W        W42794   4.055   1.123  10.267  0.1362 -0.0586  0.1963
27664W        W42795  10.992   1.781  15.158 -0.2003  0.0474 -0.0006
27665W        W42796  14.121  12.263  10.270 -0.1624 -0.0914 -0.1614
27666W        W42797   8.658   2.098  14.605  0.0871 -0.0109  0.2889
27667W        W42798  14.456  14.279   1.290 -0.1641  0.0923  0.1071
27668W        W42799  10.585   8.256   1.969 -0.0265  0.3951  0.0523
27669W        W42800   7.564   2.910   4.961  0.3579 -0.0517 -0.3574
27670W        W42801   6.895  16.779  13.462  0.1741  0.0132  0.1057
27671W        W42802  11.794   6.548   0.454 -0.0237  0.0881  0.0799
27672W        W42803  18.431   2.793   2.679 -0.0053  0.1791 -0.0720
27673W        W42804   7.429  11.559   4.918 -0.0618 -0.2521 -0.2292
27674W        W42805  18.106   6.118   0.812  0.1435  0.2831 -0.2789
27675W        W42806  10.905  17.345   3.275 -0.1456 -0.2643 -0.0324
27676W        W42807   0.460  13.259   3.380  0.1918  0.1025 -0.0613
27677W        W42808  11.572   7.810   4.762 -0.0403  0.0269 -0.0650
27678W        W42809  12.789  13.030   0.224 -0.0164 -0.3554 -0.3590
27679W        W42810   8.371   9.633   3.751 -0.2513 -0.3738  0.1830
27680W        W42811  14.353  12.785   0.591 -0.0250 -0.3606  0.0675
27681W        W42812   8.407  15.416  12.903  0.2796 -0.2657 -0.3509
27682W        W42813  14.783   1.600   2.198  0.0250  0.0718  0.1293
27683W        W42814   7.793  15.486  14.151 -0.0998  0.3673 -0.2778
27684W        W42815   7.191  12.876  11.453 -0.2718 -0.0232 -0.1552
27685W        W42816   7.611  15.137  13.848  0.1141  0.1180 -0.1201
27686W        W42817   7.572   9.499  16.040  0.1183  0.1457  0.2760
27687W        W42818  17.156  18.236  15.351  0.0195 -0.0458 -0.0854
27688W        W42819  12.711  17.630  12.364  0.2600 -0.0645 -0.1561
27689W        W42820  14.159   6.706   2.873 -0.0348 -0.2548  0.0269
27690W        W42821   6.179  17.470   0.467  0.0326  0.2978  0.0455
27691W        W42822   8.132   7.162   0.558  0.1538 -0.0269  0.1453
27692W        W42823   8.775  15.002  14.087  0.0697  0.3180 -0.1366
27693W        W42824   1.561   8.380   1.097 -0.1151  0.0082 -0.2840
27694W        W42825   8.538  10.792  14.094  0.2464  0.1519 -0.0479
27695W        W42826  17.762   0.884   4.826  0.1655 -0.1762  0.2152
27696W        W42827  15.910   8.307   5.172  0.2581 -0.2682  0.3446
27697W        W42828  11.954   2.976   1.906 -0.0702  0.0142  0.0718
27698W        W42829   5.513   3.455   3.855 -0.0488  0.0500  0.2195
27699W        W42830   9.639   0.555  12.238 -0.3383 -0.3163 -0.0863
27700W        W42831   4.814   4.977   4.485  0.3133  0.4580 -0.1017
27701W        W42832  17.265  15.164  10.204 -0.0856 -0.0613  0.1479
27702W        W42833  13.201  15.537  14.221  0.0281 -0.0961  0.0966
27703W        W42834  15.438  13.775   3.789 -0.1309  0.2272 -0.0752
27704W        W42835  17.891  10.654   1.861  0.0135  0.2605  0.0127
27705W        W42836  15.396  15.020  10.353 -0.0445  0.0293  0.0216
27706W        W42837  10.325  12.850   2.182  0.0429  0.0684  0.0881
27707W        W42838   2.280   0.125  11.895 -0.0050 -0.1432 -0.3044
27708W        W42839  13.431   6.466  13.765 -0.1010 -0.2777 -0.0306
27709W        W42840  12.171  15.135  13.519  0.0656  0.0003 -0.0295
27710W        W42841   7.153  17.866  12.913 -0.0013  0.0170  0.5481
27711W        W42842  13.566   3.748  12.049 -0.0887  0.1249 -0.1272
27712W        W42843  12.477  12.278   2.023 -0.1011 -0.1815  0.0221
27713W        W42844  16.235  14.385  10.742  0.1643 -0.1658 -0.1180
27714W        W42845   9.556  18.113  11.471  0.0627 -0.2595  0.2912
27715W        W42846   5.799  10.276  13.005  0.0058  0.1450  0.0652
27716W        W42847  13.955   9.288  10.635 -0.1890  0.3275  0.2365
27717W        W42848  10.962   6.196   1.439 -0.1418  0.1549 -0.1021
27718W        W42849  17.033   2.300  11.920 -0.1464  0.0800  0.1024
27719W        W42850  10.624  13.048  12.877 -0.1798  0.3446 -0.0041
27720W        W42851   2.118   8.291   5.643 -0.0699 -0.1316  0.3470
27721W        W42852   7.161   8.240   4.273 -0.1239 -0.2541 -0.1593
27722W        W42853  17.529   9.711  13.923 -0.0457  0.3989 -0.0278
27723W        W42854   9.116   7.515  13.626  0.0208 -0.2282  0.0378
27724W        W42855  13.174  12.985   2.254 -0.0608  0.0980 -0.0252
27725W        W42856   7.458   2.124   2.224  0.2098  0.4798  0.2634
27726W        W42857  10.626  18.289  13.601 -0.1786  0.0621  0.0653
27727W        W42858  11.265  14.997   3.297  0.0641 -0.0879  0.0616
27728W        W42859   5.126  15.889   3.369 -0.1451  0.2215 -0.1676
27729W        W42860  10.122   3.182   4.479 -0.0628 -0.1199 -0.0529
27730W        W42861   7.265  10.746   5.305  0.2045 -0.1935  0.1852
27731W        W42862   7.681   7.947  13.419 -0.3355  0.0891 -0.1899
27732W        W42863  12.049  15.669   1.070 -0.0430 -0.2647  0.2380
27733W        W42864   9.020  11.763  15.382  0.1607  0.1266  0.1419
27734W        W42865   7.484  11.356  13.690  0.1197  0.1221  0.1005
27735W        W42866   5.718   9.099  11.756  0.1867  0.0143 -0.0738
27736W        W42867   0.795   3.227   3.516 -0.2932  0.1372 -0.2130
27737W        W42868  15.059  18.361  13.269  0.1127  0.0079  0.0091
27738W        W42869  10.454   9.571  11.716 -0.1072 -0.0587 -0.2116
27739W        W42870   1.916   6.397  14.331 -0.4687 -0.2535 -0.0694
27740W        W42871   3.945  14.544   2.368  0.1337 -0.0747  0.0874
27741W        W42872  12.116  10.844  14.678 -0.0331 -0.2102 -0.0176
27742W        W42873   8.418   7.562  14.945  0.1053  0.0023 -0.0503
27743W        W42874   0.439  15.196   4.962 -0.3523  0.3359 -0.2209
27744W        W42875   9.177  15.836   5.365  0.0035 -0.1620 -0.0263
27745W        W42876   4.059   9.194   2.824  0.1667  0.0702 -0.0952
27746W        W42877   7.664  16.574  15.417  0.1409 -0.1482  0.0042
27747W        W42878   7.676   3.282   4.431 -0.0097 -0.1625 -0.1741
27748W        W42879   2.213   2.491   3.576  0.1109 -0.0239  0.0638
27749W        W42880  17.035  10.211  12.598  0.0014 -0.0153 -0.1382
27750W        W42881  14.191  16.505   2.655  0.0019 -0.1330 -0.0244
27751W        W42882   7.711   1.903   6.120 -0.0516  0.0235 -0.2413
27752W        W42883   1.526   6.672   4.354 -0.2574 -0.2329  0.0433
27753W        W42884   7.323  14.325   4.073  0.0161  0.0736  0.1704
27754W        W42885  15.532  17.820  10.638  0.1719 -0.0609 -0.0983
27755W        W42886  15.054  11.377   0.426  0.0233 -0.2438  0.4869
27756W        W42887   1.329   9.664   1.018 -0.3900  0.3803  0.0514
27757W        W42888  17.325  15.402  14.643 -0.0496  0.0128  0.1181
27758W        W42889   8.055  17.368  11.667 -0.0722 -0.1035  0.1529
27759W        W42890   1.340  18.119  11.169 -0.0567  0.5397  0.0442
27760W        W42891   6.374   7.262  14.497  0.0732  0.0335  0.1322
27761W        W42892   4.384   9.328   1.616  0.1744  0.1956 -0.0849
27762W        W42893   9.634   5.524   5.549 -0.0256  0.5411  0.4411
27763W        W42894  11.654  10.290  11.789  0.0556  0.0082 -0.0757
27764W        W42895   5.036  16.794  15.958  0.1433 -0.1160  0.0762
27765W        W42896   7.596   3.000  11.440  0.1667  0.0087  0.1498
27766W        W42897   7.850  10.669   5.434 -0.2027  0.1992  0.1595
27767W        W42898   6.712   2.886   3.207  0.3233 -0.0224  0.0672
27768W        W42899  12.743  17.697   1.901 -0.0626 -0.2226 -0.3097
27769W        W42900  13.615   6.668   5.221 -0.1182 -0.2543  0.1699
27770W        W42901   2.576   1.954  13.208 -0.0264 -0.2839  0.1461
27771W        W42902   4.311   0.201  13.771 -0.0350  0.0634  0.2143
27772W        W42903  17.107   7.541  11.054  0.1196  0.1174 -0.2315
27773W        W42904  10.692  11.417  13.789 -0.1969  0.0339 -0.1319
27774W        W42905  11.914   5.508  15.245 -0.4537 -0.0949  0.1774
27775W        W42906  13.252   3.410  14.748 -0.3102 -0.0002  0.2105
27776W        W42907   7.489  13.466   4.079 -0.3853 -0.0747  0.0265
27777W        W42908   9.701   0.980   2.391 -0.1119 -0.0571  0.2768
27778W        W42909   3.656  14.244  11.295  0.2010  0.2208  0.1107
27779W        W42910  10.436  10.880   0.932 -0.0776  0.1878 -0.1741
27780W        W42911  17.467   1.216   2.811  0.6328 -0.0058 -0.0336
27781W        W42912   0.941   7.157   1.944 -0.0463 -0.0163 -0.0100
27782W        W42913   1.289   7.776   5.872  0.1686 -0.4327  0.0142
27783W        W42914   3.348  15.268   4.889 -0.1425 -0.0351 -0.1245
27784W        W42915  16.914   6.044   2.781  0.1989  0.0823 -0.0842
27785W        W42916   3.345   6.091   1.527  0.4589 -0.2713  0.1676
27786W        W42917   0.983   4.691   3.941 -0.0679  0.2587  0.4400
27787W        W42918   8.385   1.974  15.801 -0.3123 -0.0207 -0.3873
27788W        W42919  15.424   4.441  10.245  0.1187  0.1923  0.0050
27789W        W42920   0.893  14.144   4.847  0.0434  0.0226  0.1335
27790W        W42921   2.984   2.978  12.854 -0.0440  0.1878 -0.0134
27791W        W42922  15.901   6.220   5.304  0.3592 -0.0419 -0.0268
27792W        W42923  13.886   5.157   5.403 -0.1066 -0.0464 -0.1668
27793W        W42924  12.906  14.411  15.520 -0.3384  0.0200  0.0579
27794W        W42925   5.982   9.629  14.164  0.0956  0.1298  0.1149
27795W        W42926  18.104  12.563   3.612 -0.1448  0.1721  0.1835
27796W        W42927   4.941   4.776  13.581  0.1395 -0.0885  0.1231
27797W        W42928  15.238  15.262   3.700 -0.2523 -0.0679 -0.0959
27798W        W42929   4.144   7.677   1.095  0.1541  0.0770 -0.1199
27799W        W42930   2.724   9.414   4.095 -0.1522  0.0755  0.0270
27800W        W42931   4.542   5.482   0.754  0.2809  0.0414  0.0527
27801W        W42932   3.571  18.282   4.639 -0.1066 -0.0129 -0.5632
27802W        W42933  13.493   5.615   6.256 -0.1912  0.4045  0.2556
27803W        W42934  14.462  13.858   2.161 -0.2636  0.3099 -0.0849
27804W        W42935   2.173   1.514   4.879  0.2123 -0.0538 -0.1057
27805W        W42936   6.889   7.386  10.197  0.0643  0.1084  0.3141
27806W        W42937  11.741   8.327  12.837  0.0674  0.1524  0.2876
27807W        W42938   7.851   9.802  11.716  0.1870  0.0071 -0.0637
27808W        W42939  11.108  13.514  12.222 -0.0497 -0.0373 -0.0957
27809W        W42940  16.195  17.382   3.653  0.1206  0.0963 -0.0548
27810W        W42941  13.118   6.472   5.029 -0.2984  0.1096  0.1194
27811W        W42942  12.644   5.034  14.841  0.0688 -0.0976 -0.5208
27812W        W42943  12.771   0.291   0.818 -0.0537 -0.1809  0.2252
27813W        W42944  13.825   7.313  14.877 -0.0867  0.1078  0.1635
27814W        W42945   8.238  12.621   4.474  0.5902  0.0405  0.3746
27815W        W42946   5.533   4.730   0.618 -0.0651 -0.6636 -0.1268
27816W        W42947   4.119   1.275  15.326  0.0981  0.3383  0.4271
27817W        W42948   9.593   7.968  11.972 -0.0313  0.0710 -0.3841
27818W        W42949  15.944   8.156   6.222  0.3960  0.0857  0.0739
27819W        W42950   9.700  17.439   0.896 -0.4231 -0.1700  0.0985
27820W        W42951   8.741  13.866  14.704 -0.2566  0.0156  0.0730
27821W        W42952   5.003  14.703  14.477 -0.1868 -0.1998 -0.1666
27822W        W42953   3.910   6.147   5.010  0.0177  0.0904  0.0342
27823W        W42954   7.717   2.315   5.810 -0.2105 -0.1551 -0.0290
27824W        W42955  15.886   7.133  11.619  0.0611  0.0466 -0.0001
27825W        W42956  17.098  10.680   4.072  0.0839  0.0146 -0.0614
27826W        W42957  12.934  17.543   2.346  0.1834 -0.0061 -0.0289
27827W        W42958  16.205  13.004  15.668 -0.1416 -0.2728  0.0969
27828W        W42959   3.261  15.746   4.737  0.1340 -0.0125  0.4819
27829W        W42960  13.852  12.852   5.745 -0.0189  0.0467 -0.1090
27830W        W42961   9.664  15.132  10.932  0.0043  0.1615  0.0708
27831W        W42962  11.539  11.622  11.777 -0.0597  0.0963 -0.3269
27832W        W42963   5.501   7.630   4.816  0.0702 -0.2675 -0.0536
27833W        W42964  17.274  12.868  14.045  0.0007 -0.2254 -0.3313
27834W        W42965  18.064   1.565  10.457  0.2702  0.2049 -0.0166
27835W        W42966  18.262   0.692   3.780 -0.3272  0.4026  0.0371
27836W        W42967   2.406   6.655   0.314 -0.0240 -0.2664 -0.0243
27837W        W42968   8.524   4.023   3.695  0.2656  0.0600  0.2570
27838W        W42969   0.283   3.583   5.799  0.1128  0.1018  0.1495
27839W        W42970  10.342  14.995  11.821  0.0803  0.1253  0.0506
27840W        W42971   7.648   9.191  15.184  0.1275 -0.0573  0.4417
27841W        W42972  17.589   7.447  12.043  0.1328 -0.0940  0.1766
27842W        W42973   5.214   5.253   4.431 -0.4311  0.0258  0.0685
27843W        W42974   0.063  14.642  15.260  0.0458  0.0238  0.1118
27844W        W42975  10.206  15.843  14.858 -0.0541 -0.2376  0.0180
27845W        W42976  18.143   5.544  14.231  0.2310 -0.2464 -0.3879
27846W        W42977  17.124   4.816  13.803 -0.0664  0.0280 -0.0572
27847W        W42978  13.445  15.209   2.470 -0.1679  0.1879  0.1321
27848W        W42979  15.599  10.277   2.913 -0.0830 -0.1361 -0.1134
27849W        W42980   1.011  16.863   4.334 -0.0492  0.1756  0.2110
27850W        W42981   2.990  11.574  11.010  0.1009 -0.1200  0.1377
27851W        W42982   3.498   3.518   4.170 -0.1849 -0.0492 -0.1302
27852W        W42983   0.075   9.094   4.705 -0.1113  0.1526  0.2081
27853W        W42984   5.181  11.817   4.420 -0.0471 -0.0791 -0.2668
27854W        W42985  14.798  18.224   0.617 -0.1970 -0.3533  0.0557
27855W        W42986   1.939   8.037   0.607  0.4677 -0.1268  0.4253
27856W        W42987  11.079  11.660  15.064 -0.3269  0.1277 -0.0487
27857W        W42988   8.687  10.381   0.003 -0.0922  0.1055  0.2965
27858W        W42989  11.750   9.893  13.550  0.1112  0.3487 -0.1846
27859W        W42990   6.489  13.101  15.580 -0.2260  0.2849  0.0440
27860W        W42991  12.884   9.648  14.883 -0.1245 -0.0265 -0.1589
27861W        W42992   8.314   2.972   2.110  0.0691 -0.3492  0.1067
27862W        W42993  13.220  14.193  10.869 -0.0298 -0.0504  0.2316
27863W        W42994   7.670  13.786  13.644 -0.1510  0.0284 -0.0322
27864W        W42995  14.928   7.191  13.694 -0.1382 -0.0111  0.3023
27865W        W42996  14.540   2.440   1.998 -0.1680 -0.0640  0.2056
27866W        W42997  11.646   7.302   4.760 -0.3627  0.0497  0.1987
27867W        W42998   9.594   2.571   3.872 -0.0519 -0.1167 -0.2917
27868W        W42999  14.352  15.476   0.776  0.0935  0.1210 -0.1558
27869W        W43000   7.393  15.297  15.690 -0.2491  0.0401  0.0192
27870W        W43001  13.335   9.524  15.089  0.3622 -0.2355  0.0167
27871W        W43002  12.950   5.832  12.566 -0.0950 -0.1270  0.0542
27872W        W43003   1.040  11.877  14.299 -0.1858 -0.2740 -0.0411
27873W        W43004  15.007  10.445   1.825 -0.0509 -0.0350  0.0556
27874W        W43005  10.750  16.476   3.142 -0.1500  0.2040 -0.0058
27875W        W43006  15.680   6.257   2.843  0.0455  0.0034  0.1012
27876W        W43007   5.280   2.230  14.208  0.2820  0.1347 -0.0011
27877W        W43008  13.537   6.101  14.608 -0.0949 -0.0115 -0.0532
27878W        W43009   2.824   7.494   1.676  0.0317 -0.0603  0.1211
27879W        W43010  18.335  16.307   1.496 -0.4533  0.4349 -0.1225
27880W        W43011   3.927  14.828  12.054 -0.2125  0.0028  0.4109
27881W        W43012  13.169  12.765  16.032 -0.0656  0.2201  0.2117
27882W        W43013   4.578  12.147  12.869  0.4494 -0.2421 -0.0232
27883W        W43014  11.343   0.463  12.316 -0.1343  0.0665  0.1367
27884W        W43015   3.195   5.100  15.643  0.1463 -0.0567  0.0174
27885W        W43016  16.763   4.947   4.573  0.0541 -0.1375 -0.1931
27886W        W43017  17.510   8.802  11.908  0.2517 -0.3207  0.2816
27887W        W43018   7.134   3.364   1.949  0.0276  0.0842  0.0980
27888W        W43019   0.104  17.033   1.553 -0.0029 -0.2344  0.1011
27889W        W43020  17.221  11.828   0.582  0.0963 -0.1264 -0.0065
27890W        W43021  14.824  12.490   0.671  0.3570 -0.0582  0.1868
27891W        W43022   7.177   2.180  11.061  0.1694  0.1668  0.0106
27892W        W43023   1.329   2.595   2.999 -0.1013 -0.3099  0.4900
27893W        W43024   3.569  13.227  13.169  0.0287 -0.0318  0.1021
27894W        W43025  15.972   6.862   1.148  0.0793 -0.2144 -0.2436
27895W        W43026  12.359   9.255   5.089  0.3108  0.2232  0.0985
27896W        W43027  10.345  16.454   4.895  0.1973  0.1314 -0.0940
27897W        W43028  17.434  11.118  14.867  0.1545 -0.0489  0.0017
27898W        W43029   5.951   2.810   3.126 -0.0549  0.1065 -0.4185
27899W        W43030  12.662   4.538   0.673 -0.0983 -0.0702 -0.2307
27900W        W43031   5.956   3.238   0.156  0.3049  0.1452 -0.2428
27901W        W43032  16.836   1.480  11.162 -0.3512 -0.3062 -0.0185
27902W        W43033  12.198  14.605  13.037  0.1158 -0.1272 -0.1051
27903W        W43034   7.108   9.014  15.065 -0.1486  0.1167  0.1641
27904W        W43035   3.976   4.238  15.404 -0.2489 -0.0951  0.0226
27905W        W43036  13.381  10.570  14.299 -0.0087  0.1414 -0.0284
27906W        W43037  18.015   0.645   2.265  0.3040 -0.0209  0.1028
27907W        W43038   2.765   5.179  14.514 -0.2246  0.1434  0.3276
27908W        W43039  16.203   8.058  16.107  0.1820  0.0154 -0.3118
27909W        W43040   5.084   5.615  15.785  0.0209  0.1050  0.2936
27910W        W43041  13.346   7.590  15.081 -0.0480 -0.2254  0.3047
27911W        W43042   0.991   4.439   4.357 -0.0972 -0.2059 -0.1020
27912W        W43043  10.996   4.118   4.556 -0.0416 -0.2322  0.2522
27913W        W43044   5.669  14.791  10.568 -0.3455  0.0248 -0.1139
27914W        W43045   5.102   3.234   1.320  0.0633  0.2646 -0.0261
27915W        W43046   9.100   5.856  13.482 -0.1695  0.1568 -0.0439
27916W        W43047   7.730   6.370  14.644  0.1935 -0.0463 -0.2678
27917W        W43048   5.377   6.815  15.505  0.4224 -0.1382  0.0054
27918W        W43049   1.819  16.989  16.053  0.0492 -0.1900 -0.0748
27919W        W43050   6.668  17.535  13.336  0.2321 -0.0010 -0.2672
27920W        W43051   7.850   9.784   4.995  0.2090  0.1798 -0.0785
27921W        W43052  16.626   4.300  14.638  0.1011 -0.2551 -0.0796
27922W        W43053  11.790   1.984   2.177 -0.0657  0.3259  0.0046
27923W        W43054  17.816   8.264  15.148  0.2415 -0.0674 -0.0329
27924W        W43055   0.309   9.514   0.796  0.0182 -0.1592 -0.0330
27925W        W43056   1.175   7.066   3.347 -0.0290  0.0263  0.1088
27926W        W43057   2.911   9.967   0.196  0.0589  0.1634 -0.1199
27927W        W43058   9.998   1.768   4.595  0.1836  0.1866 -0.0518
27928W        W43059  14.568  16.699   4.170 -0.0674 -0.2611 -0.4238
27929W        W43060   8.328  12.568   2.269 -0.1498  0.1202 -0.1410
27930W        W43061   2.139  14.835  14.644 -0.2753 -0.5393  0.0635
27931W        W43062   4.689  14.460   4.586 -0.0537  0.2628 -0.1381
27932W        W43063  15.003   5.960  11.394 -0.1758 -0.1582 -0.0756
27933W        W43064   4.809   2.160   4.800  0.4178 -0.2630  0.1093
27934W        W43065  15.484  12.467  11.163  0.0731 -0.1940  0.0553
27935W        W43066  15.989  12.387   3.555 -0.2266  0.0445  0.0985
27936W        W43067   3.545  14.835  10.704  0.1226 -0.1372 -0.0744
27937W        W43068  14.806  14.170   3.671  0.0390 -0.2561  0.1735
27938W        W43069   0.327   9.365  11.244  0.2176 -0.2129  0.0350
27939W        W43070  16.443  15.099  15.631 -0.2068 -0.0470 -0.0174
27940W        W43071  10.866  14.662   4.536  0.2883 -0.1122  0.1547
27941W        W43072   3.495  12.393  14.466 -0.1353 -0.1057 -0.0249
27942W        W43073   8.389   5.118   6.092 -0.2303  0.1655 -0.2006
27943W        W43074   9.530  15.365  15.961 -0.0310 -0.1352  0.0858
27944W        W43075  13.205   9.667  11.262  0.3108 -0.1930  0.1644
27945W        W43076   7.402   5.173   1.777 -0.5327 -0.0709  0.0502
27946W        W43077   1.376   4.136   4.164 -0.0294 -0.0337 -0.0359
27947W        W43078  14.631   0.413  15.070 -0.0099 -0.0435 -0.0382
27948W        W43079  16.479   2.006   5.495 -0.5866  0.3604 -0.0668
27949W        W43080  15.197   1.142  11.964  0.0416 -0.0169  0.4647
27950W        W43081  11.905  16.962  15.930  0.3335  0.0128 -0.1752
27951W        W43082   7.170  17.983  16.098  0.3015 -0.0969  0.2092
27952W        W43083  16.393   3.932   4.671  0.2457 -0.2429  0.2345
27953W        W43084   3.985   9.284  14.731 -0.1850  0.1027 -0.0578
27954W        W43085   0.310   3.245   1.547 -0.0834 -0.2605  0.0123
27955W        W43086   0.602   0.196  13.770 -0.1574 -0.2118 -0.0688
27956W        W43087  10.943   5.433  10.805 -0.4034  0.2069  0.1289
27957W        W43088  16.294  11.419  14.195  0.1351  0.2773 -0.1350
27958W        W43089   8.578  12.421  10.977  0.2890 -0.1684 -0.2289
27959W        W43090   6.476  16.739  14.767 -0.2565  0.0333  0.0399
27960W        W43091  13.706  17.492   0.445 -0.0585 -0.1261 -0.6109
27961W        W43092  10.575  15.723   0.051 -0.0647 -0.0689  0.3887
27962W        W43093  13.504  12.337  11.468  0.0145  0.3797 -0.1944
27963W        W43094   0.159   3.598  11.098 -0.1473 -0.2052  0.0313
27964W        W43095  11.318  14.785  13.628  0.0219 -0.0611  0.1030
27965W        W43096   8.198   4.543  15.091 -0.0365  0.0976 -0.0457
27966W        W43097  13.617  17.912  15.205 -0.0166 -0.0633  0.2459
27967W        W43098   6.003  12.925  13.259  0.3233  0.0067  0.0047
27968W        W43099   1.857  14.288  14.701 -0.0437  0.0148 -0.0362
27969W        W43100   7.801  10.726   0.821 -0.0664 -0.1713  0.1538
27970W        W43101  13.246   2.286   5.071 -0.0651 -0.3155 -0.1623
27971W        W43102   4.031   2.923  13.013  0.1026  0.2775  0.2140
27972W        W43103  15.425  13.563   1.623 -0.1678 -0.2085  0.0821
27973W        W43104   0.894  11.065   4.370 -0.0500  0.0739 -0.2711
27974W        W43105   4.596   6.267   1.022  0.3085  0.0187 -0.2387
27975W        W43106  14.197   1.759  14.324  0.1118  0.0084 -0.2612
27976W        W43107  11.851  14.142  11.839 -0.0460  0.0864  0.0568
27977W        W43108  10.722  10.733  16.033  0.0586 -0.0162 -0.3336
27978W        W43109  17.136   5.656  10.200  0.2697 -0.2293 -0.0630
27979W        W43110  12.273   1.368  13.946 -0.3771  0.3301  0.1036
27980W        W43111  15.027   6.622  11.706  0.0973  0.1006  0.1158
27981W        W43112  11.794   0.922   2.992  0.1647 -0.2292 -0.0213
27982W        W43113  14.000   0.879  12.399  0.3167 -0.0089  0.0347
27983W        W43114   2.748  16.222   1.241  0.2170  0.0989  0.1936
27984W        W43115  13.872  12.376  14.720  0.3084  0.0988 -0.2140
27985W        W43116   3.939  12.154   1.155 -0.1101 -0.3097 -0.0365
27986W        W43117  17.433   2.204  11.440  0.0092 -0.1037  0.3884
27987W        W43118   1.100  13.230  11.456 -0.0018  0.3202  0.2862
27988W        W43119  14.883   8.148   6.375 -0.1417 -0.0827 -0.2874
27989W        W43120   1.024  17.427   2.776  0.0116  0.0636  0.3710
27990W        W43121   0.747  12.385   0.728 -0.0687 -0.1333 -0.2794
27991W        W43122   4.266  12.113  13.940 -0.3492 -0.3083 -0.0536
27992W        W43123  10.200   8.217   4.804  0.1967 -0.0861  0.0214
27993W        W43124  16.483  15.160  10.899 -0.0907 -0.2546 -0.1457
27994W        W43125   5.893   7.343   3.242 -0.2109 -0.1946 -0.3080
27995W        W43126   8.252   8.847  14.548  0.0472  0.0369 -0.1226
27996W        W43127  15.717   1.328  11.994 -0.1485 -0.1244 -0.0129
27997W        W43128   0.393  11.733  10.562  0.0356  0.2026 -0.4124
27998W        W43129  13.289   0.293  16.059 -0.2525  0.3912 -0.2737
27999W        W43130   8.396  18.154  14.540  0.1295  0.3250 -0.1993
28000W        W43131  16.309   0.749  11.645 -0.1618 -0.1255  0.0823
28001W        W43132  11.848   2.044   1.658 -0.3547  0.2091  0.0053
28002W        W43133   2.218  12.301  12.594 -0.1389  0.1371  0.1496
28003W        W43134   7.628  12.432   5.575  0.2660  0.0206 -0.1373
28004W        W43135  17.123   8.075  14.805  0.2119  0.2666  0.0179
28005W        W43136   9.148  15.250   3.054 -0.2565  0.1794 -0.4491
28006W        W43137   9.486   7.065   6.492 -0.0345 -0.2474 -0.1265
28007W        W43138   9.780  12.345  16.030  0.0005  0.2404 -0.2194
28008W        W43139  18.168   0.919  12.587 -0.0650  0.0650  0.3238
28009W        W43140   5.504   4.485   5.029  0.3289  0.2084 -0.3336
28010W        W43141   9.284  15.330  13.112 -0.2313 -0.1755 -0.1855
28011W        W43142  17.613   6.760  14.126 -0.0021 -0.1583  0.3560
28012W        W43143  16.445  15.461  14.195 -0.1905  0.0345  0.4455
28013W        W43144   2.022   8.144   3.082 -0.2075 -0.3765 -0.0497
28014W        W43145   7.055   6.066  14.885  0.1226  0.1196  0.0030
28015W        W43146  16.131  13.306  12.510  0.2789  0.3421 -0.0566
28016W        W43147  15.797  10.542   4.969 -0.1736  0.1029 -0.2329
28017W        W43148   9.549   3.452  15.060  0.2429  0.4225 -0.0397
28018W        W43149   0.891   0.677  11.046  0.2900  0.0270  0.0363
28019W        W43150   9.214  15.729  14.743  0.0531 -0.2986 -0.2895
28020W        W43151   3.119  11.172   0.417 -0.3285 -0.1299 -0.0962
28021W        W43152   4.569   7.603   1.336 -0.0658 -0.0263 -0.0957
28022W        W43153   4.062   2.300  12.384  0.3786 -0.2500 -0.0256
28023W        W43154   4.937  18.106   9.765  0.1100 -0.1517  0.2686
28024W        W43155  17.186  14.604  15.100  0.4770  0.0742 -0.0946
28025W        W43156   9.133  11.826  14.872  0.0023 -0.2760  0.1701
28026W        W43157  11.818  16.339   0.099 -0.2247 -0.0025  0.0850
28027W        W43158  14.782   5.721  11.844  0.3129 -0.3296  0.0262
28028W        W43159   1.917  12.207   3.372 -0.2928 -0.0821  0.1744
28029W        W43160   6.285  15.260   6.108  0.2511  0.3256 -0.3818
28030W        W43161   7.991  16.936  12.408 -0.0755 -0.1077 -0.1433
28031W        W43162   9.913   7.050   5.466  0.1405  0.1453  0.2344
28032W        W43163  10.639   2.823  15.047  0.2670  0.2027 -0.3134
28033W        W43164  12.314  13.120   4.484  0.0662 -0.0196  0.0186
28034W        W43165   6.519   5.795   5.266  0.0925  0.1277  0.1548
28035W        W43166   0.789   4.603  11.105 -0.1289 -0.0019 -0.4040
28036W        W43167  12.803  12.005  13.861 -0.1214 -0.0318 -0.0109
28037W        W43168  12.231   4.351   3.299  0.0693 -0.0677 -0.1541
28038W        W43169  18.253  10.401   4.106 -0.0464 -0.0325  0.0067
28039W        W43170   2.176   6.317   3.975  0.0519 -0.0283  0.0707
28040W        W43171   0.689  14.167  15.616 -0.3400 -0.1874 -0.0676
28041W        W43172   5.317   4.664   3.893 -0.0074 -0.0484  0.0944
28042W        W43173   7.103  12.180   5.620 -0.2136 -0.2482 -0.2735
28043W        W43174  11.555  11.821   5.637 -0.3232 -0.0419  0.2432
28044W        W43175   3.440  10.891  10.577 -0.3160 -0.2222  0.2938
28045W        W43176   6.541   1.919   5.070 -0.3044  0.0787  0.0278
28046W        W43177  15.953   3.855  12.541  0.1480 -0.3246 -0.0577
28047W        W43178   0.794   4.055   5.154  0.3531 -0.1316 -0.0308
28048W        W43179  16.627   4.464   4.706  0.3013 -0.4822  0.3219
28049W        W43180   5.270  12.970  11.843 -0.2407  0.1566  0.0328
28050W        W43181   8.899   3.056  14.272 -0.0025  0.2616 -0.2210
28051W        W43182  15.073   8.888  11.571  0.0308  0.0705  0.0793
28052W        W43183  15.252   9.111   1.052 -0.2208 -0.0281 -0.1010
28053W        W43184   2.324   2.745  13.618  0.0147  0.0996  0.1044
28054W        W43185  16.699  17.774   0.025 -0.0272 -0.0280 -0.1463
28055W        W43186  16.946  15.423  13.509  0.0470 -0.1517 -0.0500
28056W        W43187   5.525  14.693   3.292 -0.0533  0.0512 -0.0030
28057W        W43188   1.633  12.708  11.824 -0.0543 -0.0811  0.0295
28058W        W43189   8.646  17.992  13.045  0.0377  0.0295  0.0759
28059W        W43190   5.195  13.354   5.320 -0.1877  0.0732 -0.2696
28060W        W43191   4.126  14.817  12.642 -0.0485 -0.3590 -0.1548
28061W        W43192   7.923  16.407   5.419 -0.2776  0.0600  0.2872
28062W        W43193  11.739   0.255   4.152  0.0620  0.1125 -0.2257
28063W        W43194   2.827  14.498  13.319  0.0629 -0.4072 -0.1201
28064W        W43195  17.998  16.157   4.499 -0.0761 -0.2028 -0.0750
28065W        W43196   8.927  15.998   4.822 -0.0510 -0.1060 -0.2547
28066W        W43197   8.531   4.485  12.306 -0.0794  0.1627 -0.0083
28067W        W43198   8.506  13.872  15.429  0.1308  0.1615 -0.1433
28068W        W43199   8.157   3.136  14.354  0.2178  0.1103 -0.0731
28069W        W43200  13.692  15.248  13.367 -0.0471  0.0657  0.0654
28070W        W43201  16.220   6.676  10.987 -0.1937  0.0421  0.0027
28071W        W43202   7.064  13.200  13.562  0.0032 -0.1814  0.0610
28072W        W43203   7.355  12.193  13.991  0.0859  0.2283 -0.1762
28073W        W43204  14.235   1.245  13.485  0.1069 -0.2353  0.1932
28074W        W43205   4.595   2.518  12.198  0.1484 -0.4186 -0.1033
28075W        W43206  11.298   0.182  16.024 -0.0656 -0.0617  0.1582
28076W        W43207  17.596   5.887   3.868 -0.0549  0.0862 -0.1388
28077W        W43208  10.812  10.322   1.633 -0.1248  0.1337  0.3324
28078W        W43209  17.802  18.196  11.657  0.2505 -0.0934 -0.1803
28079W        W43210  12.770   0.657  10.542 -0.1111  0.1154  0.0825
28080W        W43211   1.146   1.739  14.453 -0.0539  0.3697 -0.0208
28081W        W43212  18.163  15.588   0.584 -0.1351  0.2034 -0.3920
28082W        W43213  17.175  14.654  13.959 -0.0660 -0.0813 -0.0472
28083W        W43214   8.178  17.954  15.313  0.1619 -0.2373  0.0433
28084W        W43215  13.187   3.588   2.529 -0.0420  0.3564 -0.1635
28085W        W43216   2.448  12.731  12.436 -0.0159 -0.1217  0.2526
28086W        W43217   5.126   6.309   6.314 -0.5589 -0.0030 -0.3216
28087W        W43218   5.384  13.121   4.825  0.1457 -0.2149 -0.1411
28088W        W43219  12.226  17.977   3.785  0.1387  0.1447 -0.1865
28089W        W43220   3.380   8.301   2.020  0.0659  0.2038  0.3079
28090W        W43221   6.862  12.106   4.898  0.1365  0.0077  0.0579
28091W        W43222  13.313   6.532   3.758 -0.2980 -0.3959 -0.3627
28092W        W43223  12.206   6.355   3.584 -0.2297  0.0276 -0.0370
28093W        W43224   5.506   0.786  14.697  0.0026  0.1436 -0.1605
28094W        W43225  12.128   2.409   2.476 -0.2222  0.0758 -0.0133
28095W        W43226  10.359  12.382   5.197  0.3048 -0.1895  0.0821
28096W        W43227   1.920   8.445  15.294 -0.0616  0.0320  0.3901
28097W        W43228   0.353   0.092   3.486 -0.1641 -0.0916  0.2180
28098W        W43229   1.952   0.405   1.494 -0.0205 -0.0131  0.0522
28099W        W43230   2.250   2.881  14.076 -0.0443  0.0189 -0.0279
28100W        W43231   4.983   9.111   2.249  0.1930  0.1874 -0.4619
28101W        W43232  10.992   6.365   0.216 -0.3225  0.0665 -0.2438
28102W        W43233  17.330  16.282  15.592 -0.3431 -0.0154  0.0082
28103W        W43234  16.047  14.865   2.697  0.0202 -0.0298  0.2718
28104W        W43235  15.291  17.497   3.880 -0.0884 -0.3412 -0.2412
28105W        W43236   5.268   4.216  12.483 -0.3225 -0.1670  0.0342
28106W        W43237  16.164   5.963   3.581 -0.0905 -0.0162 -0.2425
28107W        W43238  13.221  12.269  15.541 -0.1078  0.0563  0.0917
28108W        W43239   4.422   3.604   1.761  0.0764 -0.3445  0.0682
28109W        W43240  15.861   9.402  12.548  0.1215  0.0194 -0.0630
28110W        W43241  13.227   8.363  16.020  0.0639 -0.1106 -0.0647
28111W        W43242  14.863  12.884  12.633  0.0114 -0.0010 -0.1986
28112W        W43243   7.052   0.572   1.040 -0.2022  0.3787 -0.0048
28113W        W43244  10.567  14.896  12.607  0.0543  0.2086 -0.3124
28114W        W43245   1.121  11.140  15.732 -0.1113  0.1325  0.0205
28115W        W43246  11.160  10.722   1.737 -0.1153 -0.2994 -0.2123
28116W        W43247   5.222   2.918  12.371 -0.2263  0.2596  0.0772
28117W        W43248   6.669  14.651   4.543  0.1332  0.3582  0.0572
28118W        W43249   1.469   2.674  15.864 -0.0470 -0.0903  0.3619
28119W        W43250   4.835   0.977   2.045  0.4372 -0.1407 -0.0010
28120W        W43251   2.584   1.433  12.611 -0.3288 -0.1108 -0.1400
28121W        W43252  11.816   5.541  12.292 -0.1784 -0.0176 -0.2244
28122W        W43253  17.582  10.166  12.668  0.0373 -0.3252 -0.1851
28123W        W43254  10.650   8.347  13.387  0.0996 -0.0361  0.3704
28124W        W43255  11.254  10.535   3.430  0.1466  0.4406 -0.1830
28125W        W43256  16.411   9.387   5.446 -0.2743 -0.2202 -0.2068
28126W        W43257   7.689   7.356   1.259 -0.0179 -0.0956 -0.1360
28127W        W43258   3.781  11.553   3.013  0.0070  0.2290 -0.0373
28128W        W43259  15.845  17.302   2.701  0.2767 -0.0086 -0.0283
28129W        W43260   0.348   6.391   4.624  0.0633 -0.1377  0.6021
28130W        W43261  12.123  13.604   0.686 -0.1891  0.1529 -0.4191
28131W        W43262   3.595   0.329  13.931  0.0898  0.1476 -0.1183
28132W        W43263   9.359   7.719   3.833  0.2481  0.1113  0.2676
28133W        W43264   5.065  10.417   3.610  0.1444 -0.1279 -0.0178
28134W        W43265  11.285   0.640   4.399 -0.1999 -0.0145  0.3243
28135W        W43266   7.106   7.189  11.810 -0.1345 -0.3090  0.0075
28136W        W43267  15.077  10.855   2.086  0.0140  0.0542 -0.2980
28137W        W43268  13.842  11.039   0.430 -0.0901 -0.0972  0.0457
28138W        W43269  13.042   3.123   2.975  0.1610  0.1240 -0.3551
28139W        W43270   2.769  16.635  13.827  0.0558  0.3824 -0.5439
28140W        W43271   4.147  18.183  14.522 -0.2124  0.1194 -0.1296
28141W        W43272   5.061  15.724   1.621 -0.0998  0.3451 -0.1566
28142W        W43273   6.837   6.887   0.461 -0.2141  0.0428  0.2115
28143W        W43274  12.480   4.350   4.645 -0.0059  0.4400 -0.2258
28144W        W43275  17.761   4.752   5.728  0.3739  0.0930 -0.0669
28145W        W43276  10.444  15.253   3.701 -0.4093  0.0169 -0.2423
28146W        W43277  10.837  14.140   0.955  0.3474  0.1940  0.0019
28147W        W43278  13.703  13.853  13.671  0.0356  0.4327 -0.1892
28148W        W43279   6.229  12.807   4.439  0.0573  0.0706 -0.1211
28149W        W43280  10.232  14.225   3.976 -0.0863  0.0071 -0.2085
28150W        W43281  18.384   5.219  14.547  0.0400 -0.1448 -0.0840
28151W        W43282   8.518  15.919  12.743 -0.1103 -0.3863  0.0130
28152W        W43283  10.101   1.275  11.916 -0.2293  0.1197 -0.2742
28153W        W43284   7.151  18.248   1.604 -0.0351 -0.0534  0.2688
28154W        W43285   7.252   2.625   3.826 -0.1645 -0.2157 -0.1033
28155W        W43286   2.749  16.147   2.942  0.0434  0.1214  0.4947
28156W        W43287  14.960   5.605   2.678  0.0177  0.0589 -0.1260
28157W        W43288   6.794  13.874   3.498  0.0649 -0.1534  0.0274
28158W        W43289   5.073  14.535   0.923 -0.0158 -0.1256  0.1608
28159W        W43290   7.484  17.091   0.717 -0.1691  0.4616 -0.2848
28160W        W43291   6.340  12.506  15.437  0.0271 -0.2125  0.0565
28161W        W43292   9.678   0.239   5.492  0.0105 -0.0725  0.0698
28162W        W43293  15.608  13.976  12.217  0.2241 -0.0641 -0.2845
28163W        W43294   3.054   8.597  16.003  0.3098  0.0661 -0.3265
28164W        W43295   6.935   4.163   3.651  0.1728  0.0174 -0.0865
28165W        W43296  11.229  12.637  14.981 -0.0525  0.0709  0.4486
28166W        W43297  14.662  16.525  10.250  0.0118 -0.0377 -0.0255
28167W        W43298  10.845  13.515   0.327  0.0827 -0.2511 -0.4887
28168W        W43299   8.712  12.289   3.158 -0.0020  0.6155  0.6204
28169W        W43300   3.314   0.270  14.893  0.4237  0.1147  0.2260
28170W        W43301  11.038  17.918  15.927  0.5097 -0.0249  0.0414
28171W        W43302  13.641   9.994  12.172  0.1001 -0.0139  0.3350
28172W        W43303  10.206   3.047  14.073  0.2602 -0.2175 -0.2909
28173W        W43304   9.051   6.230   1.853  0.1386  0.2178  0.0875
28174W        W43305   2.268   5.689   2.921 -0.1985 -0.1494  0.1663
28175W        W43306  10.127  10.591  14.995  0.1308  0.2973  0.0402
28176W        W43307   5.972   5.470  15.682  0.0555  0.0590  0.2073
28177W        W43308  18.269  14.224   0.808  0.1439 -0.1771 -0.0993
28178W        W43309  12.302   3.535   3.242 -0.2386 -0.1252  0.1143
28179W        W43310   8.005  16.061   3.219  0.0549  0.0429 -0.0101
28180W        W43311  11.329  10.682  14.053 -0.1407 -0.3021  0.2229
28181W        W43312   2.986   5.890   4.594 -0.2017 -0.1880  0.0050
28182W        W43313   6.423   5.043  13.857 -0.4230 -0.1550  0.0102
28183W        W43314  13.563  12.620   4.918  0.0928 -0.1598  0.1216
28184W        W43315  16.941  11.208  10.964  0.2900 -0.0371  0.2335
28185W        W43316  14.437   8.031   3.688  0.0184  0.2253 -0.2245
28186W        W43317   1.424  13.311   5.283 -0.1817 -0.0030  0.1283
28187W        W43318   3.202   5.543   2.715  0.1974  0.0917  0.3367
28188W        W43319  16.643   5.679   1.696 -0.1432 -0.1477 -0.0609
28189W        W43320  15.526  12.989   4.017  0.1892  0.3034  0.0296
28190W        W43321   3.919   5.902  14.095  0.0141 -0.2865  0.4019
28191W        W43322   1.553  12.219   3.028 -0.0599 -0.0109  0.2976
28192W        W43323   1.234  15.158  15.622  0.0905 -0.1047 -0.0137
28193W        W43324   9.468  13.033   2.614 -0.0578  0.2250 -0.1353
28194W        W43325   8.389   6.416   3.300  0.0239 -0.0449  0.4238
28195W        W43326   1.182   7.058  15.991 -0.1781 -0.0880  0.1112
28196W        W43327   3.208   4.800  13.899 -0.1424  0.0765  0.1430
28197W        W43328   6.916   7.102   2.233  0.0767 -0.2109  0.1387
28198W        W43329  11.514  12.656   4.673  0.3157 -0.2302  0.0350
28199W        W43330   4.065   1.121   3.655 -0.0954 -0.1666  0.1261
28200W        W43331  16.498  11.029  11.893  0.2343 -0.1170  0.5335
28201W        W43332   7.209  14.619   9.834 -0.2582 -0.1172 -0.2213
28202W        W43333   5.385  17.625  15.555 -0.2473  0.0597  0.1895
28203W        W43334   8.183  18.344  11.959  0.0733 -0.1259 -0.1241
28204W        W43335  12.755   3.986  10.958  0.0655  0.0852  0.2479
28205W        W43336  14.507  15.888   1.011 -0.1139 -0.1622 -0.0336
28206W        W43337  16.357   7.552  11.720  0.2140  0.2043 -0.2804
28207W        W43338   3.267   5.852  11.739 -0.1295 -0.0019  0.1055
28208W        W43339   2.075   9.084  14.569  0.1249 -0.1449 -0.2758
28209W        W43340  11.029  14.939   3.801 -0.0820  0.2376 -0.2144
28210W        W43341   1.985  10.621   4.293 -0.0598 -0.0005 -0.0452
28211W        W43342  15.879  17.505   0.224  0.0052 -0.0223  0.3262
28212W        W43343  12.948  10.312   0.503  0.1912 -0.0964  0.0325
28213W        W43344  14.855   5.897   3.026  0.1065 -0.0171 -0.3183
28214W        W43345  10.641  11.387   1.203  0.2178  0.3052 -0.1472
28215W        W43346  18.355   5.422   5.631  0.1504  0.0464  0.1741
28216W        W43347   8.277   9.688  11.448 -0.0351  0.1109  0.0182
28217W        W43348   6.722   7.189  15.189  0.1895  0.5178  0.0578
28218W        W43349   3.146  14.111  15.002 -0.1862 -0.1333  0.0566
28219W        W43350  16.829   8.250   3.615  0.1215  0.3062  0.3193
28220W        W43351  11.970   1.239  11.568  0.2397 -0.0433 -0.0869
28221W        W43352  10.165   4.703   0.151 -0.1173 -0.0633  0.0014
28222W        W43353  16.864   5.559  13.540 -0.3498  0.4904  0.0865
28223W        W43354   5.444  12.049   2.173  0.1188 -0.1055  0.2250
28224W        W43355   8.026   7.620   5.042 -0.0522  0.0950  0.1245
28225W        W43356   1.072   4.425  15.352  0.2548  0.3720 -0.0607
28226W        W43357   1.560  15.821  14.993  0.0909  0.1495 -0.0265
28227W        W43358   8.118   3.426   5.279  0.3824 -0.3530 -0.1051
28228W        W43359   8.690  15.759  10.510  0.2546  0.0656  0.2310
28229W        W43360   5.195   0.721  15.591  0.2852  0.1773 -0.2554
28230W        W43361   5.631   8.422   3.242  0.0162 -0.2530  0.0445
28231W        W43362   1.681   6.991   2.505  0.1857  0.2022  0.0169
28232W        W43363   6.694  13.481   5.499  0.1363 -0.1008 -0.0917
28233W        W43364  16.965   5.025   2.311 -0.3351 -0.0457 -0.0200
28234W        W43365   0.038   6.409  11.650  0.0800 -0.0413 -0.0207
28235W        W43366   6.147  13.939  13.905  0.1730 -0.1611  0.2314
28236W        W43367   7.144  15.104  13.760  0.4152 -0.0116 -0.1014
28237W        W43368   2.500   7.082  10.797 -0.0774 -0.1311 -0.1013
28238W        W43369   5.079  12.818  10.421 -0.1402  0.2389  0.0773
28239W        W43370  10.057   7.703  12.298  0.0939  0.2273  0.0309
28240W        W43371  12.674   8.307   4.165  0.1375 -0.1001 -0.5726
28241W        W43372   1.116   6.985   5.732 -0.1688 -0.1128 -0.1497
28242W        W43373   8.101   9.131  13.722 -0.2903 -0.1683  0.0467
28243W        W43374  13.204  10.682  10.836 -0.1284 -0.2393  0.0517
28244W        W43375  14.223   5.636   2.987  0.0630 -0.0381 -0.2006
28245W        W43376   7.486  12.253  12.745 -0.0335  0.1193  0.1187
28246W        W43377   9.021   2.884   1.444  0.1574  0.2927 -0.0261
28247W        W43378   1.140   2.078  12.769 -0.1435  0.3877  0.0024
28248W        W43379  15.501  18.427  15.473 -0.0252  0.2658 -0.0096
28249W        W43380   2.423  11.156   1.370 -0.3599 -0.1565  0.2283
28250W        W43381   4.310   0.321   2.380 -0.1428 -0.0359 -0.0798
28251W        W43382   0.234  16.094   1.166 -0.2899  0.1746  0.0790
28252W        W43383   9.790   7.692   0.954  0.0647  0.1227 -0.0896
28253W        W43384   4.971   2.887  13.770  0.1283 -0.2141 -0.2096
28254W        W43385  13.878   4.966   4.948 -0.1913  0.4062 -0.1475
28255W        W43386   8.055   4.614   5.365 -0.0248  0.0461 -0.2985
28256W        W43387   1.817   9.955  14.652 -0.1949  0.3651 -0.1416
28257W        W43388  11.707   2.293  15.481  0.0742 -0.0998 -0.0949
28258W        W43389  13.730  11.965   0.129 -0.0473  0.2601 -0.2691
28259W        W43390   6.011   8.070  12.727 -0.2349 -0.5741 -0.3061
28260W        W43391   7.314   1.889  12.745  0.2499  0.0452 -0.0700
28261W        W43392   4.826  12.784   3.593  0.1471 -0.3236 -0.1936
28262W        W43393   1.598   7.220  12.191 -0.2050  0.0314  0.2514
28263W        W43394  13.750   5.482   5.096 -0.0752 -0.1693 -0.0047
28264W        W43395   1.945  10.328   1.690 -0.2369 -0.1628  0.4730
28265W        W43396  18.226  13.815  15.102 -0.1221 -0.0204  0.1599
28266W        W43397  16.331  15.804  15.305 -0.0819 -0.0094 -0.0147
28267W        W43398  18.340  14.229   5.739  0.3351  0.2564  0.0605
28268W        W43399  16.700   0.494   3.024  0.0533  0.1882 -0.3081
28269W        W43400  15.693  14.246   2.625 -0.3517  0.0415  0.2141
28270W        W43401   2.850   3.525   1.703  0.2086 -0.0182 -0.0833
28271W        W43402   9.516   9.268  12.596  0.1786  0.0221  0.0208
28272W        W43403   9.517   6.755   0.170 -0.3011 -0.2432  0.2306
28273W        W43404  13.342  10.121  13.441  0.5277 -0.3614  0.0549
28274W        W43405  13.958  14.281   0.120  0.1806  0.0378 -0.1988
28275W        W43406   1.734   0.619  14.064  0.0081 -0.0338  0.0299
28276W        W43407  16.537  13.690  12.275 -0.1507  0.1020  0.4830
28277W        W43408  16.702   8.060   4.453  0.2139 -0.1774 -0.0482
28278W        W43409  17.165   6.264  10.995  0.0813 -0.0536 -0.2358
28279W        W43410  15.485  12.238   1.388 -0.0819 -0.1931 -0.1000
28280W        W43411   1.741  16.406  13.109  0.2321 -0.3968 -0.1944
28281W        W43412  14.593  10.532  11.879  0.3636 -0.0091 -0.2312
28282W        W43413   7.789  10.733   2.524  0.0865 -0.1716 -0.1853
28283W        W43414   6.507   1.284   5.202 -0.2133 -0.3587 -0.1898
28284W        W43415  14.482   0.891  12.099  0.0265 -0.1845  0.1847
28285W        W43416   7.595   0.565   6.101  0.0561 -0.3782  0.0257
28286W        W43417  17.331   8.358  15.150 -0.1638  0.2870 -0.0911
28287W        W43418  15.865   5.900   5.712  0.0417 -0.1159  0.0613
28288W        W43419   2.754  15.086   1.859  0.0030 -0.0102 -0.1481
28289W        W43420  13.247  12.317   4.621 -0.2364 -0.0251 -0.0188
28290W        W43421   6.796   9.432   0.215 -0.1066 -0.1960  0.2957
28291W        W43422   9.855  11.531   0.459  0.1323 -0.3346  0.0266
28292W        W43423   3.300  11.010   4.225  0.0642 -0.1722  0.0141
28293W        W43424   0.806   0.946   1.261 -0.1794 -0.1997 -0.4079
28294W        W43425  18.071  11.105  13.704 -0.2351 -0.4280  0.3403
28295W        W43426  13.040   1.619  12.895  0.2144 -0.0959 -0.2712
28296W        W43427  16.463   5.695  13.160 -0.0075 -0.0415  0.0184
28297W        W43428  11.859   1.818  15.377  0.2522  0.1398 -0.0916
28298W        W43429   9.853  14.136   1.756  0.3245 -0.1988  0.0058
28299W        W43430  18.400  12.253   3.325 -0.1657  0.0487 -0.3511
28300W        W43431   4.525   1.117  12.908 -0.0402 -0.1402 -0.2684
28301W        W43432  10.420  11.414  11.263 -0.0089  0.0064 -0.2209
28302W        W43433   8.069   8.285  14.378 -0.3313  0.4885 -0.0761
28303W        W43434   4.477   1.443  10.695  0.1560  0.3304 -0.2433
28304W        W43435   9.109   3.199  13.816  0.1034  0.2887  0.1219
28305W        W43436   8.164  15.142   3.060 -0.3276 -0.0234 -0.0099
28306W        W43437  16.824   8.239  14.177  0.2099 -0.2011 -0.1300
28307W        W43438   4.968  10.632   1.833  0.3174  0.0265 -0.4082
28308W        W43439   5.659   7.722  14.322  0.0401  0.0691  0.1361
28309W        W43440  15.309  11.380  10.570  0.1393  0.0671 -0.3516
28310W        W43441  15.809   2.824   5.494  0.3853  0.1187  0.0098
28311W        W43442  10.742   7.314   3.914 -0.2179 -0.3332  0.1577
28312W        W43443  15.306  17.442  11.345 -0.2730 -0.2108  0.2654
28313W        W43444   6.783   8.155  10.827  0.1241 -0.2762 -0.1128
28314W        W43445   0.645   5.130  12.407 -0.0978  0.0710  0.0476
28315W        W43446   5.642   9.045  15.380  0.0748 -0.0037  0.2344
28316W        W43447   4.739  16.525  11.052  0.0264  0.4254 -0.3590
28317W        W43448   2.109  15.235   3.994  0.0805  0.5031 -0.1356
28318W        W43449  10.632   3.211  14.255 -0.0092  0.0950 -0.0249
28319W        W43450  14.687  16.473  15.569 -0.0875  0.3352  0.1647
28320W        W43451   3.313  10.132  12.617  0.3811 -0.0492 -0.3114
28321W        W43452  12.091  18.218  12.120  0.0285  0.1078 -0.1160
28322W        W43453  15.301   9.313  14.249  0.1743 -0.0076 -0.0142
28323W        W43454   9.323  18.021   0.559 -0.2551 -0.2025 -0.3771
28324W        W43455  12.859   8.556  11.909 -0.1432 -0.0614  0.0532
28325W        W43456  15.900  16.394  15.890 -0.0734  0.2790 -0.1238
28326W        W43457   9.533  15.155   0.655 -0.1720 -0.0681  0.1490
28327W        W43458   6.111   5.177  15.200 -0.1347 -0.0831  0.2986
28328W        W43459  16.860  16.789  12.645  0.1919 -0.4292  0.3124
28329W        W43460   8.969   9.597  15.477 -0.0951  0.0419  0.1772
28330W        W43461   8.448   2.937  15.928 -0.1846  0.2720  0.1893
28331W        W43462   7.354  15.686  11.376 -0.0426  0.1791  0.0564
28332W        W43463   7.456  10.994  14.467 -0.2313  0.1259  0.2060
28333W        W43464   7.705   6.651  13.241 -0.2036 -0.0661 -0.3163
28334W        W43465  15.410   7.873   4.605  0.1931  0.0678  0.1068
28335W        W43466  12.788   4.485   1.558 -0.0749  0.2695  0.0966
28336W        W43467  17.047   8.215  12.250 -0.2658  0.2535  0.0246
28337W        W43468  10.938   6.668  13.307 -0.2957  0.4058  0.2244
28338W        W43469   7.463  17.521  12.608 -0.0058 -0.0743  0.1987
28339W        W43470   6.773   5.180   1.461  0.1029  0.1303  0.0290
28340W        W43471   7.928  14.962  14.850 -0.3201 -0.0412  0.0803
28341W        W43472  12.595   3.006   4.660  0.0106 -0.0690  0.1737
28342W        W43473   3.410  12.618   1.981 -0.0923  0.0138 -0.0573
28343W        W43474   6.111   6.373   0.040 -0.0281 -0.1486  0.0083
28344W        W43475  11.791   3.561  14.855 -0.1795  0.0004  0.0664
28345W        W43476  17.827  12.861   4.035 -0.1777 -0.2208 -0.2611
28346W        W43477  17.473   4.076  16.036 -0.0905  0.2036  0.1567
28347W        W43478   4.918  16.313   0.565 -0.2086 -0.1375 -0.3465
28348W        W43479   5.218   5.858  13.509 -0.1858  0.3508  0.2311
28349W        W43480  11.690  13.982   5.147  0.1512 -0.2898  0.1351
28350W        W43481  11.092  14.773   2.343 -0.0401 -0.2281 -0.2553
28351W        W43482   4.800  13.122   0.161  0.0674 -0.3031 -0.0642
28352W        W43483  12.535  12.844  14.598 -0.1800 -0.0768  0.0878
28353W        W43484   2.050  15.049   0.174 -0.1541 -0.1752 -0.0884
28354W        W43485  13.407   7.662   5.222  0.0056 -0.0590  0.3027
28355W        W43486   0.891   3.950   1.062 -0.1361 -0.1439 -0.0499
28356W        W43487  11.928  13.271   3.040  0.4119  0.0181  0.0838
28357W        W43488   2.257   2.327   2.628  0.1292 -0.2432 -0.0189
28358W        W43489   7.234   8.129   0.500 -0.0975 -0.1663 -0.1383
28359W        W43490   8.634  13.697   5.148 -0.2157 -0.1093  0.0409
28360W        W43491   4.456  17.310   4.522 -0.2241  0.0993 -0.1230
28361W        W43492   7.932  11.241  13.213  0.0063  0.0415 -0.2901
28362W        W43493   6.207   8.822   0.880  0.3573  0.0779  0.2300
28363W        W43494   2.653  12.699  15.143  0.0535 -0.0027  0.0291
28364W        W43495  15.105   5.270   4.987 -0.2888 -0.0585 -0.0466
28365W        W43496  17.554  15.642   1.052 -0.2925  0.3366  0.1436
28366W        W43497  17.100   8.899   5.916  0.1356 -0.1769  0.2207
28367W        W43498   1.409   1.614  11.277  0.0100  0.2373 -0.0496
28368W        W43499   6.446   5.788   5.831 -0.2097  0.1846 -0.2716
28369W        W43500  13.517   9.220   1.111  0.0818 -0.0017 -0.1645
28370W        W43501   0.496   0.004   4.935  0.0304  0.2956  0.1067
28371W        W43502  12.534  10.594   2.291  0.3625  0.1212 -0.0675
28372W        W43503   5.645  12.194   4.254 -0.1862  0.3730 -0.1552
28373W        W43504   3.329   7.945  12.736 -0.3871 -0.2676 -0.2344
28374W        W43505   2.201  10.605   0.281  0.1893  0.2323  0.0737
28375W        W43506   9.233  13.721   4.401  0.3021  0.2809 -0.2947
28376W        W43507   8.635   8.630   0.756  0.0588  0.0261  0.0870
28377W        W43508  14.797  10.378   2.420  0.0836 -0.1666 -0.0927
28378W        W43509   0.101   8.987   5.781 -0.1994 -0.0799  0.1345
28379W        W43510  13.022   8.503   4.472 -0.1025 -0.0303 -0.2145
28380W        W43511   6.797   0.276   1.825 -0.0819 -0.0295 -0.0393
28381W        W43512  13.189  13.653  16.027 -0.3299  0.0210 -0.0260
28382W        W43513   5.148   9.120   0.925 -0.2980  0.0237  0.1365
28383W        W43514   4.020   7.926  15.229 -0.0163 -0.0691  0.2838
28384W        W43515   6.271   3.831  14.434  0.1070 -0.2046  0.1824
28385W        W43516   0.068  17.496  16.055 -0.0249 -0.2016  0.0245
28386W        W43517   6.444  16.864   4.557 -0.1927  0.1618 -0.2977
28387W        W43518  13.448   1.016  15.226 -0.0987 -0.0428 -0.0085
28388W        W43519   9.128  17.832   2.454  0.0125 -0.2936  0.1644
28389W        W43520  15.737   8.983   5.701  0.0309 -0.0618  0.3472
28390W        W43521   9.986  16.837  12.054 -0.1280 -0.1212 -0.1490
28391W        W43522   0.299   0.975  10.967  0.1868  0.0948  0.4560
28392W        W43523   6.033  16.385  12.170  0.0035 -0.0334 -0.0936
28393W        W43524   4.406   8.504   3.922  0.2302 -0.0587 -0.2179
28394W        W43525   8.616   0.726  13.435 -0.0468  0.1362  0.0205
28395W        W43526  14.376  17.666  15.620 -0.0402 -0.0246  0.0623
28396W        W43527   5.573   5.015   5.896  0.0032  0.1223 -0.0229
28397W        W43528   9.082  10.062   5.633  0.0327  0.2688 -0.0757
28398W        W43529   4.665   5.648   5.095 -0.0656 -0.0147 -0.3427
28399W        W43530  14.699  10.563   0.997  0.2221 -0.0947  0.0511
28400W        W43531   9.749  17.037   3.614  0.3440 -0.0684  0.3394
28401W        W43532   8.626  12.062  12.184  0.5052 -0.1405 -0.0312
28402W        W43533   9.492  10.942  15.596 -0.2270 -0.0640 -0.3543
28403W        W43534  12.099  13.018   2.543 -0.2589 -0.1142  0.2936
28404W        W43535  14.085  16.469   3.994  0.3036  0.0325  0.0514
28405W        W43536   5.482   7.816   6.685  0.1783 -0.1397 -0.2634
28406W        W43537   1.352  10.429  12.973 -0.1058  0.1644  0.0633
28407W        W43538   8.353   4.308  11.785  0.1694 -0.3231 -0.0006
28408W        W43539   4.220   2.427  14.095 -0.0018  0.0455  0.2393
28409W        W43540   0.289   7.078   6.028  0.0476  0.3092  0.0352
28410W        W43541   5.595  14.460   0.880 -0.2161 -0.1589  0.0749
28411W        W43542  13.473  12.525  14.221  0.0974 -0.2580 -0.3364
28412W        W43543  12.310  16.024  11.626 -0.1672  0.0604 -0.0391
28413W        W43544  10.442   5.327  16.077  0.0842  0.0421 -0.0436
28414W        W43545   4.987  17.214   1.638 -0.2782 -0.2353 -0.1135
28415W        W43546  10.120   6.739  15.576  0.1203 -0.1309  0.1649
28416W        W43547   3.427  17.881  14.100  0.3077 -0.1725 -0.0621
28417W        W43548   5.379  17.243  15.879  0.1484  0.0515  0.0750
28418W        W43549   4.458   6.216   5.006  0.0413  0.2156  0.0032
28419W        W43550  10.946   9.455   5.095 -0.2230 -0.0181  0.0253
28420W        W43551   5.141  17.754  12.943 -0.0033 -0.1746  0.0635
28421W        W43552  15.673   0.647   4.790 -0.3625 -0.0449 -0.1160
28422W        W43553   1.888   0.289   0.349 -0.2386  0.2064 -0.1789
28423W        W43554   2.717   1.767  10.865 -0.3814  0.2357 -0.0688
28424W        W43555  16.753   6.904   1.469 -0.1602  0.2926  0.2126
28425W        W43556  14.203   4.336   2.475 -0.2468  0.2134  0.1316
28426W        W43557   2.151  14.515  12.959  0.1229 -0.0339 -0.1022
28427W        W43558  11.442   4.009  11.210 -0.0844 -0.3405 -0.2335
28428W        W43559  11.094   6.422   2.860  0.0964  0.1142 -0.0463
28429W        W43560   5.619  11.941   4.700 -0.3245  0.1399  0.2507
28430W        W43561  12.093   7.335  13.975  0.1072 -0.4952 -0.3885
28431W        W43562  14.936  15.357   4.569  0.0387  0.0361 -0.2753
28432W        W43563   3.680  17.381   2.172 -0.1854 -0.0100  0.1073
28433W        W43564   4.001   3.212   3.420 -0.1950  0.2762 -0.0382
28434W        W43565   6.290   3.410  12.528 -0.1295  0.0568 -0.0205
28435W        W43566  14.596  15.293   3.127  0.3236  0.0284  0.4368
28436W        W43567   5.115   2.073   0.727 -0.2884 -0.3629 -0.0398
28437W        W43568  12.962  14.995   0.594 -0.0304 -0.0799 -0.0185
28438W        W43569   0.177   1.255  14.148 -0.1093 -0.0451 -0.0366
28439W        W43570   0.294   8.390  14.446  0.0601  0.3783  0.1212
28440W        W43571  10.481   1.388   0.353 -0.0692  0.3198  0.1993
28441W        W43572   5.758   4.537   2.234  0.0970 -0.2260 -0.1719
28442W        W43573   8.485  11.127  12.347  0.0448 -0.3222 -0.2067
28443W        W43574   8.368  12.838  11.147  0.2466  0.3173 -0.0444
28444W        W43575  17.242   7.779   2.001 -0.1600 -0.2490  0.2066
28445W        W43576   5.533  12.848  14.255 -0.1608  0.1246  0.0157
28446W        W43577  17.824   2.010   2.194 -0.0591  0.1309 -0.3959
28447W        W43578  16.662   9.770  14.316 -0.1060 -0.0196  0.0123
28448W        W43579   8.758  10.566   2.289 -0.0292 -0.0470  0.0824
28449W        W43580  13.119  10.039   5.636  0.0730 -0.2755 -0.0293
28450W        W43581  13.617   8.184  14.859  0.2322 -0.0809  0.1076
28451W        W43582  14.602   2.524  12.276  0.4809 -0.2275 -0.1175
28452W        W43583   2.652  10.528  14.526 -0.0812 -0.2697 -0.2008
28453W        W43584  11.943   0.593  13.491 -0.0267  0.1142 -0.0232
28454W        W43585   7.688  17.493  15.423  0.1241  0.0816 -0.1179
28455W        W43586  13.657   0.051  14.116 -0.0208 -0.0964  0.0060
28456W        W43587   1.947   9.834  15.806 -0.1069  0.5598 -0.1131
28457W        W43588  16.862   7.347   6.398 -0.1561  0.2164 -0.0478
28458W        W43589   7.910  14.310   4.957  0.3395  0.0941  0.1364
28459W        W43590   8.948   9.313   4.168  0.1232 -0.1248  0.0342
28460W        W43591   9.989   8.753  15.337  0.2218  0.0580 -0.0152
28461W        W43592   9.881  11.896   1.171  0.2051 -0.0761 -0.2746
28462W        W43593  15.698  13.423  15.081  0.0824 -0.0986  0.0829
28463W        W43594   2.104  13.101   4.230 -0.0319  0.0599 -0.2676
28464W        W43595   8.431   3.889   1.809 -0.4676  0.1293 -0.0570
28465W        W43596   8.992   1.631   1.237 -0.0842  0.2275 -0.0549
28466W        W43597   3.807   6.083  12.254  0.1211  0.3435 -0.1613
28467W        W43598   1.912  17.652   2.901 -0.0668 -0.1311  0.0169
28468W        W43599   4.550  11.906  10.492 -0.1259 -0.1510  0.0652
28469W        W43600   6.743   6.055  12.277  0.0404  0.0037 -0.2392
28470W        W43601  17.923  14.957   2.949  0.0357 -0.1805  0.2220
28471W        W43602   0.156  17.487  15.147 -0.2710 -0.2006  0.1690
28472W        W43603   8.376   0.006   1.646 -0.3125  0.2995 -0.1160
28473W        W43604   4.275  14.713   3.487 -0.1665  0.1456  0.0773
28474W        W43605  16.091   6.627  13.125  0.2902 -0.0908 -0.0750
28475W        W43606  15.019   3.344  13.295 -0.1591  0.1691 -0.3559
28476W        W43607  11.194   1.911  13.797 -0.1262 -0.3186  0.0311
28477W        W43608   5.666   9.184   0.113 -0.1030  0.1055 -0.0695
28478W        W43609  14.820  15.835   4.907 -0.3526 -0.0621  0.5094
28479W        W43610   7.426  13.618   1.204  0.2598 -0.1301 -0.2059
28480W        W43611  14.345   5.670   4.285  0.0252  0.1493  0.0600
28481W        W43612   9.266  18.118  11.989  0.2331 -0.4428  0.1819
28482W        W43613   1.689   2.253  13.451  0.0212  0.1021 -0.0317
28483W        W43614   4.844   1.649   0.820  0.1014 -0.3453  0.1751
28484W        W43615   4.219   0.206  15.960  0.1420 -0.1896  0.0927
28485W        W43616   2.473  15.749   2.882  0.0637  0.1620  0.2737
28486W        W43617   8.840   7.455   3.890  0.0129  0.0885 -0.4541
28487W        W43618   9.299   9.207   0.424  0.0949 -0.4256 -0.1836
28488W        W43619   2.395  12.276   3.229 -0.1814 -0.1784 -0.4471
28489W        W43620   3.034   8.339  15.495  0.1940  0.1635  0.0401
28490W        W43621  15.331   2.021  13.301  0.0956 -0.1645  0.1824
28491W        W43622   2.958  11.981   0.973  0.1653  0.3521 -0.0461
28492W        W43623  10.233  17.473   1.904  0.2467  0.1892  0.5707
28493W        W43624   0.340   3.278   4.428 -0.1082  0.0246  0.0990
28494W        W43625  11.848   9.303   0.984  0.1807 -0.1027 -0.4679
28495W        W43626  16.823   4.875  11.384 -0.1798 -0.2056 -0.1887
28496W        W43627   8.999   3.433  12.454 -0.2932 -0.1987 -0.1941
28497W        W43628   1.893  18.193   1.693  0.2288  0.2717  0.3578
28498W        W43629   2.122   3.832   2.132 -0.1014  0.3276  0.0340
28499W        W43630   3.609   1.201   1.926 -0.1745  0.3752  0.1869
28500W        W43631  14.106   3.969   6.083  0.1129 -0.0697  0.0352
28501W        W43632   8.304   0.758  10.953 -0.2208 -0.4331  0.2498
28502W        W43633   7.392   9.092   5.438 -0.1042  0.0420 -0.0627
28503W        W43634   0.574   0.861  15.496  0.2398  0.1625 -0.0070
28504W        W43635   1.108   0.200  15.285  0.1066 -0.1311  0.3376
28505W        W43636   6.604  16.244  11.203 -0.0164  0.1503  0.1736
28506W        W43637   1.373  13.503  13.546 -0.2876 -0.3367  0.1797
28507W        W43638  11.956  15.371   4.754  0.1801  0.1569  0.2239
28508W        W43639  11.095  10.575  15.749  0.0714 -0.1291  0.0963
28509W        W43640  11.528   5.999  14.481 -0.3447  0.0597  0.0639
28510W        W43641  15.039   7.890  12.341  0.2157 -0.5150  0.0496
28511W        W43642  12.524   1.229  12.283  0.2948  0.2461  0.1372
28512W        W43643  12.980   9.481  12.484 -0.1065 -0.0868  0.0800
28513W        W43644   3.405  16.487   1.759  0.2790 -0.1654 -0.1544
28514W        W43645   2.685  12.508  13.405  0.1165  0.1268 -0.1004
28515W        W43646  11.007  11.367  13.189 -0.1212 -0.0163 -0.0284
28516W        W43647  15.673  11.941   5.642 -0.1315 -0.0934  0.2320
28517W        W43648  16.820   6.406   0.777  0.2288 -0.1357 -0.3410
28518W        W43649   9.503  16.587  14.654  0.4013  0.0911  0.1075
28519W        W43650   0.563   6.824   4.821  0.0316 -0.0765 -0.1342
28520W        W43651   8.787   1.251  15.893 -0.0834  0.2080 -0.0158
28521W        W43652   1.506   8.128  15.260  0.3244 -0.0655 -0.0719
28522W        W43653   7.851  16.924   3.359 -0.0464  0.0924  0.1318
28523W        W43654   3.308  13.165  10.622  0.1481 -0.1303  0.1775
28524W        W43655   0.420  18.379   0.758 -0.2380 -0.0478 -0.2122
28525W        W43656  10.162   9.201   1.409  0.2394  0.0260 -0.0111
28526W        W43657   4.998   1.532  10.830  0.1719 -0.1158 -0.1715
28527W        W43658  11.859  10.323   3.335 -0.4148  0.0680 -0.2687
28528W        W43659   3.096   5.750   3.762  0.0028  0.1135 -0.0477
28529W        W43660  16.115  16.228   3.406  0.0977  0.0323  0.1116
28530W        W43661   6.273  13.215   3.134 -0.2885  0.1737 -0.0167
28531W        W43662  11.058   8.727  13.556  0.1750  0.2127  0.3305
28532W        W43663   1.192  14.964   3.163  0.0137  0.0890 -0.1423
28533W        W43664   2.659   1.514  13.704 -0.1719 -0.1471 -0.1001
28534W        W43665  13.882   9.110   0.692 -0.0223  0.0667  0.0771
28535W        W43666   3.178   4.083  16.060 -0.0169 -0.0427 -0.1303
28536W        W43667  12.296   2.918  11.978 -0.2518 -0.4179  0.0236
28537W        W43668  13.312   5.720   3.694 -0.0276  0.0021 -0.0194
28538W        W43669  11.981   7.602  13.135 -0.1857 -0.0511 -0.0139
28539W        W43670   2.525   0.943  11.821  0.0391 -0.0473  0.0813
28540W        W43671   1.256   6.672   2.927  0.0051  0.0086 -0.0508
28541W        W43672   2.101  18.077   3.764  0.2560  0.0044  0.2793
28542W        W43673   9.014   7.430   2.749  0.0511 -0.0420 -0.2683
28543W        W43674   8.310  13.818   2.747 -0.0722  0.1741  0.3601
28544W        W43675   8.806  15.579   1.165 -0.0672 -0.1981  0.0400
28545W        W43676   2.220   4.382  11.711  0.1893 -0.1243 -0.3565
28546W        W43677   6.099  13.915  15.592 -0.0915  0.0039  0.1206
28547W        W43678   5.575   2.314   2.329  0.1108 -0.1068  0.2104
28548W        W43679  15.787   2.876  11.649 -0.2468 -0.1664  0.2532
28549W        W43680  15.712   4.794   5.003  0.0560  0.1551 -0.0173
28550W        W43681   4.982  11.602   6.022 -0.0271 -0.1382  0.1986
28551W        W43682   1.909  15.015  13.299 -0.1205 -0.0347  0.0890
28552W        W43683   4.815  15.581  13.941 -0.0472  0.2597  0.0176
28553W        W43684   2.193  13.608  14.276  0.1820  0.0414 -0.2271
28554W        W43685   5.298   0.026  13.831  0.1427  0.1661 -0.1510
28555W        W43686   0.166  14.164  14.451 -0.1691 -0.0226  0.0227
28556W        W43687   6.943  15.655  12.559  0.1219 -0.1257 -0.2080
28557W        W43688   5.714  13.285  13.560  0.2339  0.2687  0.1143
28558W        W43689  10.756  17.595   0.738 -0.1941 -0.0776 -0.0775
28559W        W43690  16.040   7.412  13.631  0.2736  0.1661 -0.0813
28560W        W43691  18.404  15.010   5.114 -0.2497 -0.2830 -0.0718
28561W        W43692   8.483   8.944   2.152 -0.2627 -0.0901  0.0931
28562W        W43693   5.100   7.369   3.548  0.2526 -0.2044  0.3996
28563W        W43694   8.111   9.352  11.087 -0.2925 -0.3093  0.2767
28564W        W43695   4.577  16.170  12.274  0.2532  0.1442  0.0275
28565W        W43696  10.082   5.457   1.003  0.0319  0.2481  0.1317
28566W        W43697   8.741   4.523  11.489  0.0205 -0.0184 -0.0173
28567W        W43698   8.112  16.841  13.156  0.0396 -0.1175  0.1977
28568W        W43699   0.160   6.018   6.335 -0.0684 -0.0536  0.0572
28569W        W43700   4.162   3.637  14.551 -0.1438  0.1311  0.1420
28570W        W43701   0.094   6.133   0.981 -0.2756 -0.0961 -0.2071
28571W        W43702   6.547   4.648   4.441 -0.0646 -0.1208 -0.4757
28572W        W43703   2.465   6.454  11.258 -0.0268 -0.3946 -0.5804
28573W        W43704  15.090  10.755  11.326 -0.6192  0.1937 -0.1861
28574W        W43705   9.168  12.709  11.865  0.4940 -0.0775  0.1151
28575W        W43706  11.609  17.486  11.751  0.0514 -0.2438  0.1650
28576W        W43707   3.716   9.110  13.245  0.0297  0.1398 -0.0760
28577W        W43708   1.424  14.623   3.502 -0.0321  0.2608  0.3499
28578W        W43709   4.323  18.217  14.053  0.0299  0.1801 -0.2351
28579W        W43710   0.487   9.570  13.889 -0.1503  0.1454  0.2968
28580W        W43711  17.262   9.785   5.015  0.0316  0.1618 -0.1778
28581W        W43712   4.289   1.971  12.017 -0.1644  0.0214 -0.0342
28582W        W43713   9.219   4.699  13.250  0.1938  0.2630 -0.0649
28583W        W43714  18.051  16.546   4.148  0.1110  0.2898  0.0107
28584W        W43715   7.161   0.845   5.181  0.3809  0.1075 -0.0063
28585W        W43716   3.992  11.787   3.610  0.0516  0.4368  0.1895
28586W        W43717   1.841   5.201  13.294 -0.1070  0.0053  0.0250
28587W        W43718  12.568  16.224  14.592 -0.2308  0.0533 -0.3566
28588W        W43719   5.767  17.428   4.205  0.1109 -0.1033 -0.3203
28589W        W43720   1.771  16.046   0.177 -0.0529  0.1896 -0.0664
28590W        W43721   7.468  11.399   1.354 -0.0719 -0.2137  0.2416
28591W        W43722  13.321   7.840   4.586  0.0326 -0.0081 -0.0590
28592W        W43723   3.966  18.240   0.002  0.1784 -0.0244 -0.3067
28593W        W43724  17.506  18.214   0.143 -0.0999 -0.1440 -0.3513
28594W        W43725  13.112   7.106  14.023  0.2939 -0.0141 -0.2280
28595W        W43726  10.670  17.754   4.582 -0.0669  0.2119 -0.2354
28596W        W43727   0.848  13.047  11.932  0.3657 -0.1437  0.0722
28597W        W43728  10.509   8.339   5.273 -0.0551 -0.0832  0.1358
28598W        W43729   2.754  14.445  12.349  0.1449 -0.2119 -0.2311
28599W        W43730   9.123  13.500  13.225  0.1486 -0.3181 -0.1102
28600W        W43731  18.165   8.082   4.110 -0.1543 -0.0538 -0.1419
28601W        W43732   3.128   8.508   0.424  0.4173  0.2887  0.0100
28602W        W43733   6.051   5.960  13.882 -0.2467 -0.4171 -0.4961
28603W        W43734   6.780   2.985   1.919  0.1522  0.5509  0.3171
28604W        W43735  16.164   6.708   6.024 -0.0833 -0.1714  0.3024
28605W        W43736   8.826  17.826   4.863 -0.3337 -0.0932 -0.2899
28606W        W43737   9.800   5.078   0.968 -0.0767 -0.2564  0.3372
28607W        W43738   1.117   3.470   1.222  0.0265  0.0778 -0.1780
28608W        W43739   3.615  14.797   9.618  0.3511 -0.0628 -0.0543
28609W        W43740  15.938   5.233   3.860  0.1704  0.0577  0.0758
28610W        W43741  17.746  12.939  11.635 -0.2079  0.3170  0.1649
28611W        W43742   5.034  17.197   0.159  0.2132 -0.0301  0.1784
28612W        W43743   4.514   9.762  15.746  0.0240  0.3287 -0.1659
28613W        W43744  12.987   8.464   1.623  0.2037  0.0429  0.2112
28614W        W43745   9.606  11.009   4.775  0.0553  0.0073 -0.2120
28615W        W43746  14.324   9.277   5.695 -0.1812  0.1314 -0.1076
28616W        W43747  10.962   2.302   2.350  0.0739 -0.3265  0.1641
28617W        W43748  10.809   1.348  10.972 -0.0498  0.0604  0.1697
28618W        W43749   6.347  15.304  13.567  0.2589 -0.1823  0.0906
28619W        W43750  12.321   1.195  12.767  0.3506  0.1046 -0.0756
28620W        W43751   4.711  12.402  15.860  0.0071  0.0953  0.1049
28621W        W43752  18.365  12.792   3.975 -0.2572 -0.2381  0.0793
28622W        W43753   8.294  16.011  15.803  0.1383 -0.1609  0.1330
28623W        W43754  17.728   7.797  12.889 -0.2434  0.4094  0.0198
28624W        W43755  11.566   7.972   1.744 -0.1817  0.2677 -0.2194
28625W        W43756  14.403   2.636   2.941  0.0542  0.1239 -0.2687
28626W        W43757   3.043  11.006  12.288 -0.1867 -0.1168  0.0692
28627W        W43758  16.083   8.852   5.153  0.3075  0.0300 -0.1338
28628W        W43759   9.746  15.727  14.511  0.3975 -0.0440  0.1278
28629W        W43760   1.232  11.468   0.014 -0.0583  0.1800 -0.1379
28630W        W43761  11.228  15.034   1.148 -0.1302  0.0435  0.0261
28631W        W43762  16.760  17.955   1.847 -0.2901  0.2019  0.1673
28632W        W43763  13.593   1.077  10.193  0.2404  0.0947 -0.2838
28633W        W43764   9.162  13.580   3.921 -0.1296  0.0889  0.2282
28634W        W43765  15.567  18.215  12.397  0.1417  0.2600  0.0049
28635W        W43766  17.598   8.355  12.131  0.4422  0.3773  0.0280
28636W        W43767  17.466  15.924   3.923 -0.3215 -0.3467 -0.0255
28637W        W43768   3.806   1.642  15.675  0.0550  0.0900 -0.2343
28638W        W43769   5.308  11.290   2.349 -0.4564 -0.2058  0.1779
28639W        W43770  18.184   5.962  12.222 -0.0674 -0.1326 -0.4514
28640W        W43771   9.811  11.212   5.903 -0.2667  0.1886  0.1202
28641W        W43772  10.194  10.096  14.253 -0.0910 -0.1380  0.0502
28642W        W43773  10.377  14.890  14.320 -0.0605 -0.1662 -0.2731
28643W        W43774  12.568   4.111   2.994 -0.0510 -0.0542 -0.2487
28644W        W43775   3.585   6.966   1.517  0.2904  0.2564 -0.1789
28645W        W43776  12.209  17.945   5.177  0.0222 -0.1501 -0.2954
28646W        W43777  13.041  11.753  13.019 -0.2280  0.0589 -0.0941
28647W        W43778  14.838   3.936   2.311 -0.1954 -0.3592 -0.2537
28648W        W43779  14.723  17.647  11.516 -0.1109  0.0568  0.1664
28649W        W43780   8.177  12.367  11.974  0.2186 -0.1958 -0.1895
28650W        W43781   0.037  17.412   2.591  0.0012 -0.0460 -0.2245
28651W        W43782   7.605   7.773  15.275  0.0272  0.5504  0.0146
28652W        W43783  15.346   3.304  13.719  0.0048  0.0236 -0.1890
28653W        W43784  13.649  12.492  15.768  0.2624  0.1393  0.2258
28654W        W43785  17.435  12.844  14.778  0.1406 -0.0069 -0.1161
28655W        W43786   4.748  11.584  13.305 -0.0194  0.1914  0.3331
28656W        W43787   3.335   0.312  13.496  0.1212 -0.2307 -0.0552
28657W        W43788  17.032  11.006  13.950 -0.2547 -0.1666  0.2419
28658W        W43789  15.826   1.445  13.993 -0.2269 -0.1413  0.0183
28659W        W43790   7.800   6.169  12.973  0.0902  0.1831  0.1699
28660W        W43791   0.904  18.253   1.471  0.4272 -0.1044  0.1722
28661W        W43792  12.264   6.491  12.144  0.1587  0.0402 -0.2135
28662W        W43793  16.263  10.112   0.842 -0.2345  0.0744 -0.0092
28663W        W43794  16.601   3.920  13.058 -0.0267 -0.2141 -0.0335
28664W        W43795   2.084  17.292   1.685 -0.0447 -0.0252  0.3264
28665W        W43796  15.467   1.565   4.222 -0.4589 -0.0695 -0.3148
28666W        W43797   3.175  11.359  10.523 -0.2885 -0.1031 -0.0992
28667W        W43798  16.601  11.860  15.933 -0.2718 -0.1602  0.0421
28668W        W43799  10.262  18.373  11.865  0.1755 -0.0916 -0.1782
28669W        W43800   7.020   1.822   0.789 -0.1075 -0.2464  0.3468
28670W        W43801   5.126   9.626   0.749 -0.1347  0.2295 -0.1398
28671W        W43802  17.987  13.697   0.353  0.0213 -0.0841  0.1648
28672W        W43803  13.947   2.503  10.523  0.1434  0.1501  0.1586
28673W        W43804   8.522   4.809  16.054  0.2295 -0.4207 -0.1585
28674W        W43805  10.543   4.933   1.760 -0.2972 -0.0622  0.1506
28675W        W43806  18.286  16.525   4.596 -0.0579 -0.1849  0.0901
28676W        W43807   0.932  11.987   0.176 -0.2609 -0.0836  0.1267
28677W        W43808   8.005   9.748  15.271 -0.0033 -0.1268 -0.0023
28678W        W43809   1.872   3.588  12.139 -0.2160 -0.5396 -0.2003
28679W        W43810   1.435  10.384   3.204 -0.0455 -0.0540 -0.1791
28680W        W43811   7.248   9.827  14.713 -0.1322  0.1542 -0.2622
28681W        W43812  11.426   2.551   3.258 -0.0900  0.0038 -0.0198
28682W        W43813   0.689   7.123  13.974 -0.0262 -0.1604 -0.0578
28683W        W43814  14.921  16.002  11.464 -0.2354 -0.0765  0.3110
28684W        W43815  15.491  18.054   3.804 -0.4319 -0.1343 -0.0109
28685W        W43816  12.253  10.083  12.266  0.1240  0.1368 -0.0814
28686W        W43817  10.555  15.492  11.748  0.1633 -0.0023 -0.2317
28687W        W43818  12.925  15.322  10.776 -0.0092  0.0563 -0.0669
28688W        W43819   3.462  13.803   4.675  0.0326 -0.1986 -0.0021
28689W        W43820  10.109   1.830   3.471 -0.5349  0.1476  0.2895
28690W        W43821  11.536  12.340   0.934  0.1705 -0.4229 -0.1873
28691W        W43822   4.401  16.478  13.779  0.0826  0.1762 -0.2419
28692W        W43823   3.901   9.734  14.483  0.3951  0.1041 -0.1782
28693W        W43824   4.581  12.033  15.003 -0.0546 -0.1674  0.5282
28694W        W43825   7.006   4.438   2.033 -0.0770 -0.2397  0.0240
28695W        W43826   2.769  12.349  12.552  0.0668  0.4093  0.0121
28696W        W43827   8.314   7.405   5.742 -0.0941  0.0244 -0.2141
28697W        W43828   8.804  14.928  15.679 -0.0567  0.0056  0.0423
28698W        W43829   0.892   8.216   1.557  0.1393  0.0433  0.0239
28699W        W43830   3.588   1.122   4.447 -0.1483  0.1360  0.0715
28700W        W43831   5.998   2.216  15.669  0.1536 -0.2330 -0.2659
28701W        W43832   9.386  12.653  15.964 -0.0231  0.2107  0.0224
28702W        W43833  13.835   2.094   1.207 -0.0457  0.0644  0.2331
28703W        W43834   2.596  16.665   1.185 -0.1784 -0.2217  0.1318
28704W        W43835  10.399   2.059   2.503  0.0700  0.2709 -0.0225
28705W        W43836  12.305   7.156   3.520 -0.0107  0.1577  0.2358
28706W        W43837  14.141   9.289   6.257  0.2139 -0.3161 -0.1902
28707W        W43838  16.010   4.086  13.035  0.2541  0.0974 -0.1233
28708W        W43839  14.341  16.123   0.530 -0.0855 -0.0225  0.2743
28709W        W43840   6.955  10.858  13.120 -0.0597 -0.1735 -0.2026
28710W        W43841  13.512   2.188   2.181 -0.2272 -0.0485 -0.1597
28711W        W43842   6.668   0.623   3.262  0.4146  0.1274  0.3162
28712W        W43843   4.333   9.036  11.611 -0.1243  0.3267 -0.1720
28713W        W43844  15.432  10.237   4.418 -0.0382  0.2074 -0.0165
28714W        W43845  12.004  14.061  14.773 -0.0892 -0.0778 -0.1312
28715W        W43846  16.985   3.178  14.066 -0.2809 -0.2782  0.3560
28716W        W43847  11.365  12.832   3.214 -0.0975 -0.2082 -0.0393
28717W        W43848  11.211   4.977  12.215 -0.0325 -0.0911  0.0011
28718W        W43849  17.362   6.958  11.913 -0.0349 -0.0092  0.0352
28719W        W43850   1.225   5.976  13.548 -0.0631  0.4734 -0.1087
28720W        W43851  13.099  17.017  12.855 -0.1920 -0.1805  0.1663
28721W        W43852   1.646   4.340  11.635 -0.1378  0.2065 -0.1613
28722W        W43853  17.526  16.186  13.059  0.1000  0.0651 -0.2371
28723W        W43854   5.460  16.557  15.964  0.3267 -0.0668 -0.1022
28724W        W43855   1.959  13.682  13.796  0.1646 -0.2336  0.0998
28725W        W43856   0.561  10.949  12.249 -0.0818 -0.0038 -0.0641
28726W        W43857  10.865   9.925  12.410  0.1097 -0.1487 -0.5072
28727W        W43858   8.030   2.636   3.352 -0.1240  0.0521  0.0369
28728W        W43859   8.766   7.822   0.209  0.1407  0.1165 -0.1395
28729W        W43860  13.604   0.124   4.424 -0.3308 -0.3182  0.2196
28730W        W43861  18.173   4.249   3.993 -0.2438 -0.0933 -0.0028
28731W        W43862   1.650  11.477  10.356  0.1352  0.0911  0.0046
28732W        W43863   0.576   8.108   5.355  0.0214 -0.1526  0.1426
28733W        W43864   7.763   5.805   4.703 -0.3186 -0.0388 -0.0679
28734W        W43865   8.651   9.844   6.248  0.2445  0.1161 -0.3356
28735W        W43866  15.573   1.050  14.348  0.2350  0.0026 -0.1136
28736W        W43867   8.172   3.428   2.174 -0.0316 -0.1593 -0.1201
28737W        W43868  12.610  11.146  14.030 -0.2233 -0.0204 -0.0337
28738W        W43869  11.688   9.696  14.644 -0.0430 -0.0013 -0.1081
28739W        W43870   3.437  18.167  11.037  0.4775  0.1079 -0.0882
28740W        W43871   5.484  16.640   3.569  0.2881 -0.0556 -0.0012
28741W        W43872   3.532   5.674   0.288 -0.2214 -0.0261 -0.1118
28742W        W43873   6.156  17.801   4.149  0.1824 -0.3073 -0.1352
28743W        W43874   6.941  12.613   2.548  0.2015 -0.0558 -0.3754
28744W        W43875   6.760   7.184  11.259 -0.3467  0.2625  0.2484
28745W        W43876  12.393   5.138   1.873  0.4097 -0.1195  0.2036
28746W        W43877   5.626   2.164  12.011  0.4352  0.2637 -0.0893
28747W        W43878   2.631  17.738  14.567 -0.0111  0.0053  0.0379
28748W        W43879  13.156   1.427   3.622  0.0495 -0.1479 -0.0702
28749W        W43880  12.237   3.286  14.971  0.0776  0.2764  0.0132
28750W        W43881   9.239   2.005  13.198 -0.1532 -0.0494  0.2330
28751W        W43882  15.282   0.664  12.801  0.0363 -0.2606  0.0428
28752W        W43883   1.991   1.667   1.130 -0.0724  0.2134  0.1889
28753W        W43884   7.281   4.898   1.299  0.1176  0.1004 -0.2499
28754W        W43885   5.851  14.765   2.769  0.1148  0.0194 -0.0301
28755W        W43886  15.544   9.697   1.089 -0.3862  0.5083  0.0878
28756W        W43887   7.873  13.560  11.675  0.1643  0.1426 -0.1456
28757W        W43888   9.867  12.312  14.185 -0.2769 -0.3170 -0.2749
28758W        W43889  17.760   9.738  15.870 -0.2377 -0.2133 -0.2585
28759W        W43890  11.784   9.350  12.731 -0.1265 -0.3566 -0.0933
28760W        W43891  15.325  14.737  13.364  0.1925 -0.0771  0.1142
28761W        W43892  10.302  17.505  14.737 -0.2651  0.0657 -0.1658
28762W        W43893  10.283  13.652   3.763 -0.2349 -0.0506 -0.1158
28763W        W43894  16.684  15.658  10.960  0.0539  0.0535  0.1035
28764W        W43895  15.583   9.121   2.735 -0.0715 -0.3011 -0.1514
28765W        W43896  15.422  15.050   1.633  0.2486  0.2267 -0.0641
28766W        W43897  12.980  14.011  12.052 -0.3262 -0.0089 -0.0319
28767W        W43898   7.491  12.750   1.764 -0.3860 -0.0134  0.0481
28768W        W43899  12.994  10.119  14.721  0.2382 -0.4143 -0.1301
28769W        W43900  17.285   8.108  14.346 -0.4017 -0.4562 -0.0957
28770W        W43901   7.412   6.763  14.169 -0.0011 -0.0097  0.0071
28771W        W43902  17.566   6.023  15.659  0.1684  0.0866  0.0284
28772W        W43903  13.304  14.628  15.758 -0.5123 -0.2358 -0.0353
28773W        W43904   7.408   4.477   2.503 -0.1507 -0.0589  0.0599
28774W        W43905  13.843  15.627  10.635 -0.1036  0.3621  0.3083
28775W        W43906   8.264   3.175   4.500  0.0034  0.0671 -0.1126
28776W        W43907  13.893  12.115   0.596  0.3505  0.0644  0.0384
28777W        W43908   2.476  12.565  14.040  0.2734 -0.0505  0.1708
28778W        W43909  17.957  12.814  14.731  0.1827  0.4166 -0.1380
28779W        W43910   5.012   2.249  14.606 -0.1353 -0.1113 -0.0865
28780W        W43911   7.502  10.313   3.853  0.0821 -0.1310  0.0488
28781W        W43912  15.012   6.048   1.280 -0.0990 -0.1700  0.2298
28782W        W43913   4.253  18.485   5.354 -0.0203 -0.0021 -0.1276
28783W        W43914  15.365  12.267  13.022 -0.0768  0.4001  0.0388
28784W        W43915  12.494   8.380   1.719  0.0420 -0.3331 -0.2027
28785W        W43916   4.806  16.439   4.039  0.0846 -0.0093 -0.1351
28786W        W43917  10.018   6.926  12.428  0.0842 -0.3662  0.0422
28787W        W43918  13.418  13.228  10.707  0.1220 -0.0262  0.2254
28788W        W43919   9.017  15.313  16.032 -0.0077  0.0459 -0.5120
28789W        W43920   1.940   6.014   3.144  0.3275 -0.2589 -0.1049
28790W        W43921  11.068  14.467   5.027 -0.2071  0.0779 -0.0078
28791W        W43922  18.304   2.646  13.233  0.0739  0.0094 -0.1689
28792W        W43923  15.505   7.017   0.988  0.2085  0.1284  0.2046
28793W        W43924  15.332   7.137   0.205  0.3028  0.0842 -0.0971
28794W        W43925   4.236   7.617  13.170 -0.0123  0.3705 -0.1093
28795W        W43926   4.957  16.967  10.359  0.3835 -0.1755  0.2944
28796W        W43927   6.825  15.413  11.280  0.4613 -0.0241 -0.1593
28797W        W43928   2.189   2.382  15.536 -0.0835 -0.0651  0.1900
28798W        W43929   3.966  11.517  12.174  0.0835 -0.0452 -0.2069
28799W        W43930  11.288   2.303   5.450  0.0321  0.1094 -0.1088
28800W        W43931  10.517  16.805  13.684  0.1505  0.1815 -0.0018
28801W        W43932   3.888   0.949   2.251  0.3528  0.1903 -0.1433
28802W        W43933  16.642  10.072   3.157  0.1402  0.2248  0.1671
28803W        W43934   9.832  13.070   3.304 -0.0737  0.2530 -0.0123
28804W        W43935  13.643   1.113  11.466 -0.1236  0.1022 -0.3746
28805W        W43936   2.632   1.836  12.028  0.2435  0.2548 -0.1602
28806W        W43937  10.873   5.516  12.578 -0.2049  0.1708 -0.1455
28807W        W43938   7.006   3.277  11.952 -0.1108 -0.0049 -0.3025
28808W        W43939  15.252  17.283  10.820  0.0554 -0.1387  0.0614
28809W        W43940   3.056   3.174   2.843  0.0292 -0.1204  0.0708
28810W        W43941   0.270  10.522  12.145 -0.0910  0.2719  0.0186
28811W        W43942   0.938   0.630   0.432 -0.0386 -0.1746 -0.1342
28812W        W43943   3.272   5.016   0.914  0.1321 -0.0401  0.1529
28813W        W43944   5.882  11.153  12.794  0.1798 -0.0140  0.1529
28814W        W43945   7.230  13.728  10.861  0.0426  0.1475  0.1063
28815W        W43946   5.223  10.944   1.082 -0.1198 -0.0338 -0.0320
28816W        W43947  13.600  10.049  13.023 -0.1822  0.0290 -0.0368
28817W        W43948   0.505   0.211  15.993 -0.1598  0.0025  0.1758
28818W        W43949   3.738  17.934  14.497  0.1844  0.0697 -0.0093
28819W        W43950   4.504   5.342  14.541 -0.1232 -0.3062  0.2456
28820W        W43951   5.210   2.901   0.355 -0.0649 -0.0118  0.2636
28821W        W43952  13.071   0.151  12.490 -0.0512 -0.1707  0.0193
28822W        W43953   1.563   7.972  11.057 -0.1646 -0.1625  0.0440
28823W        W43954  12.841  16.053   2.731 -0.3069  0.1744 -0.2629
28824W        W43955  12.448  13.828   1.969 -0.3240 -0.2858  0.1214
28825W        W43956  12.391   6.749   2.205  0.2226  0.1001 -0.2031
28826W        W43957  17.322   0.691   1.065 -0.1643 -0.1681 -0.2077
28827W        W43958   9.039   6.514   2.319  0.0850  0.1166  0.0362
28828W        W43959  12.203   0.998   0.082 -0.2399 -0.3328 -0.3247
28829W        W43960   9.772  10.780   3.594 -0.0672 -0.2317  0.0822
28830W        W43961  17.944   1.694   4.748  0.0117 -0.2193  0.1195
28831W        W43962  18.391  16.034   0.749  0.2393 -0.1303  0.4523
28832W        W43963   2.180  11.986  13.359  0.0140  0.3222 -0.0851
28833W        W43964  13.632   3.371  15.172 -0.0848 -0.0214 -0.0683
28834W        W43965   7.033   4.979  12.846 -0.3043 -0.1006  0.0420
28835W        W43966   2.640  17.815   5.082  0.1390  0.1420 -0.1980
28836W        W43967  11.060  15.191   2.702  0.1075  0.3350  0.1593
28837W        W43968  15.461   6.932  12.481  0.2212  0.0200  0.0905
28838W        W43969  15.102   7.780   1.859  0.0951  0.2371 -0.0821
28839W        W43970   3.130   0.053  13.869  0.2926 -0.2061 -0.3013
28840W        W43971  13.216   7.383  15.634  0.1388 -0.2755 -0.2551
28841W        W43972  10.143   0.540   4.817  0.0772 -0.0808 -0.1082
28842W        W43973  14.201  13.054   4.343 -0.3015 -0.0137  0.1216
28843W        W43974   3.244   6.696  14.033  0.3150 -0.0159  0.3022
28844W        W43975   6.401   9.080  13.880 -0.0014  0.1365 -0.2914
28845W        W43976   4.580   2.160   0.691 -0.0811  0.0276  0.0754
28846W        W43977   6.327  15.800   2.334 -0.3722 -0.2853 -0.1551
28847W        W43978   6.059   6.040  12.948 -0.0013 -0.3069 -0.1396
28848W        W43979  13.698   4.291   0.762  0.0669 -0.1180 -0.0817
28849W        W43980  12.239   8.747   4.760 -0.0705 -0.3429  0.1592
28850W        W43981  13.017   3.573  14.302 -0.3248  0.6085 -0.4005
28851W        W43982  14.658  15.746   1.780 -0.2217  0.0994 -0.1339
28852W        W43983   7.134  10.305  12.050 -0.2075  0.0889 -0.1726
28853W        W43984  10.287  14.622   3.527  0.1153 -0.0321  0.0812
28854W        W43985   8.308   1.411  13.917  0.2446 -0.1133  0.0580
28855W        W43986  11.014   5.316  14.947 -0.0994  0.1573  0.2528
28856W        W43987   5.635   3.134  11.435 -0.0427  0.0547 -0.3363
28857W        W43988   7.110  12.157   3.908  0.0324  0.1240  0.1007
28858W        W43989  18.262  11.617  15.450  0.0360 -0.1027  0.0593
28859W        W43990  12.488   7.764   4.696 -0.1095  0.1480 -0.1498
28860W        W43991   1.327  12.002  13.747  0.0227 -0.2265  0.5055
28861W        W43992  15.040   5.783  15.574  0.1493  0.1261 -0.1541
28862W        W43993  17.578  13.242  12.026  0.0476 -0.0471 -0.0413
28863W        W43994   8.313   8.091   5.221  0.0828  0.0307  0.0562
28864W        W43995  13.215  12.000   5.479  0.3703 -0.2620 -0.0639
28865W        W43996  12.099   9.726  15.453 -0.0441 -0.0979 -0.1109
28866W        W43997   2.160   9.955   2.858  0.0176 -0.0131 -0.2861
28867W        W43998   6.508  12.372   2.674  0.3958 -0.1833  0.1887
28868W        W43999  14.430  11.917  11.714 -0.0337  0.2179  0.1278
28869W        W44000  12.759  10.970   5.505 -0.1126 -0.0620 -0.0710
28870W        W44001  10.667  10.521  11.517  0.0227 -0.1029  0.1815
28871W        W44002   6.444   6.909  14.075  0.1605 -0.0359 -0.0619
28872W        W44003   3.065   2.812  10.711 -0.0848 -0.1474  0.1491
28873W        W44004   6.558   2.197   3.479 -0.0900 -0.1724 -0.2565
28874W        W44005   1.931   5.923  10.526  0.0657  0.0854 -0.1434
28875W        W44006  17.755  14.422  13.069 -0.0326  0.0671 -0.1976
28876W        W44007   8.042   0.285  12.710  0.0457  0.0227  0.1359
28877W        W44008   5.686   7.147  13.489  0.2088  0.0091  0.0738
28878W        W44009  18.336   9.244  11.601 -0.2037 -0.0530 -0.2414
28879W        W44010   6.441   5.053  11.935 -0.0236 -0.1432 -0.0038
28880W        W44011   2.893   9.518   3.319  0.0481  0.2161 -0.0271
28881W        W44012  15.700  15.519  14.808 -0.0108  0.0019  0.1258
28882W        W44013   6.431   0.545  12.270 -0.1591 -0.0003 -0.0841
28883W        W44014   2.139   5.006  14.201 -0.3347 -0.2028 -0.0255
28884W        W44015   6.716  10.330  11.117 -0.2322  0.0268  0.2993
28885W        W44016  17.605  15.655   0.537  0.0788 -0.0323  0.0739
28886W        W44017   3.810  16.982   3.324  0.1131 -0.0112 -0.0662
28887W        W44018   4.358   1.825   0.996  0.0747  0.1353  0.3456
28888W        W44019  16.352   7.633  12.861 -0.1174  0.0045 -0.0013
28889W        W44020   1.789  16.716  15.522 -0.2166 -0.1628 -0.1355
28890W        W44021  11.589  12.109   3.955 -0.2612  0.0159 -0.2962
28891W        W44022  10.082   4.800   5.824  0.0565  0.0505 -0.0719
28892W        W44023   3.170   2.778  15.465 -0.0356  0.1215  0.0222
28893W        W44024  10.533   0.805  16.019 -0.1843 -0.0770  0.0066
28894W        W44025   1.766   3.306  13.319 -0.1767  0.2710  0.4093
28895W        W44026   7.105   8.384   5.627  0.2953  0.4041 -0.2286
28896W        W44027   0.691  14.498  16.095  0.1460 -0.0379 -0.0969
28897W        W44028  11.166   7.086   5.084 -0.0786 -0.1943 -0.1770
28898W        W44029   7.543  10.625   0.370  0.0881 -0.1656 -0.0305
28899W        W44030   3.170  17.342  13.490 -0.0696 -0.0743  0.5515
28900W        W44031  10.612   4.958   0.291  0.2200 -0.1420 -0.0478
28901W        W44032  12.659   5.804   2.315  0.0692  0.1377 -0.4502
28902W        W44033   8.857  15.469  13.331  0.0567 -0.2261  0.1105
28903W        W44034   8.097  13.094  15.033  0.2204  0.0941 -0.1626
28904W        W44035   4.029   7.181  11.163  0.1225 -0.0907 -0.0253
28905W        W44036   1.802  16.582   3.761  0.1157 -0.1444  0.0268
28906W        W44037   4.926   8.926   5.255 -0.3427  0.2089 -0.1069
28907W        W44038  15.697   1.919   5.011  0.1195 -0.1335 -0.4287
28908W        W44039   2.289  17.004   4.058  0.2234 -0.1549  0.0126
28909W        W44040   5.916   6.822  11.188 -0.0440 -0.0160 -0.0361
28910W        W44041   6.654  14.165  12.182 -0.0569  0.2908 -0.0727
28911W        W44042   8.064   3.645  13.085  0.1420 -0.1355  0.1027
28912W        W44043   3.037   7.898   0.901 -0.0147 -0.0179 -0.3672
28913W        W44044   7.195   7.867  13.536 -0.1623  0.0871 -0.1053
28914W        W44045  10.806   0.590   2.983 -0.0531 -0.0501 -0.0845
28915W        W44046  12.685  12.789  11.262 -0.1210 -0.0831 -0.3897
28916W        W44047   1.168   2.695  12.088  0.2227  0.0397 -0.1850
28917W        W44048  11.778   8.001   4.397 -0.3840  0.0375  0.0721
28918W        W44049  12.437   2.834   6.068  0.0861 -0.1913  0.1118
28919W        W44050   5.118   4.429   1.721  0.2235 -0.1504 -0.0189
28920W        W44051   4.071   5.282   6.124 -0.0920 -0.1577 -0.1049
28921W        W44052  11.742   2.045   5.537 -0.1503 -0.2615 -0.1471
28922W        W44053   1.948  11.085  12.288  0.0650 -0.0955  0.0458
28923W        W44054   1.558   8.980  14.651 -0.1638 -0.4337 -0.1530
28924W        W44055  18.336   2.253   5.959  0.2250  0.1583 -0.1171
28925W        W44056  18.488  18.312   1.449 -0.1895  0.0932  0.2432
28926W        W44057  10.444  13.201   2.614  0.1814  0.1892 -0.1991
28927W        W44058  13.070   4.893   0.578  0.1512  0.1801  0.0639
28928W        W44059  16.731  15.264   1.455 -0.0054  0.2536 -0.0687
28929W        W44060  15.667  12.765   1.300  0.0714 -0.4015  0.3579
28930W        W44061   9.641   9.648   0.785  0.1596 -0.1781 -0.0150
28931W        W44062   0.590  10.224  11.639 -0.0085 -0.1705  0.0051
28932W        W44063  16.741   2.931  15.283 -0.1293  0.4306 -0.2755
28933W        W44064  10.649   2.799  10.893 -0.1911  0.2361 -0.0378
28934W        W44065   4.521  15.246  14.956  0.1684 -0.1465 -0.1830
28935W        W44066   4.128  10.709   2.088 -0.0071 -0.0014 -0.1628
28936W        W44067  12.973  13.517   0.358  0.0273 -0.1783 -0.3559
28937W        W44068   5.596  16.853   1.715  0.1420 -0.0036  0.0494
28938W        W44069  14.823   8.270  15.224  0.1531 -0.2864 -0.0854
28939W        W44070  14.676  11.336  15.469  0.3582 -0.0392 -0.0645
28940W        W44071   7.789  11.736  14.821 -0.0491  0.0804 -0.0355
28941W        W44072   1.556   4.265  10.809  0.1614  0.0645 -0.1113
28942W        W44073   5.365   7.096  11.808 -0.0387 -0.4021  0.2180
28943W        W44074  11.637   6.972  13.074  0.1732 -0.3081 -0.2955
28944W        W44075   5.666   7.885  11.766  0.0288  0.1588  0.1971
28945W        W44076   7.228   2.816   3.070  0.1848  0.0846  0.1589
28946W        W44077   6.948  13.633   0.876 -0.0269  0.1665 -0.1414
28947W        W44078   5.452  13.779  11.605 -0.2596 -0.1611  0.0262
28948W        W44079   7.038  14.608  13.704 -0.1199 -0.0057  0.2190
28949W        W44080  16.887  16.402   2.851 -0.0822  0.0603 -0.1284
28950W        W44081   5.713  10.507   5.608 -0.0055 -0.2095  0.0905
28951W        W44082   6.942   7.364   1.728  0.0959 -0.1415  0.0755
28952W        W44083   3.823   2.764  10.956 -0.1149 -0.1987 -0.0834
28953W        W44084   1.483  15.292  10.619 -0.0368 -0.0869  0.0186
28954W        W44085  17.534  12.408  14.087 -0.2466  0.1351 -0.2711
28955W        W44086  15.952  12.920  13.050  0.0154  0.0836  0.2947
28956W        W44087   6.952  11.593   4.859 -0.0190  0.1047  0.1052
28957W        W44088  13.968  12.633   3.961  0.1440 -0.3025 -0.2222
28958W        W44089  12.872   1.796  15.023 -0.0178  0.1140 -0.0673
28959W        W44090   5.922  17.070  13.249  0.2593 -0.2728 -0.0059
28960W        W44091   3.564  10.910   1.903  0.2046  0.1975 -0.0033
28961W        W44092  11.354   8.230  14.179 -0.2059 -0.3706 -0.2012
28962W        W44093   6.272   6.656   2.585  0.0801  0.0816 -0.0063
28963W        W44094  17.694   7.965   1.185  0.2555  0.0009 -0.3941
28964W        W44095   5.068   5.114  15.345  0.1869  0.1969 -0.1572
28965W        W44096   7.504   6.040  11.082  0.0590 -0.0681  0.2271
28966W        W44097  14.445  11.657   3.698 -0.0576 -0.2448 -0.0330
28967W        W44098   7.654   8.669   5.030 -0.0206 -0.4142  0.0843
28968W        W44099  11.427   5.447   1.853 -0.0103 -0.2626 -0.4136
28969W        W44100  12.938   8.501  14.144 -0.0434  0.1612 -0.1141
28970W        W44101   7.740   4.705  16.009 -0.0927  0.2816  0.0708
28971W        W44102  11.701   0.126   5.156 -0.3122 -0.0320  0.4128
28972W        W44103  17.690   5.410  15.695  0.0930  0.1158 -0.0763
28973W        W44104   9.284   9.926   3.872  0.0733 -0.0534  0.0009
28974W        W44105   0.262  11.883  13.781 -0.0614  0.2850 -0.1400
28975W        W44106  18.389  15.410   4.254  0.0974  0.1176  0.1833
28976W        W44107   5.366  15.654  14.028  0.0525 -0.3550 -0.1507
28977W        W44108   0.416   4.114   2.962 -0.2847  0.2361 -0.0577
28978W        W44109  14.177  12.632  15.774  0.2673 -0.2690 -0.0733
28979W        W44110  13.465   1.055  12.124  0.1601 -0.1424 -0.0306
28980W        W44111  17.045   6.951  15.422  0.2290  0.0008  0.0153
28981W        W44112   8.170   0.238  11.173 -0.0118  0.1514 -0.1641
28982W        W44113  17.820  16.451  16.057 -0.1309 -0.3986  0.0261
28983W        W44114  16.122   0.095   2.215  0.1345  0.0493  0.1664
28984W        W44115  15.514  14.695  11.676 -0.0790 -0.0798 -0.1361
28985W        W44116   3.562  13.652  10.664  0.0930 -0.0019  0.1873
28986W        W44117  13.103  14.051  14.128  0.0903 -0.0265  0.0703
28987W        W44118   3.707   9.668  15.140  0.2080  0.2708  0.0391
28988W        W44119   5.944   6.918  10.672  0.0006  0.0614 -0.4205
28989W        W44120   3.653   2.035   9.579 -0.0829  0.0175  0.1066
28990W        W44121   3.097   1.431  15.052  0.1263 -0.1108  0.1574
28991W        W44122  16.395   5.101  14.328 -0.2243 -0.3280  0.2252
28992W        W44123  17.033   3.004  11.305  0.4281  0.2763 -0.3908
28993W        W44124   7.352   4.101  12.839  0.1947 -0.0168 -0.0464
28994W        W44125   1.679  11.687  11.189 -0.2802 -0.2127 -0.3047
28995W        W44126  12.606  17.623   2.770  0.2699  0.2082 -0.2327
28996W        W44127   9.207  10.559  15.753 -0.0533  0.2053 -0.1384
28997W        W44128   8.349  13.962   2.086 -0.2639 -0.1625 -0.2562
28998W        W44129  17.289  11.428   0.344  0.1261 -0.0420  0.1231
28999W        W44130  18.261  10.258   1.999  0.1386  0.0511  0.0700
29000W        W44131  14.587  11.553   5.173  0.1277 -0.0142  0.0404
29001W        W44132  13.997   6.673  15.415 -0.2100  0.3497 -0.3176
29002W        W44133  14.601  15.107   1.018  0.2642  0.3101 -0.1650
29003W        W44134  14.259   5.458  15.898  0.0020 -0.0990 -0.1086
29004W        W44135   3.514  11.329   2.408  0.1812  0.1470 -0.3091
29005W        W44136  18.174  14.338   1.625 -0.3199 -0.0514 -0.2215
29006W        W44137   9.952   4.225   4.086 -0.4088  0.2294 -0.1332
29007W        W44138   5.114   9.324   3.320 -0.0447 -0.3520 -0.1440
29008W        W44139   0.631   3.813  12.593  0.0401  0.2054 -0.0828
29009W        W44140  15.104   4.314  11.478  0.3080 -0.0204 -0.0542
29010W        W44141   7.810  12.356  14.125 -0.0796 -0.1186 -0.1959
29011W        W44142  16.636   5.967   2.133 -0.2279 -0.0619  0.1305
29012W        W44143  18.223  17.788  13.552 -0.2667 -0.3218  0.4686
29013W        W44144  14.344   0.146  14.298 -0.0725 -0.2438  0.4878
29014W        W44145  14.118  13.622   4.168  0.1346  0.2503 -0.0914
29015W        W44146  11.381   9.969  14.397 -0.3214  0.0800 -0.4127
29016W        W44147   9.952   9.653  12.006 -0.1245 -0.1683 -0.0161
29017W        W44148   1.714   7.792   1.504 -0.3495 -0.0359  0.3131
29018W        W44149  12.617   3.646   0.228  0.1722 -0.1380  0.1138
29019W        W44150   8.495   9.294   4.721 -0.0061 -0.6628 -0.1686
29020W        W44151  10.756   6.911   4.798  0.1945  0.0768  0.2363
29021W        W44152   8.583  13.172   0.317  0.0392 -0.0585  0.0115
29022W        W44153  14.009   8.131   0.357  0.2550  0.1071 -0.1445
29023W        W44154   6.846   9.379   2.886 -0.1541 -0.2965 -0.0338
29024W        W44155   1.751   4.224  14.908  0.0243  0.0578  0.0702
29025W        W44156  16.689  11.795   0.855 -0.1170  0.2061 -0.0040
29026W        W44157   2.307  14.744   3.403 -0.2546 -0.0686  0.3195
29027W        W44158  15.382  11.715  14.079 -0.2062 -0.0708  0.1280
29028W        W44159   4.203  14.530   4.605 -0.2316  0.1072 -0.2604
29029W        W44160   5.409   3.152   4.846  0.0556 -0.2188 -0.0232
29030W        W44161   6.189   4.790  11.605 -0.2316  0.3673  0.2911
29031W        W44162  12.925   4.911   3.417 -0.0644  0.0942 -0.2930
29032W        W44163   1.645  11.010   4.120  0.0737  0.1502  0.5132
29033W        W44164   1.751   5.272   0.285  0.3592 -0.2889 -0.0948
29034W        W44165  12.894   2.889  14.303  0.0144 -0.2601 -0.1715
29035W        W44166   1.052   2.366   4.316  0.2317  0.0752 -0.2579
29036W        W44167  14.893  13.777  11.456  0.1124 -0.0067 -0.2022
29037W        W44168   1.797   3.947  11.040 -0.0487 -0.0311 -0.0673
29038W        W44169  10.466  15.450  15.097 -0.2537 -0.0919 -0.1859
29039W        W44170   2.500  11.103  12.925  0.1716  0.1097  0.0698
29040W        W44171   6.954   1.672  11.979 -0.0600 -0.2724 -0.5612
29041W        W44172  17.454   0.808   2.561 -0.0178 -0.0494 -0.2158
29042W        W44173   0.156   0.247   1.013 -0.2077  0.2040 -0.0291
29043W        W44174   1.125   0.157  13.876 -0.0033  0.1822  0.1573
29044W        W44175  18.082   9.844   2.938  0.1205 -0.1830 -0.2058
29045W        W44176   1.279  14.918   5.076 -0.3971  0.1607  0.1767
29046W        W44177   7.578   2.879   0.282 -0.0132 -0.3333  0.0351
29047W        W44178  10.934   6.799  15.998  0.0986 -0.2919 -0.0726
29048W        W44179   3.389   8.698   4.301 -0.0146 -0.3400 -0.1773
29049W        W44180   0.805  16.381   9.963 -0.1379 -0.0176 -0.0531
29050W        W44181   0.257  17.917   2.644 -0.0385 -0.1619 -0.0744
29051W        W44182   2.296   3.786  11.752  0.1363 -0.2641  0.2223
29052W        W44183  11.984   6.583   3.976  0.1892 -0.2314 -0.0739
29053W        W44184  11.849   7.547  15.598 -0.1197  0.1015  0.4656
29054W        W44185  14.766  14.272  14.643  0.2125 -0.1897 -0.1995
29055W        W44186   5.159   4.431   4.389  0.2186 -0.0757  0.1379
29056W        W44187   0.035   8.214   5.282 -0.2730  0.0790 -0.1744
29057W        W44188   8.147  17.869  13.162 -0.0038  0.1148  0.2672
29058W        W44189   9.693  15.357   1.335  0.1077 -0.2935  0.1073
29059W        W44190  17.182  10.140   2.375 -0.2111  0.0174  0.2262
29060W        W44191  12.924  10.470   5.516  0.4670 -0.1795 -0.0723
29061W        W44192   5.442  16.106  12.809 -0.0355  0.0446  0.0684
29062W        W44193   4.483   5.227   3.210 -0.1505 -0.2134  0.5021
29063W        W44194   5.985  13.998   0.427 -0.1257 -0.0799  0.3541
29064W        W44195  13.049  14.352   3.087 -0.2197 -0.3957 -0.1383
29065W        W44196  16.703  10.733  14.788 -0.0066 -0.1255  0.1520
29066W        W44197  16.652  13.054   1.424  0.0009 -0.3790  0.2834
29067W        W44198   0.389   0.087  14.272  0.0001 -0.0383  0.0265
29068W        W44199   9.772  13.658  10.512  0.1044  0.4570  0.2117
29069W        W44200  18.105   3.201  14.067  0.0560 -0.0814 -0.4199
29070W        W44201  12.382   9.393  13.369  0.2068  0.0252 -0.0382
29071W        W44202   2.217   0.285  13.579 -0.1001  0.1450  0.4225
29072W        W44203  13.227   1.591   5.539 -0.1558 -0.3302  0.0322
29073W        W44204   4.647   6.280  15.611 -0.2327  0.1018  0.0035
29074W        W44205  15.940   9.107  15.382 -0.2879 -0.2414  0.0417
29075W        W44206   1.274  17.945  13.294 -0.0980 -0.1108  0.4567
29076W        W44207  12.187  15.800   4.620 -0.1091  0.2694  0.4014
29077W        W44208  15.065  14.784  13.831  0.0847  0.5266 -0.1527
29078W        W44209   4.964  15.256  11.921  0.1850  0.1707  0.0139
29079W        W44210  10.605   7.811   5.201  0.1905 -0.0745  0.0366
29080W        W44211  12.754  10.918   3.744 -0.0171 -0.2087 -0.3032
29081W        W44212   8.046  16.705   2.171 -0.2334  0.1839 -0.4058
29082W        W44213  11.499  10.962   1.517 -0.1974 -0.0859  0.0934
29083W        W44214  17.869   6.826  13.202  0.1337 -0.0278  0.1265
29084W        W44215   8.847   8.762   4.126 -0.4885  0.1282 -0.2820
29085W        W44216   0.790  13.324   4.770 -0.0026  0.0103 -0.1684
29086W        W44217   1.883  14.805  15.033  0.1144 -0.1550 -0.0583
29087W        W44218  12.606  10.654   4.112  0.1261  0.1995  0.1833
29088W        W44219   3.817   0.575  10.833 -0.0259  0.2423 -0.1313
29089W        W44220  18.061   7.878  14.965 -0.1921  0.1861 -0.3197
29090W        W44221  18.037  15.721  11.470  0.2984  0.0054 -0.0790
29091W        W44222  17.389  16.757  10.409  0.2296  0.1392 -0.1669
29092W        W44223   9.208   2.295  12.176 -0.1457  0.2200 -0.0021
29093W        W44224   7.410   0.935  10.476 -0.0783  0.0956  0.0646
29094W        W44225   4.717  11.876  15.946  0.0228  0.2579 -0.4093
29095W        W44226   3.379  12.112   1.263 -0.3919 -0.0704  0.0829
29096W        W44227   8.621   4.434   0.247  0.0014 -0.0939 -0.4109
29097W        W44228  12.944  17.216   6.097 -0.0002  0.3296 -0.4682
29098W        W44229   5.885   1.456   5.006 -0.2013 -0.0342  0.1270
29099W        W44230  18.094   6.639  12.375 -0.1664 -0.0484  0.0461
29100W        W44231   6.453  15.757   2.840 -0.0528  0.3950  0.0506
29101W        W44232   8.807  17.356  14.817  0.1663  0.0886  0.2218
29102W        W44233   3.112   8.320  11.138  0.0685 -0.2047  0.2345
29103W        W44234  14.975  13.702  12.885 -0.0664  0.0834  0.0160
29104W        W44235  11.772   5.874   5.627  0.1244  0.1111  0.0315
29105W        W44236  10.057  16.533   4.448  0.0875 -0.4515 -0.0249
29106W        W44237  16.513   8.930  15.605  0.1775  0.1773  0.1374
29107W        W44238  17.128  14.057  11.046  0.1599  0.2414 -0.0316
29108W        W44239   4.414  11.838  12.034  0.0733  0.0789  0.1573
29109W        W44240   3.589  17.003   0.634 -0.5160 -0.0052 -0.0194
29110W        W44241  18.466  13.652  13.029 -0.1342 -0.4142  0.0848
29111W        W44242  16.084  11.105  15.607 -0.0830  0.0024 -0.3035
29112W        W44243   3.834   4.964   4.120  0.1587  0.0800  0.1532
29113W        W44244   7.628  15.726  11.825  0.2976 -0.1271 -0.0542
29114W        W44245   9.065   9.303  11.929 -0.1106 -0.3782  0.0001
29115W        W44246  13.635  10.536   0.125 -0.0378 -0.1382  0.0048
29116W        W44247   3.872   3.086  13.503  0.1066  0.0007  0.2078
29117W        W44248   8.812   5.072  10.236 -0.4126 -0.2250  0.4002
29118W        W44249  14.232  15.301  11.572 -0.0191 -0.1720  0.0766
29119W        W44250  15.218   6.286  13.455 -0.0280  0.2132 -0.1330
29120W        W44251  10.981   8.836  12.162  0.0856 -0.1012  0.1779
29121W        W44252  13.660  14.676   0.055  0.1104 -0.0133  0.2683
29122W        W44253  10.701  15.706  12.160  0.1342 -0.0264 -0.0665
29123W        W44254  10.365   5.749  15.283 -0.1938 -0.2633 -0.3460
29124W        W44255   9.293   9.282  11.413  0.1419 -0.1395 -0.0363
29125W        W44256  18.282   8.664   5.211 -0.1354 -0.1414  0.1393
29126W        W44257   9.403  14.382  14.182  0.2222  0.1248  0.2748
29127W        W44258   8.367   7.921  11.936  0.2683  0.4510  0.0614
29128W        W44259   3.637   8.323   5.662 -0.0753 -0.0369  0.0100
29129W        W44260   6.136   1.135   4.473 -0.2279  0.2322 -0.0640
29130W        W44261   0.550   8.065  11.550 -0.2262 -0.1431  0.0980
29131W        W44262   1.270   3.881   1.393 -0.1039 -0.0485 -0.1471
29132W        W44263   8.227   6.948  13.389 -0.3859 -0.0526 -0.2144
29133W        W44264   2.529   3.977   1.849 -0.1157  0.1388  0.0911
29134W        W44265   4.559  13.966   3.537 -0.1828  0.1299  0.3145
29135W        W44266  12.840  16.419  14.933 -0.2020 -0.2033 -0.1979
29136W        W44267   5.982   6.892  13.204 -0.1143 -0.3813  0.0492
29137W        W44268  18.115  17.078   2.617 -0.5894  0.0819 -0.0793
29138W        W44269  16.036  10.235  11.381 -0.0920 -0.1833 -0.1785
29139W        W44270  12.770   0.567  16.024  0.4905  0.0680 -0.1639
29140W        W44271   2.149  17.469  11.110  0.1280 -0.2210 -0.0173
29141W        W44272   3.037   7.082   2.058  0.0489  0.0869  0.0757
29142W        W44273   4.988   8.032  11.411 -0.1675  0.2435  0.0834
29143W        W44274   2.311   2.317  13.425  0.2865  0.1156 -0.2958
29144W        W44275  15.589   1.619  13.568 -0.3892 -0.1368 -0.3860
29145W        W44276  14.421   0.596   4.278 -0.0738 -0.0672  0.1933
29146W        W44277  11.657   3.208   4.464  0.0038 -0.2659 -0.0330
29147W        W44278  16.917   2.346  10.177  0.2341  0.2117 -0.2482
29148W        W44279  12.933   9.296  11.470 -0.1209  0.0783  0.2707
29149W        W44280  10.662   2.644  13.506  0.0069  0.2648 -0.1923
29150W        W44281   8.246  17.650   2.208 -0.4627  0.1866  0.1828
29151W        W44282  12.767  16.123  12.487  0.0802  0.4345  0.1628
29152W        W44283   7.703  14.749   2.251  0.2993 -0.1382 -0.0559
29153W        W44284   5.454  10.317  15.139 -0.0677  0.1515 -0.2131
29154W        W44285   3.213  14.759   0.120  0.3080 -0.3639 -0.2125
29155W        W44286  14.964  17.621   5.327  0.1959  0.1789  0.1204
29156W        W44287  16.138   8.690   3.650  0.1614  0.1002  0.1484
29157W        W44288  14.197  14.779   2.464 -0.1582 -0.1548 -0.0523
29158W        W44289   7.478   8.619   2.307 -0.0140 -0.0829  0.1473
29159W        W44290   7.636   8.304   5.339  0.1087  0.1486 -0.1285
29160W        W44291  12.363   9.086   0.394 -0.0247  0.0865 -0.4880
29161W        W44292   2.799   4.160  13.573  0.0812  0.0237 -0.0141
29162W        W44293  16.327  17.232  15.417 -0.1567  0.1839 -0.0384
29163W        W44294   6.966   5.971  10.879 -0.0112 -0.1366 -0.2045
29164W        W44295   0.490  18.045   4.282  0.0003 -0.3573  0.1865
29165W        W44296  15.521   7.615   2.428  0.1251  0.0713 -0.0968
29166W        W44297  17.197   1.780  10.798 -0.0834  0.1883  0.2167
29167W        W44298   9.734   3.006   4.225 -0.2922  0.2080  0.1792
29168W        W44299   1.523   4.585  13.301  0.3348 -0.2477 -0.0534
29169W        W44300   5.262   0.494  15.177  0.0328  0.0762 -0.0812
29170W        W44301  10.294  16.477  12.477  0.0277 -0.1575 -0.0643
29171W        W44302  12.176   8.527   3.073 -0.2231  0.0108 -0.0704
29172W        W44303  12.374   3.920   1.296  0.0919  0.0814 -0.0697
29173W        W44304   3.780   9.183   5.841  0.0725 -0.2067  0.2603
29174W        W44305  15.894   8.546  14.423  0.0179  0.1507 -0.1808
29175W        W44306   2.438   8.289   6.542 -0.0020  0.0942  0.0777
29176W        W44307   8.683   8.203   2.772 -0.0197  0.1976  0.5429
29177W        W44308  13.102  15.941  15.340  0.4169  0.0076 -0.0221
29178W        W44309  12.355   3.603  15.783  0.1338 -0.1153 -0.0360
29179W        W44310   3.629   2.105  12.798  0.1647  0.1890 -0.2172
29180W        W44311   4.798   2.370   3.922  0.1795 -0.0487 -0.1047
29181W        W44312   7.315   9.707  13.790 -0.2248  0.0061 -0.1331
29182W        W44313   8.102   2.853   5.157  0.0805  0.1012  0.1299
29183W        W44314  12.927  16.090   2.158  0.0087 -0.3364 -0.3525
29184W        W44315  11.951   8.816  12.007  0.1729 -0.0004  0.2261
29185W        W44316  12.212   5.275   4.530  0.0469 -0.0452  0.0084
29186W        W44317  16.327   5.943   5.443 -0.0421 -0.1373 -0.2371
29187W        W44318   9.220   8.091  11.675 -0.0979 -0.4218 -0.0061
29188W        W44319  12.817  15.818  15.859  0.0595  0.2757  0.0157
29189W        W44320   3.267  10.724   0.192 -0.3685  0.1490  0.0743
29190W        W44321   9.863   6.188  11.248  0.0362  0.2454  0.2693
29191W        W44322   9.497  11.775   4.828  0.0284  0.4710 -0.0532
29192W        W44323  16.516   2.056  11.972 -0.1220  0.1722 -0.0054
29193W        W44324   8.755   1.174  13.084  0.0329 -0.1533  0.0475
29194W        W44325   2.748  13.111  12.501 -0.2750 -0.1217  0.0274
29195W        W44326   1.159   9.680  10.201  0.1993 -0.0653  0.0605
29196W        W44327  10.852   7.657   0.341 -0.0757 -0.5122 -0.0064
29197W        W44328   1.834   0.020  14.594 -0.2590  0.1267 -0.0356
29198W        W44329  10.849   1.332   1.967  0.2199  0.2270  0.1547
29199W        W44330  14.279   2.807   1.344 -0.1469  0.0733 -0.1208
29200W        W44331   6.447  17.476  12.499 -0.1503  0.1009  0.0017
29201W        W44332   2.644  11.594   4.336 -0.3079 -0.0208  0.0221
29202W        W44333   1.215  15.457   3.108  0.0896 -0.1184  0.1934
29203W        W44334   1.193   1.416   4.623  0.0832  0.0343 -0.0718
29204W        W44335   4.920   2.580  11.296 -0.1565  0.2232  0.1737
29205W        W44336  12.147  17.402  15.131  0.1288  0.0736 -0.2454
29206W        W44337  10.929   1.905   2.763 -0.1189 -0.0946 -0.0652
29207W        W44338   2.516  17.035  12.036 -0.0039  0.2002 -0.2604
29208W        W44339   7.521  17.957   1.564 -0.1037  0.0196  0.0944
29209W        W44340   3.459   9.733   0.365  0.0113 -0.1981 -0.1703
29210W        W44341  15.651  16.606  13.308 -0.0503 -0.1196  0.0851
29211W        W44342   8.426  14.966  16.027  0.0501 -0.0083 -0.1694
29212W        W44343   6.501  13.810   0.392  0.2077 -0.5710  0.0436
29213W        W44344  15.037  12.180  14.360  0.3156 -0.0042  0.2719
29214W        W44345  12.640   4.327  11.785  0.0543  0.3414 -0.1782
29215W        W44346   5.181   3.557   1.804  0.0591  0.1027 -0.1605
29216W        W44347  15.326   7.592   5.570  0.1675  0.4986  0.2366
29217W        W44348   7.044  16.066  14.577 -0.2486  0.2883 -0.1902
29218W        W44349  15.862  16.148   3.859 -0.1400  0.2952 -0.1157
29219W        W44350   9.061   9.569   5.605  0.0051 -0.0025  0.0015
29220W        W44351  12.747   5.026   2.945 -0.0144 -0.0392  0.3702
29221W        W44352  11.624  16.472   5.027 -0.1309  0.0694 -0.1241
29222W        W44353  10.076   0.225  10.914  0.2855  0.0044 -0.2072
29223W        W44354   7.647  11.228  12.781  0.2374  0.0734 -0.2865
29224W        W44355  16.944   6.684  10.743  0.0764  0.0580  0.2392
29225W        W44356   8.497  13.327  10.904  0.1413  0.2426 -0.0250
29226W        W44357   0.141   1.712  10.435 -0.1130  0.1995 -0.0305
29227W        W44358   0.626   0.174  10.873  0.0821 -0.1676 -0.1499
29228W        W44359  15.515  13.683   5.132  0.2890  0.1890 -0.1757
29229W        W44360  12.552   6.086   1.015  0.0827  0.0921  0.3648
29230W        W44361   8.449   9.295  13.260  0.2752 -0.1805 -0.1938
29231W        W44362   4.251  14.575  13.667 -0.4589  0.3132 -0.0215
29232W        W44363   2.304   1.549   3.643  0.0001  0.1687 -0.0755
29233W        W44364   2.769   2.364   3.374  0.1748  0.0811 -0.1653
29234W        W44365   5.110   9.842  12.531  0.1658 -0.1359 -0.0890
29235W        W44366   2.962   6.417   5.425  0.0710  0.1879  0.1960
29236W        W44367   0.500  13.020   9.902  0.4052  0.2810  0.1053
29237W        W44368  12.925  14.134   4.520 -0.0859 -0.2047  0.0459
29238W        W44369  18.130   7.803   1.958 -0.1312 -0.0735 -0.0580
29239W        W44370   4.234  17.166  14.380 -0.1971 -0.0418 -0.2699
29240W        W44371   4.452  15.506  10.749 -0.1316 -0.2070 -0.0753
29241W        W44372   0.066  15.129   4.658 -0.0001  0.1972 -0.0693
29242W        W44373   8.285   3.899  14.483  0.0479 -0.2842 -0.0714
29243W        W44374   4.364  15.452  13.763 -0.4789 -0.0829  0.2556
29244W        W44375   8.281  16.446   3.397  0.0438 -0.0654 -0.2004
29245W        W44376  16.766  17.231   5.010  0.1101 -0.1526  0.1829
29246W        W44377  18.095   0.283   5.401  0.1655  0.2037 -0.0044
29247W        W44378  15.742  17.104   2.273  0.3047  0.2205  0.1730
29248W        W44379   8.888   5.345  13.201  0.1223  0.0962 -0.0788
29249W        W44380   6.840   1.077  14.471 -0.3851  0.0748 -0.2120
29250W        W44381   2.423   5.018  10.249  0.2564 -0.2554  0.2105
29251W        W44382   5.930   3.608  12.217 -0.0186  0.1136 -0.2065
29252W        W44383  16.862  11.629  11.395 -0.2628  0.2624 -0.0633
29253W        W44384   9.654  18.459  12.365 -0.0333  0.0004  0.1188
29254W        W44385  16.413  15.507  12.699  0.1204  0.0170  0.1329
29255W        W44386   8.923   0.388   3.134 -0.2660  0.0276 -0.1144
29256W        W44387  13.065   9.666  13.910 -0.0254 -0.0424  0.0640
29257W        W44388   2.199  16.885   3.580 -0.1774  0.0793 -0.2226
29258W        W44389   4.194   3.922   3.042 -0.0636 -0.6085 -0.0388
29259W        W44390  13.962   4.949   2.318 -0.1325 -0.0391  0.4223
29260W        W44391   1.927  16.964   0.433  0.1983  0.0499  0.1708
29261W        W44392   1.468  15.549   0.190 -0.0761 -0.1142  0.1135
29262W        W44393   2.578   3.346   0.237 -0.0371 -0.1766 -0.6241
29263W        W44394   3.920  12.493  15.721  0.0017  0.2588 -0.3798
29264W        W44395  10.609   8.138   1.275 -0.1260  0.0340 -0.0455
29265W        W44396  10.244   8.712  14.215 -0.2111 -0.0422 -0.0176
29266W        W44397   4.071   9.648   0.831 -0.1016 -0.1251  0.0975
29267W        W44398   0.195  13.073   4.720  0.1850  0.2613  0.0710
29268W        W44399   7.117  11.609  13.270 -0.2612  0.1248 -0.1258
29269W        W44400   1.075   8.093  15.732 -0.1218  0.0047  0.1412
29270W        W44401   7.332   9.157  13.902 -0.0073 -0.0457  0.2230
29271W        W44402  13.297   0.379   2.326 -0.2487 -0.0444 -0.2896
29272W        W44403  15.051  17.872  14.055  0.2731  0.2482  0.2240
29273W        W44404  14.710  16.042  10.462  0.0382  0.1338  0.2205
29274W        W44405  17.022   0.569  16.072 -0.4158 -0.1212  0.1674
29275W        W44406  12.407   5.771  10.295  0.1800 -0.0263 -0.1391
29276W        W44407  15.736   5.425  12.753 -0.0021  0.0950  0.0254
29277W        W44408  10.296  10.707   3.770 -0.1707 -0.3125  0.1859
29278W        W44409   5.382   1.659   3.418  0.1889 -0.1253 -0.1993
29279W        W44410   4.039   7.236   3.008  0.1510  0.1698  0.0390
29280W        W44411  11.654   8.152   3.053 -0.1589 -0.3379 -0.3267
29281W        W44412  11.436   3.121   2.274 -0.2778  0.0096 -0.0331
29282W        W44413  11.840  12.689   0.834 -0.1588  0.0618  0.1371
29283W        W44414   1.657  16.352  15.139 -0.0365 -0.2557 -0.4171
29284W        W44415   8.376   8.559   4.246 -0.1384 -0.3253  0.2263
29285W        W44416  12.801  16.075  13.977 -0.2973 -0.0353  0.3521
29286W        W44417   5.458   1.263   4.347 -0.2146  0.1676 -0.1582
29287W        W44418   1.982  13.994  12.862 -0.0448  0.1790 -0.1006
29288W        W44419  15.259  13.525  14.736  0.0985 -0.0971  0.3681
29289W        W44420   4.416   4.459   2.416  0.2268 -0.2125 -0.5059
29290W        W44421   5.189   8.944  14.591  0.1128 -0.2592  0.1502
29291W        W44422   2.413   5.292   4.179 -0.0703 -0.3392 -0.2040
29292W        W44423  10.029   0.648   0.242 -0.2216 -0.4030 -0.1754
29293W        W44424   6.272   7.912   2.046  0.1599 -0.1080  0.1525
29294W        W44425  16.636   5.023   3.181 -0.0537  0.1461  0.3196
29295W        W44426   6.638   5.006  13.177 -0.2555 -0.2861 -0.0596
29296W        W44427   7.947  10.579  14.917 -0.0022 -0.0315 -0.1864
29297W        W44428   5.153   3.372  12.400  0.2328  0.4466  0.1160
29298W        W44429  17.964   6.720   3.827  0.0919  0.2580  0.1348
29299W        W44430   5.460   6.475  14.295  0.0878 -0.0630 -0.0316
29300W        W44431  12.210  11.017   5.898 -0.1254 -0.0117 -0.0136
29301W        W44432   5.435   8.280  15.393  0.2660  0.2011  0.0017
29302W        W44433   6.384  13.936   4.136  0.0294 -0.1399 -0.1660
29303W        W44434   1.741  16.925  13.836  0.1297  0.0910 -0.2863
29304W        W44435   5.294  10.022   5.413  0.1821 -0.1142 -0.1396
29305W        W44436  15.479  10.659   0.719 -0.2318  0.1119  0.0342
29306W        W44437  16.940   1.497  13.584  0.3232 -0.0919  0.0909
29307W        W44438  10.532   2.559   1.352 -0.1561 -0.0550 -0.0452
29308W        W44439   2.801   1.896  12.524 -0.1418  0.4433  0.5650
29309W        W44440  18.196   5.097   0.968  0.1076  0.0825  0.0776
29310W        W44441   0.135  12.511   3.684  0.3217  0.1656  0.1004
29311W        W44442   5.810   8.768  14.567 -0.2743  0.1775 -0.0092
29312W        W44443  13.550  14.274   2.545  0.3045 -0.1362 -0.0374
29313W        W44444   3.867   6.755   3.941  0.1091 -0.1734 -0.0286
29314W        W44445   1.722  12.838   4.608 -0.0079 -0.4885  0.0187
29315W        W44446   9.583   7.730  15.691 -0.0103 -0.0941  0.2651
29316W        W44447   5.593  14.512  14.407  0.4704 -0.1499  0.1440
29317W        W44448  10.475  14.667  13.138  0.2649 -0.0022  0.0842
29318W        W44449  17.112  16.474  12.290 -0.3188  0.1997 -0.0355
29319W        W44450  12.352   3.626   4.509  0.1272 -0.0294  0.0139
29320W        W44451  14.551  11.820  13.408  0.1219  0.0374 -0.0045
29321W        W44452   1.474  15.810  10.405  0.2240 -0.0447 -0.4018
29322W        W44453  17.215  18.329   4.059  0.0112 -0.0580  0.0805
29323W        W44454  17.366  12.144  12.952  0.1343 -0.2010  0.4111
29324W        W44455  18.072   8.021  11.121  0.0629 -0.2315 -0.1405
29325W        W44456   0.413   5.642  10.973 -0.0418  0.2999  0.0594
29326W        W44457  11.681  14.893  11.475 -0.0008 -0.4830 -0.1046
29327W        W44458  11.992   4.005  11.367  0.2901 -0.2294 -0.0612
29328W        W44459  14.398   6.340   0.348 -0.0547  0.2311 -0.1392
29329W        W44460   0.272  15.643   2.135 -0.0431  0.0191  0.0261
29330W        W44461  12.346  13.992  13.596  0.2075  0.1095 -0.0335
29331W        W44462  15.064  14.909   4.658 -0.1991 -0.1288  0.1426
29332W        W44463  17.790  18.068  10.135  0.1065  0.1720 -0.1088
29333W        W44464   7.269   8.077   2.299 -0.1368 -0.3730 -0.1605
29334W        W44465   2.047  13.831  16.015  0.3483  0.2022  0.0698
29335W        W44466   9.477   5.963  13.793 -0.0189  0.1471 -0.2733
29336W        W44467  15.242  13.986   1.771  0.1523 -0.0516  0.0637
29337W        W44468  11.051  12.622   0.189 -0.2622  0.0424 -0.2487
29338W        W44469   6.387  14.712   3.128 -0.1487  0.2176  0.4415
29339W        W44470  10.056  15.572   3.638  0.1527 -0.4485 -0.3061
29340W        W44471  12.062   5.030  14.889  0.2864 -0.0605 -0.1103
29341W        W44472  17.107  18.434   4.757 -0.1570 -0.1468  0.2111
29342W        W44473  15.621  17.235   3.625  0.0381  0.3384 -0.0290
29343W        W44474  17.158   5.685   2.540  0.1199 -0.1519  0.1847
29344W        W44475   9.087   3.638  15.356 -0.1259  0.3222  0.0803
29345W        W44476  15.504   9.709   5.210  0.2109 -0.3131 -0.2063
29346W        W44477   3.291   1.950   0.759 -0.0540  0.0776  0.0137
29347W        W44478   0.445  16.500  13.341  0.2732  0.1861  0.1112
29348W        W44479  11.580   8.246  11.351 -0.0602  0.0510  0.2898
29349W        W44480  14.438   8.161   0.812 -0.2308  0.2670  0.1281
29350W        W44481   8.400  15.427  15.842  0.0159  0.0701 -0.1584
29351W        W44482  13.850   3.923   1.239  0.0154  0.0162  0.1216
29352W        W44483   8.311  12.896   4.082  0.1398 -0.0800 -0.2538
29353W        W44484  13.170   7.558  14.363  0.1174 -0.4295 -0.1332
29354W        W44485   7.121   4.569   2.931 -0.1478 -0.3457 -0.1573
29355W        W44486   7.713   5.699  11.582 -0.0301  0.0740  0.0970
29356W        W44487  13.348  10.162  15.128 -0.1977  0.0394  0.2628
29357W        W44488   6.325  17.904   1.409 -0.1160  0.4757 -0.0696
29358W        W44489  14.482   4.219  14.862 -0.1398 -0.0165  0.1075
29359W        W44490  11.111   7.465   0.733  0.2566  0.1438 -0.1161
29360W        W44491   1.199   7.207  13.277  0.4578  0.0085 -0.0043
29361W        W44492   9.650  17.129  15.913 -0.0503  0.1460  0.0696
29362W        W44493   0.519  17.076  15.376  0.3546 -0.0462  0.0622
29363W        W44494   7.319  13.600  15.118 -0.0302  0.3201 -0.0757
29364W        W44495  16.578   2.564  11.900 -0.0138  0.1681 -0.1309
29365W        W44496  10.453  17.202  14.303 -0.1012 -0.0836 -0.1095
29366W        W44497   4.169   2.626  15.538  0.1725  0.0880 -0.2677
29367W        W44498  11.106  13.298   1.862  0.0674 -0.0017 -0.1623
29368W        W44499  15.216  16.034   1.005  0.0939  0.0387  0.4121
29369W        W44500   8.163  14.211   2.487 -0.0266 -0.1489  0.1061
29370W        W44501   3.429   2.216   2.906 -0.3264  0.3045  0.4179
29371W        W44502   1.063  17.967  11.589 -0.0395 -0.3740 -0.1560
29372W        W44503  18.041  11.032  12.462  0.2452  0.2499  0.1052
29373W        W44504  15.944   5.025   5.356  0.0107  0.2022 -0.0627
29374W        W44505   2.656   7.146   4.105 -0.3513 -0.2888 -0.1018
29375W        W44506  10.570  17.146  15.658 -0.0397 -0.1607  0.1824
29376W        W44507   5.196  18.457  11.590  0.1986  0.1403 -0.2851
29377W        W44508   9.238   9.228   1.605 -0.0492 -0.1348 -0.1057
29378W        W44509   2.680  11.305  12.517  0.0814 -0.2258 -0.0659
29379W        W44510   2.393   3.200  12.473 -0.0097 -0.0594 -0.0572
29380W        W44511  12.517   5.637  14.157  0.4704 -0.1882  0.0999
29381W        W44512   0.722   5.829  14.732 -0.1004 -0.3960  0.2499
29382W        W44513  15.853  15.204  15.737  0.0407 -0.0398 -0.0683
29383W        W44514   3.695   8.342  12.697  0.1509  0.0546 -0.0898
29384W        W44515   7.863   2.269  14.796  0.1341  0.2697  0.0982
29385W        W44516   3.326  14.416  10.848  0.3761 -0.1157 -0.3781
29386W        W44517  14.706  17.016  10.107  0.0083 -0.1926  0.0789
29387W        W44518   6.627   9.796   4.222 -0.1280  0.1564  0.0729
29388W        W44519   0.265   8.852   2.582  0.1187 -0.0320 -0.0694
29389W        W44520   0.681   3.189   1.217 -0.0537 -0.2574  0.2946
29390W        W44521   1.871   9.117  14.033  0.4180  0.0761  0.1527
29391W        W44522  16.762  15.488  15.399  0.1737  0.1232  0.2770
29392W        W44523  10.157   5.459  15.643  0.1010  0.1025  0.0210
29393W        W44524   3.100  17.982  15.269  0.0745 -0.0474 -0.0533
29394W        W44525  14.213   0.181  15.262 -0.3162 -0.0773 -0.2620
29395W        W44526  10.683  14.815   2.036  0.1880  0.0722  0.0889
29396W        W44527   9.726  14.834  15.768 -0.0282 -0.2665 -0.1341
29397W        W44528   6.467  17.026  13.359  0.1271  0.1552 -0.2004
29398W        W44529   7.809  11.975   5.298  0.1148  0.2990 -0.0737
29399W        W44530  10.488  15.163   1.275  0.3207  0.3000  0.1081
29400W        W44531   8.406  12.572   2.821 -0.1450 -0.1666 -0.0583
29401W        W44532  10.231   3.699   3.438 -0.1360 -0.0410  0.0731
29402W        W44533  17.452   1.185   0.193 -0.0200  0.2255  0.2394
29403W        W44534   4.427   5.386  14.987  0.1309  0.0665 -0.1439
29404W        W44535  17.973   1.523  14.753  0.1666  0.0932  0.3474
29405W        W44536  17.943  15.569   2.814 -0.1386  0.0268  0.2748
29406W        W44537   0.576  14.470  14.390 -0.2359  0.1382  0.1086
29407W        W44538  14.720  12.535  12.230  0.0894  0.0887  0.3768
29408W        W44539   9.155  15.930  10.574  0.0990 -0.0114  0.0541
29409W        W44540   5.521  11.965  11.581  0.0394 -0.0804  0.1761
29410W        W44541   6.164  16.656   4.061  0.2164  0.1967 -0.0614
29411W        W44542  13.279  16.682   3.471 -0.0044 -0.0765 -0.1111
29412W        W44543   8.764  11.110  14.991  0.2013  0.4747  0.6819
29413W        W44544   8.653   5.509   4.586 -0.2456  0.3409  0.3133
29414W        W44545   3.148   3.326  11.963 -0.0036  0.0564 -0.1033
29415W        W44546   5.900   4.665   2.958  0.1600 -0.0642  0.0416
29416W        W44547   8.592  12.201   1.396 -0.3647  0.1290  0.0240
29417W        W44548   6.755   1.926   3.048  0.2258  0.0977 -0.1309
29418W        W44549   0.371   1.268  15.228 -0.3609  0.4940 -0.0610
29419W        W44550   0.535  11.696   4.211 -0.0050 -0.0379 -0.2641
29420W        W44551  13.819  17.376   1.300  0.5423  0.0491  0.2333
29421W        W44552   0.808  12.705   4.098 -0.0784 -0.0545  0.1110
29422W        W44553   7.697   8.241  15.263  0.0024  0.3346  0.2181
29423W        W44554  15.737   4.572  15.743  0.0354 -0.0568  0.0286
29424W        W44555  14.306  13.099  15.728 -0.2229 -0.0946  0.2911
29425W        W44556   6.206   0.886   4.027 -0.1802  0.0389 -0.0940
29426W        W44557   8.282  13.696  15.040 -0.0225  0.1251  0.0228
29427W        W44558  17.827   2.217   5.970 -0.1822  0.1789 -0.0360
29428W        W44559   9.050   3.873   5.607 -0.3089  0.1389 -0.0081
29429W        W44560  11.786  12.881  15.603  0.1983  0.3281  0.0593
29430W        W44561   1.829   0.052  16.039  0.0427 -0.0186 -0.1936
29431W        W44562   5.320  15.226   3.507 -0.0209  0.0254 -0.2376
29432W        W44563   9.011  17.823  14.946  0.2823  0.0601 -0.3136
29433W        W44564  11.281   0.854   2.471 -0.2909  0.4650 -0.2240
29434W        W44565   3.763  11.554  14.174 -0.3939 -0.2787  0.1456
29435W        W44566   2.062  10.884   3.878 -0.3620  0.1549  0.0506
29436W        W44567  18.311  17.967  15.348 -0.1082  0.2435 -0.2170
29437W        W44568  12.999   8.779  13.310 -0.0118 -0.1537  0.0183
29438W        W44569   1.403   8.530  12.657 -0.3763 -0.3136 -0.0318
29439W        W44570   4.884  14.593  11.128 -0.3108 -0.1563  0.0676
29440W        W44571  14.147   3.792   1.685  0.2606  0.3344  0.0131
29441W        W44572  16.983   9.533  11.950 -0.0072  0.3376 -0.1503
29442W        W44573   5.770   0.915   0.243 -0.1643 -0.1807  0.2488
29443W        W44574  12.871   5.838  13.135  0.1824 -0.2724 -0.2508
29444W        W44575  16.280  15.403   1.284 -0.0953  0.2355  0.0765
29445W        W44576   1.764  17.008  12.309 -0.1512 -0.0009  0.1097
29446W        W44577   4.152   2.827   1.083  0.4020 -0.1031 -0.0355
29447W        W44578  18.330  15.200   0.362  0.3911  0.2447  0.3706
29448W        W44579  11.921   6.638   3.090 -0.2383  0.3641 -0.1372
29449W        W44580  12.819  10.363   4.696 -0.2626  0.1385 -0.0539
29450W        W44581   0.337   6.774  11.856 -0.0874 -0.0526 -0.1048
29451W        W44582  14.377   5.035   0.606 -0.1485 -0.0971  0.0176
29452W        W44583  10.457  11.863   5.856  0.2866  0.0578  0.1199
29453W        W44584   5.311   7.891   4.317 -0.0598 -0.0341  0.3264
29454W        W44585  14.473  15.611  10.649  0.1824 -0.3346  0.0370
29455W        W44586  11.786   4.962  15.313 -0.2272  0.2570 -0.0932
29456W        W44587  17.559  13.956  11.307 -0.2908 -0.1190  0.0476
29457W        W44588   0.769   7.308  13.493  0.1829 -0.2461  0.0951
29458W        W44589   1.244  13.455  14.181 -0.0836  0.0552  0.1235
29459W        W44590   3.743   5.468  12.457  0.3205 -0.0648  0.0071
29460W        W44591  16.420  15.062   3.394 -0.1323  0.0934  0.0521
29461W        W44592   0.715   1.527   3.879  0.3419 -0.0655  0.0891
29462W        W44593   3.792   2.819   1.693 -0.1774 -0.0129  0.3369
29463W        W44594   6.849   0.173  12.353 -0.2583  0.2887  0.1028
29464W        W44595   3.066   9.114  13.343 -0.1717  0.0029  0.3350
29465W        W44596   1.768  13.143  10.169  0.5860  0.1227 -0.1387
29466W        W44597   5.693   5.473  11.255 -0.2633 -0.0328  0.0016
29467W        W44598   2.373   0.670   2.650  0.0091  0.2658  0.0731
29468W        W44599   4.802  16.019   2.923  0.3185 -0.0146 -0.1939
29469W        W44600  14.190  16.548  15.151  0.0370 -0.0820 -0.1683
29470W        W44601  11.085  16.365  10.666  0.0596  0.3035  0.0549
29471W        W44602  13.590   1.050   5.486  0.0225  0.2768  0.0755
29472W        W44603  14.506   1.114  13.878 -0.0631 -0.1621  0.1537
29473W        W44604  11.045  14.695  14.017 -0.0122 -0.0525  0.1512
29474W        W44605  13.144  12.119  15.054  0.1690  0.0698 -0.1594
29475W        W44606  13.621   9.976  11.152  0.1539 -0.3447  0.3794
29476W        W44607   8.461  12.936   3.605 -0.0365 -0.1170 -0.2303
29477W        W44608  12.075   0.925   6.380  0.4154  0.2685 -0.0539
29478W        W44609  14.467  12.059   4.138  0.0024 -0.3205 -0.1621
29479W        W44610   6.102  12.023   4.364 -0.2311 -0.2256 -0.1392
29480W        W44611   0.085   6.214  13.066  0.0176  0.0646 -0.2139
29481W        W44612   4.391   5.348  11.010 -0.2351 -0.1580 -0.2382
29482W        W44613  11.535  17.419   4.405 -0.1443  0.1053  0.0587
29483W        W44614   9.121  18.057   4.466  0.0304 -0.0066 -0.0872
29484W        W44615   3.798   5.192  15.623 -0.2540 -0.3825 -0.1314
29485W        W44616   7.003   5.440  13.767 -0.0559 -0.1575  0.0236
29486W        W44617   6.509   3.788   3.317  0.5037 -0.1551 -0.1774
29487W        W44618  15.827   3.679  14.434  0.3480 -0.0745 -0.1960
29488W        W44619   6.995   2.153  12.196 -0.0688 -0.1427 -0.1833
29489W        W44620   7.877  15.043  14.325  0.1975 -0.2522  0.1920
29490W        W44621   3.234   1.654   9.428  0.0985 -0.2485  0.2358
29491W        W44622   1.521   1.501  10.837 -0.0074 -0.0004 -0.0355
29492W        W44623  14.747  14.774   2.351  0.1186  0.1848 -0.1553
29493W        W44624   5.114  18.384  13.361 -0.3166  0.0333 -0.2031
29494W        W44625   8.578   1.115  11.109 -0.1935 -0.0367  0.2565
29495W        W44626  17.775  14.874  12.056  0.2095  0.0178  0.0126
29496W        W44627   0.214   4.139   2.481 -0.0415 -0.2628  0.2112
29497W        W44628   2.309   0.498   4.243 -0.1486  0.0814  0.1299
29498W        W44629   6.979   4.564   0.928 -0.2448 -0.2385  0.2629
29499W        W44630   4.151   9.492  15.179  0.0767 -0.0469 -0.0822
29500W        W44631  15.116  11.095   2.714 -0.0451 -0.1080 -0.0557
29501W        W44632  10.260   2.707  15.340 -0.1668  0.0183  0.3893
29502W        W44633   6.561   7.879   5.145  0.2176 -0.0054 -0.1794
29503W        W44634   1.430   8.489   2.486 -0.2272 -0.2067 -0.2445
29504W        W44635   0.844  17.984  14.899  0.3130  0.1305 -0.1383
29505W        W44636   9.218  16.477   3.062 -0.0106  0.1048  0.0940
29506W        W44637   5.300  14.347   4.518  0.3791 -0.1276 -0.0212
29507W        W44638   3.327   1.126   1.292 -0.2329 -0.0452  0.2050
29508W        W44639  14.995  17.433  14.350 -0.1406  0.3207 -0.0087
29509W        W44640   7.825  18.487   0.744 -0.1306 -0.0453  0.1017
29510W        W44641  17.211   6.443  15.406  0.1178  0.1127  0.1312
29511W        W44642   9.324   1.596  15.235  0.3941 -0.2226 -0.0465
29512W        W44643  16.571   4.577   0.280  0.1619 -0.0120  0.0929
29513W        W44644   8.448  15.988   4.607  0.3342  0.3875 -0.0934
29514W        W44645   2.988  11.932   4.476  0.1470 -0.2351  0.2355
29515W        W44646   5.455   7.263   0.007  0.3538  0.1679 -0.2818
29516W        W44647   8.832   1.983   0.877 -0.2497 -0.0180  0.0501
29517W        W44648  14.561  15.311  11.200 -0.1149  0.0789  0.3782
29518W        W44649  10.422   5.117   0.856  0.2331  0.1295  0.1232
29519W        W44650  10.046   0.026   4.669 -0.3319 -0.0266 -0.2486
29520W        W44651   1.614   5.199   4.527 -0.1735  0.0969 -0.2777
29521W        W44652  16.032   3.437   4.383 -0.3614 -0.0001  0.1489
29522W        W44653   2.899   0.979  15.318 -0.1420 -0.3103  0.1448
29523W        W44654  13.573  15.218  10.832 -0.2058  0.0296 -0.3051
29524W        W44655   4.224   1.268   0.461  0.0447  0.0167 -0.0365
29525W        W44656  10.535   3.525  11.625 -0.0761  0.1077  0.2183
29526W        W44657  10.569   3.066   1.332  0.1976 -0.0939 -0.4652
29527W        W44658   7.840  11.564  14.278  0.0484 -0.0869 -0.4446
29528W        W44659   2.945   1.835  15.261 -0.0005 -0.2143 -0.1847
29529W        W44660   0.834  14.638   4.879  0.1040  0.1330 -0.0741
29530W        W44661   7.092  13.295  14.872  0.2275  0.0107  0.1634
29531W        W44662   1.893  11.681   4.910  0.1075  0.2645  0.1348
29532W        W44663   5.505   6.160  13.839 -0.1554  0.1442 -0.3693
29533W        W44664   4.451  15.579   2.870 -0.2212  0.2088 -0.3727
29534W        W44665  10.949   6.684  12.472 -0.2202 -0.0590 -0.2967
29535W        W44666   1.441   4.040   0.390 -0.3208  0.0517 -0.0119
29536W        W44667  13.827   1.789  11.943  0.3188  0.0531 -0.6633
29537W        W44668   0.061  11.978  12.439  0.1852 -0.1949  0.1196
29538W        W44669  16.558   3.704  12.596 -0.2897 -0.2547  0.0317
29539W        W44670  15.346   0.259  15.855 -0.0697  0.1547 -0.0789
29540W        W44671  15.892  18.212  13.122 -0.1023  0.1753 -0.0736
29541W        W44672  15.429   0.018   2.955  0.2559 -0.0238  0.1655
29542W        W44673  15.269  17.275  11.934 -0.0552  0.2607  0.0828
29543W        W44674   7.905  14.968   4.059 -0.4093  0.0673  0.2207
29544W        W44675   1.078   7.080  12.779 -0.1539  0.3348 -0.1906
29545W        W44676  12.912  14.401   2.591  0.1581  0.1247 -0.0216
29546W        W44677  16.363  15.879  13.963 -0.1211  0.0570  0.2082
29547W        W44678  13.615   0.143  13.020  0.3052  0.2922 -0.1798
29548W        W44679  13.604   5.100   6.187  0.2014 -0.0994  0.1584
29549W        W44680   8.873   1.526   5.875  0.0329 -0.1968 -0.0606
29550W        W44681  14.604  14.671  16.097  0.0702 -0.0317  0.0430
29551W        W44682  16.135  14.608  13.767  0.1323  0.1224  0.0506
29552W        W44683   5.317   7.959  14.975 -0.1163 -0.0504 -0.2300
29553W        W44684   2.025   4.860   0.422  0.1087 -0.0747  0.0494
29554W        W44685   1.614   4.312  16.003 -0.0498  0.1302 -0.3030
29555W        W44686  13.647   3.506  10.730  0.1692 -0.0074 -0.3110
29556W        W44687   0.549   2.647   1.881  0.4097 -0.0176 -0.1171
29557W        W44688  13.640  17.170   2.113 -0.3199 -0.1450 -0.0024
29558W        W44689  10.890   8.562   3.410  0.1432  0.1982  0.0266
29559W        W44690  13.278   4.439  11.202  0.0235  0.2489 -0.3121
29560W        W44691   3.327   6.977   2.502  0.0725  0.3395 -0.1161
29561W        W44692  11.098   4.767   3.177 -0.0792  0.1734  0.0223
29562W        W44693  13.724   0.752   3.821 -0.0216 -0.2700  0.0693
29563W        W44694  10.712   9.273   4.671 -0.0189 -0.2688 -0.2429
29564W        W44695   0.631  17.322   1.902 -0.0465 -0.1703 -0.0175
29565W        W44696   1.215  18.415   3.784  0.2233  0.0143  0.0216
29566W        W44697   8.149  17.104  14.430 -0.0513 -0.4094 -0.2222
29567W        W44698  14.679  17.072  14.794 -0.0534  0.0543 -0.2318
29568W        W44699  14.853   2.070  13.622  0.3504  0.0765  0.1628
29569W        W44700  11.698   4.500   1.704  0.0331  0.1834 -0.1156
29570W        W44701  15.858   3.242   3.617  0.0034  0.1119  0.1172
29571W        W44702  10.327  12.603  11.668  0.1032  0.2902  0.3411
29572W        W44703  14.012   6.733  11.532  0.2071 -0.0375 -0.3833
29573W        W44704   4.510   9.630   4.802 -0.0252 -0.0834  0.1590
29574W        W44705   8.885  15.284  12.262  0.1465  0.0659 -0.0188
29575W        W44706   7.100  14.829  10.869 -0.2188  0.0473 -0.0363
29576W        W44707  18.489   1.080  11.602 -0.0163 -0.0394  0.0591
29577W        W44708   9.450   6.187   1.168  0.2977 -0.0081 -0.0655
29578W        W44709  16.684   8.410   1.737  0.1629 -0.0241  0.2985
29579W        W44710  12.985  11.492  12.594 -0.1297 -0.1745 -0.2739
29580W        W44711  14.045  15.761  14.627 -0.2421  0.2117  0.0129
29581W        W44712  16.472   4.577  10.286  0.1010  0.0564 -0.1089
29582W        W44713   0.706   1.348   4.451 -0.0247 -0.0949 -0.2688
29583W        W44714   2.573  17.036  14.064 -0.0794 -0.0801  0.2092
29584W        W44715  17.577  17.423  11.037 -0.2522  0.2580 -0.0967
29585W        W44716  15.920  14.430  11.867  0.0863  0.1831  0.2995
29586W        W44717   7.082   8.676  10.932 -0.1624 -0.1656 -0.0327
29587W        W44718  17.673   8.186   0.040 -0.1692 -0.0608  0.2413
29588W        W44719  18.339  18.342  14.420  0.1923  0.1309 -0.0819
29589W        W44720  10.893   1.148  15.721  0.0925  0.0492 -0.3371
29590W        W44721   2.972  18.379  13.250  0.0652 -0.2039 -0.2447
29591W        W44722  13.450   8.042  12.284  0.2056  0.2144  0.0505
29592W        W44723  16.192   2.118  13.370 -0.2862  0.0470 -0.7584
29593W        W44724   4.663  13.105   1.969  0.1491 -0.2839  0.1280
29594W        W44725  15.110  16.152  13.676  0.1390 -0.2417 -0.0453
29595W        W44726  10.411  17.735  10.363  0.2655 -0.0556  0.1650
29596W        W44727  15.231   3.278   2.743 -0.4227  0.3854 -0.2494
29597W        W44728   3.042   6.773   3.089 -0.0287  0.3625 -0.0539
29598W        W44729   5.435   9.467  12.698 -0.1875 -0.1620 -0.2804
29599W        W44730   4.650   9.338   4.422  0.1074  0.1075  0.2340
29600W        W44731  16.243  18.327  15.971 -0.2702  0.0085  0.0500
29601W        W44732   6.501   4.857  15.476 -0.0593 -0.2085  0.0473
29602W        W44733   2.824   6.572   5.931 -0.1557  0.1175  0.1269
29603W        W44734   8.958  15.413  15.464  0.0020 -0.0367  0.3537
29604W        W44735   8.255  10.951  13.729 -0.3109 -0.0808 -0.0243
29605W        W44736   5.473   0.183  14.266 -0.2635  0.1501 -0.3104
29606W        W44737   9.459  15.802   1.293  0.1599 -0.0410 -0.3507
29607W        W44738   5.390  16.636  13.633 -0.1055 -0.1372  0.2221
29608W        W44739  18.220   4.170  13.812  0.1837  0.1205  0.0897
29609W        W44740   7.375  12.848  14.170  0.0182  0.1256 -0.0041
29610W        W44741   5.190   8.425   5.865  0.0856  0.2133 -0.1314
29611W        W44742   0.133  14.605   0.699 -0.0531  0.0329  0.0818
29612W        W44743   5.677   9.483   4.211 -0.1242 -0.1282  0.0328
29613W        W44744  12.683   2.176   3.321  0.0827  0.2198 -0.4682
29614W        W44745   8.301   4.471   3.484  0.2573  0.0522 -0.1149
29615W        W44746   9.758   9.939  13.974  0.0420  0.2030 -0.1822
29616W        W44747  15.881   9.042  14.270 -0.2173  0.0400  0.0479
29617W        W44748  13.984  16.275  11.982  0.0663  0.2126 -0.0592
29618W        W44749  14.187   7.021   1.518 -0.1944 -0.2387 -0.1818
29619W        W44750   2.003   5.538   4.450 -0.0889 -0.1286  0.2470
29620W        W44751   5.673   4.077  15.761 -0.2936  0.0286  0.1781
29621W        W44752   2.536   7.994   5.551 -0.0050 -0.0790  0.3239
29622W        W44753   9.858   9.256   4.220  0.3672  0.0796  0.1171
29623W        W44754   3.392  13.345  13.680 -0.0844 -0.4876 -0.2041
29624W        W44755  15.602   2.220   4.374 -0.0590 -0.3045  0.2125
29625W        W44756   4.803   1.344  13.247  0.3182  0.0446 -0.0119
29626W        W44757   4.966   6.335   0.631  0.0340 -0.0403 -0.0268
29627W        W44758   3.610  17.554   1.159 -0.3797 -0.1068  0.0206
29628W        W44759   4.512   5.702   3.411 -0.4538 -0.2185 -0.0127
29629W        W44760   4.634   8.839   6.633 -0.1428  0.0896  0.0298
29630W        W44761  15.427   3.867  15.838  0.0529  0.4655  0.2726
29631W        W44762  11.088   4.093  15.453 -0.0146 -0.1582 -0.0869
29632W        W44763  10.444  14.253  15.445  0.1454  0.1196 -0.2615
29633W        W44764  12.259  12.779   0.342 -0.3145 -0.1610  0.1891
29634W        W44765   1.059   9.628  13.982  0.0026  0.0358 -0.0966
29635W        W44766   6.980  16.892  12.348 -0.0728 -0.0661  0.2417
29636W        W44767  14.746   9.221  11.374 -0.0103 -0.0893  0.0943
29637W        W44768  14.057   7.852  16.033 -0.1424  0.0209 -0.2343
29638W        W44769  16.411  17.957  14.283  0.1386  0.1269  0.1769
29639W        W44770   3.801  11.543  12.708  0.0239 -0.3475 -0.2713
29640W        W44771   9.157   5.102  14.895 -0.1181 -0.1836 -0.2828
29641W        W44772  11.420   7.131  11.341 -0.2221 -0.0999 -0.0147
29642W        W44773  17.292  14.216  13.247  0.0330  0.4718 -0.0785
29643W        W44774   3.236  18.029   1.654  0.2848 -0.2464  0.1452
29644W        W44775   8.763  10.707   5.413  0.2101 -0.3287  0.2326
29645W        W44776   0.192   4.863  14.748 -0.2587  0.3591 -0.1977
29646W        W44777  17.431   3.028   1.119  0.0203 -0.1653  0.0727
29647W        W44778   5.733  11.479  12.325  0.1612 -0.3122  0.0866
29648W        W44779  12.964  17.647  13.487 -0.6134 -0.0403 -0.0463
29649W        W44780  17.382   2.541   1.952 -0.0701  0.1892 -0.1003
29650W        W44781  12.619   5.083  10.243  0.2451 -0.2010  0.2498
29651W        W44782  13.408  11.305   2.242  0.1123  0.0502 -0.0740
29652W        W44783  17.413   8.205  12.567 -0.1375 -0.0756 -0.0417
29653W        W44784  18.092   0.296  12.481 -0.0372  0.1007  0.5632
29654W        W44785  17.354   2.770   4.027  0.1579 -0.1120 -0.1744
29655W        W44786   1.977   8.350  12.819 -0.0079  0.2260  0.0585
29656W        W44787   1.847  15.723   1.407  0.0236  0.0402  0.0018
29657W        W44788   0.094  15.508  13.614 -0.0325  0.2956  0.1532
29658W        W44789  10.079   6.768   6.002 -0.0069  0.1185 -0.2327
29659W        W44790  13.645  10.455   4.080  0.0167  0.0832  0.0927
29660W        W44791   5.086   7.418   4.464 -0.0568 -0.0955  0.3195
29661W        W44792   2.096   6.866  15.206  0.4049 -0.1294  0.2502
29662W        W44793   4.747   8.770  13.769  0.0606  0.4240 -0.4431
29663W        W44794  10.429   3.965   4.739 -0.1308  0.3448  0.1366
29664W        W44795  10.500  10.324   3.966  0.0517  0.1591  0.3413
29665W        W44796   8.311  15.315  15.031  0.1219 -0.3082 -0.3377
29666W        W44797  14.187  17.092   3.315 -0.1369 -0.0964 -0.1365
29667W        W44798   2.050   9.153   1.016 -0.0582 -0.3151  0.6668
29668W        W44799   7.114  14.756  11.826  0.2359 -0.1690 -0.1427
29669W        W44800  10.685   3.605  13.974  0.0819  0.4068  0.5465
29670W        W44801  12.859   3.330  12.738 -0.2921  0.2938 -0.1047
29671W        W44802  11.423  18.413  13.371 -0.0480  0.0792 -0.2327
29672W        W44803  16.283   8.943   5.624 -0.3235 -0.3884 -0.1519
29673W        W44804   9.656  10.916  11.629  0.0539  0.0937 -0.0043
29674W        W44805  11.448   4.459   2.948 -0.5650  0.0117 -0.0383
29675W        W44806  13.986   0.301  15.695 -0.0526 -0.1563 -0.3877
29676W        W44807   6.994  11.075   3.865  0.1021 -0.0091  0.1560
29677W        W44808  12.034   3.993  12.892  0.0667  0.0724 -0.0683
29678W        W44809  11.737   6.089   3.658  0.0978  0.1616 -0.0417
29679W        W44810   5.502   5.368  12.321  0.0065 -0.0318 -0.1173
29680W        W44811  13.847  15.972   0.435 -0.0777  0.0344 -0.0069
29681W        W44812   4.965   7.423   0.984 -0.1747 -0.0068  0.2826
29682W        W44813   0.964   4.036  13.884 -0.1866  0.1183  0.3070
29683W        W44814  12.767  16.858   5.606 -0.0738 -0.1288 -0.0621
29684W        W44815  15.624  13.530   2.128 -0.2912 -0.0898 -0.1461
29685W        W44816   5.044  12.565  12.769  0.0971 -0.1046 -0.2305
29686W        W44817  14.011  13.592   1.305 -0.0164  0.1623 -0.0092
29687W        W44818  11.868  17.785  11.242  0.2335 -0.1045 -0.0234
29688W        W44819  18.295   9.166  15.498 -0.0186  0.2104 -0.1917
29689W        W44820  10.615  13.144   4.532 -0.0149 -0.2590  0.0380
29690W        W44821  17.031  13.381   0.586  0.0324 -0.3050 -0.1503
29691W        W44822  12.910   2.598  11.686 -0.1336  0.0154  0.0119
29692W        W44823   6.803  11.759  11.446 -0.0624  0.0663 -0.0443
29693W        W44824  17.118  16.586  14.083 -0.1470 -0.2343  0.1279
29694W        W44825   4.472   9.637  11.718  0.4042  0.0038 -0.1931
29695W        W44826  16.658   4.994  14.739 -0.1010 -0.0895  0.0591
29696W        W44827   6.954   5.969   3.454  0.0960  0.2114  0.1166
29697W        W44828   3.304  12.982   4.844 -0.1063 -0.2021  0.1434
29698W        W44829   0.159   9.945   6.276 -0.0899  0.2809 -0.2226
29699W        W44830   2.686  16.961   1.633 -0.2718 -0.0638 -0.1464
29700W        W44831  16.916   0.829   1.361  0.3566  0.2376  0.0123
29701W        W44832   2.515   9.561  11.984  0.0232 -0.0338  0.0597
29702W        W44833  10.700  10.224  11.920  0.0763 -0.0764 -0.0292
29703W        W44834  17.182   2.644  14.034 -0.0892  0.0100 -0.0730
29704W        W44835  12.941  18.481   2.360 -0.1897 -0.3390 -0.1358
29705W        W44836  15.062   8.515   3.398  0.0286 -0.2690 -0.0231
29706W        W44837   1.002   2.237  14.326 -0.0153  0.2306  0.0864
29707W        W44838  13.419  16.575   4.741  0.2091 -0.0587  0.1051
29708W        W44839   1.725   1.284   1.506  0.0458  0.1278 -0.1202
29709W        W44840  15.876  17.299  12.012 -0.3499  0.1879  0.1013
29710W        W44841  14.928   8.936   3.936  0.1827  0.0524 -0.0374
29711W        W44842  10.236  11.032   2.773 -0.2176  0.3296  0.1067
29712W        W44843  13.326  12.808  15.528 -0.0845  0.0236 -0.0596
29713W        W44844  17.539   7.809  15.846  0.2550 -0.0033  0.3005
29714W        W44845  14.806   4.907  13.512  0.0029  0.1426  0.0143
29715W        W44846   5.284   1.503   3.950 -0.0207  0.1072  0.1016
29716W        W44847   4.626  15.144  14.467 -0.0509 -0.3246  0.1461
29717W        W44848  11.434  10.102   1.011  0.3377 -0.0822 -0.1681
29718W        W44849   1.174  16.184  15.937  0.0654  0.0206  0.0635
29719W        W44850   9.295   7.548   1.129 -0.0122 -0.0815 -0.0915
29720W        W44851  14.448   5.632  13.335 -0.0054 -0.0719 -0.1536
29721W        W44852   3.064  12.090   3.189  0.1422  0.2057  0.0743
29722W        W44853   2.181  11.932   2.343  0.2451 -0.0356  0.2218
29723W        W44854  13.757   5.308  11.959 -0.0218 -0.1037  0.2239
29724W        W44855  17.769   4.223  11.402  0.2091 -0.1474  0.2905
29725W        W44856   0.209  14.872  11.159 -0.0838  0.1832  0.0172
29726W        W44857  17.663  15.886  14.025  0.0516  0.1767 -0.0420
29727W        W44858   2.974   2.189  10.697  0.2191 -0.1902 -0.1580
29728W        W44859  11.255  13.414  14.114 -0.1829  0.2600  0.1627
29729W        W44860   6.850   7.352  12.743  0.0222 -0.0476  0.1699
29730W        W44861   4.428   8.042  14.345 -0.2934 -0.1495 -0.2886
29731W        W44862   4.367   7.975  13.563  0.0963  0.3905  0.0292
29732W        W44863   3.429  16.685   3.222 -0.3501  0.3573 -0.1067
29733W        W44864   6.839   0.560  11.960 -0.1713 -0.1849 -0.0776
29734W        W44865  17.714  15.714  10.683 -0.0132 -0.1098 -0.0018
29735W        W44866   7.050  17.739  11.887  0.2952  0.0771 -0.1396
29736W        W44867   9.619   2.710   1.746 -0.1435 -0.1355  0.2477
29737W        W44868   5.729  15.980  15.085  0.1674  0.0224 -0.1548
29738W        W44869  15.559  15.040  13.026  0.2988  0.3161  0.0822
29739W        W44870  10.041  11.820   4.029 -0.1985  0.1937 -0.0040
29740W        W44871   8.016   2.212  16.030  0.3018  0.3475  0.1321
29741W        W44872  17.798   0.857  14.133 -0.1081 -0.2263 -0.0023
29742W        W44873   2.526  18.450  10.886 -0.2911  0.1115 -0.1315
29743W        W44874  11.514   0.951  11.643 -0.1591  0.0605 -0.1385
29744W        W44875   2.394   1.433   2.369  0.1999  0.4247  0.1184
29745W        W44876  15.716  12.021  12.027  0.1506  0.0098 -0.2257
29746W        W44877  16.821   5.063   0.321 -0.1406  0.2958 -0.0336
29747W        W44878   4.334  14.003  11.846  0.2652 -0.0073  0.0324
29748W        W44879   8.330   7.488   3.159  0.0252 -0.1862  0.2018
29749W        W44880  10.267   6.468  13.803  0.2515  0.1739  0.3329
29750W        W44881   2.766  12.265   5.544 -0.0003  0.0637 -0.0919
29751W        W44882  10.686   9.824   3.879  0.0616 -0.0126 -0.2279
29752W        W44883   8.555   7.146  11.227 -0.2402 -0.1577  0.0271
29753W        W44884  12.862   7.499  11.380  0.2046 -0.1898 -0.1442
29754W        W44885   2.338  13.488   3.972  0.0539  0.1099 -0.0542
29755W        W44886   5.900   7.917  12.231 -0.0685 -0.1295 -0.0592
29756W        W44887   1.912   1.597  12.883 -0.0044  0.1327 -0.1578
29757W        W44888  11.416  16.024   0.846  0.0580 -0.0432  0.1999
29758W        W44889  15.425  16.358   3.719 -0.0589 -0.1739 -0.2156
29759W        W44890   3.664   4.042  12.269 -0.1282  0.0597  0.3405
29760W        W44891   9.622  17.615  14.218  0.2183  0.2200 -0.1579
29761W        W44892  13.878   9.710  14.505  0.0961 -0.0637  0.1867
29762W        W44893  17.489   9.632  15.349 -0.1807 -0.0409  0.1635
29763W        W44894  10.465   0.422   3.415  0.0699 -0.1469 -0.3273
29764W        W44895  14.462   5.642   1.960 -0.3242 -0.1824  0.0267
29765W        W44896  12.590  14.946  10.934  0.0439 -0.1279  0.1733
29766W        W44897   4.804  10.208   1.441 -0.2261 -0.1099 -0.1281
29767W        W44898  16.211  12.076   5.977  0.3492 -0.1101  0.0784
29768W        W44899  14.835   4.608   4.236 -0.0834 -0.1566 -0.1292
29769W        W44900  15.196   9.912   4.097  0.1342  0.1963  0.3356
29770W        W44901  10.247   8.174   3.311  0.1911  0.3831 -0.2960
29771W        W44902   4.560  15.585  11.449 -0.0550  0.2149 -0.2664
29772W        W44903   6.049  13.085  14.310  0.0484  0.4657  0.0213
29773W        W44904  17.337   0.243  15.285 -0.0620  0.0250  0.2384
29774W        W44905   7.679  12.487  10.774  0.0306  0.2225 -0.0382
29775W        W44906  10.171  10.603  13.698 -0.1486 -0.0054  0.4464
29776W        W44907   0.071   1.552   3.248 -0.1514  0.1160  0.0240
29777W        W44908   8.178   2.382   4.816 -0.0001 -0.0830 -0.2519
29778W        W44909  10.576  14.308   3.116 -0.0639 -0.2245 -0.2264
29779W        W44910   0.790   1.931  11.735  0.0013 -0.3173  0.4303
29780W        W44911  13.037   4.864   2.578 -0.1553  0.0671 -0.1603
29781W        W44912  14.182  12.182   3.772 -0.2759  0.4269  0.2021
29782W        W44913  18.321   6.650  12.931  0.3182 -0.0699  0.2483
29783W        W44914  15.385   5.067  12.413 -0.2789  0.0707  0.0631
29784W        W44915  15.350   9.153   0.020 -0.1242 -0.2718 -0.0558
29785W        W44916  18.185  15.094   1.969  0.1404  0.0063  0.0722
29786W        W44917   9.582  11.152  16.065  0.0716  0.3051  0.1368
29787W        W44918  13.652  13.901   1.502 -0.0533 -0.3085  0.5590
29788W        W44919   6.235   0.871   0.483 -0.2036 -0.3282 -0.2663
29789W        W44920  11.874   7.478  11.397  0.4464 -0.0199  0.0147
29790W        W44921   1.983  12.565  14.064 -0.2362  0.0941 -0.1771
29791W        W44922   9.173  15.474   0.392  0.0170 -0.0913 -0.1653
29792W        W44923  15.924  18.386   1.286 -0.0925  0.2221 -0.1122
29793W        W44924  15.217  10.143  14.650 -0.0946  0.2303  0.2002
29794W        W44925   4.693  10.180  12.851  0.1872  0.2803 -0.0036
29795W        W44926  17.851   2.285  11.632 -0.2493  0.0799 -0.0441
29796W        W44927   4.850  17.163  12.029  0.1281  0.2558 -0.0204
29797W        W44928  12.183  12.882  11.358 -0.0952 -0.0022  0.1946
29798W        W44929   3.659   0.559  14.506  0.3388 -0.0915  0.3086
29799W        W44930   5.860   4.377  12.361  0.0405 -0.1381 -0.0402
29800W        W44931   7.153  17.593   3.531  0.1570 -0.2537  0.1320
29801W        W44932  16.357   6.536  11.433  0.0774 -0.2281  0.2151
29802W        W44933   2.153  13.352   0.058  0.1235 -0.0864 -0.1574
29803W        W44934  16.758   6.173  13.463  0.2979  0.3430  0.1975
29804W        W44935   0.420  17.943  12.932 -0.0254 -0.1784  0.0822
29805W        W44936   9.579   8.045   5.350 -0.0737  0.0056 -0.1047
29806W        W44937  13.699  18.271  15.746  0.3446  0.0045  0.2386
29807W        W44938  12.036  17.712   1.135 -0.0205  0.4544  0.1584
29808W        W44939   0.830  12.745  11.454 -0.3500 -0.0920  0.1182
29809W        W44940   3.486   9.323   2.794  0.1603 -0.1113  0.1235
29810W        W44941  15.972   7.755  14.019  0.1330 -0.0917 -0.0528
29811W        W44942  10.549   4.264   1.722 -0.0395 -0.2237 -0.1937
29812W        W44943   1.714   8.940   0.455  0.0115  0.2727 -0.1785
29813W        W44944   4.390  17.685   3.466 -0.3335 -0.0590 -0.0224
29814W        W44945  14.239   0.764  15.609  0.1185  0.0438  0.2624
29815W        W44946   4.722  17.166   0.592  0.2724  0.1482  0.1289
29816W        W44947  17.930   1.919  14.394 -0.2829 -0.0528  0.1089
29817W        W44948  18.450  16.000   4.814  0.2441 -0.2291 -0.1303
29818W        W44949  15.750   7.715   2.861 -0.1040  0.1228  0.0033
29819W        W44950  10.905   0.278   3.617  0.2465  0.0665 -0.0659
29820W        W44951  14.783  16.920  13.779 -0.2123  0.1109  0.0817
29821W        W44952   3.601  11.488  13.727 -0.0859 -0.0940 -0.1588
29822W        W44953   5.576   2.732   2.729  0.1738  0.0694 -0.0877
29823W        W44954  16.087   6.198  11.128  0.0209 -0.4503 -0.3467
29824W        W44955   9.453   2.417  15.653 -0.1710  0.0677  0.0202
29825W        W44956   0.074  13.448   3.165  0.2151  0.1328 -0.1661
29826W        W44957  14.067   6.324   3.786  0.1821 -0.1123 -0.1147
29827W        W44958  13.950   9.315   3.010 -0.3260  0.2079  0.1275
29828W        W44959  15.864   7.662  12.857 -0.2845  0.1495  0.0380
29829W        W44960   4.376   4.588   3.812  0.4595  0.1185  0.0036
29830W        W44961   1.762   0.107   2.595  0.1539  0.1086  0.1877
29831W        W44962   6.640   2.124   2.065  0.0862  0.3203 -0.0423
29832W        W44963  14.197   0.549  12.075  0.2328  0.1397 -0.0332
29833W        W44964  10.216  11.763   2.850 -0.0221  0.0013  0.1247
29834W        W44965   6.283  12.915   1.830  0.0188 -0.1135  0.2310
29835W        W44966   7.391  16.349  14.928 -0.0860 -0.2748  0.0400
29836W        W44967  12.061   1.265   1.451 -0.1489 -0.1642  0.1721
29837W        W44968  11.583  12.935  11.463  0.1130  0.2288  0.3115
29838W        W44969  17.998  12.801   2.586  0.1396  0.3815 -0.0040
29839W        W44970   0.858   0.077   2.456 -0.3157 -0.0904 -0.0850
29840W        W44971   0.745  13.751   4.439 -0.0301 -0.0470  0.2340
29841W        W44972   5.285  17.555   3.890  0.2245 -0.0550 -0.0334
29842W        W44973   7.859  10.947  15.314  0.1443 -0.1334 -0.0389
29843W        W44974   4.071  14.768   9.687 -0.0580  0.1718  0.1846
29844W        W44975   3.739  15.455  14.507 -0.1074 -0.3216  0.0625
29845W        W44976  11.409   8.580   1.337  0.1092 -0.0771  0.4545
29846W        W44977  18.105  15.317   3.459  0.0266  0.4297 -0.1712
29847W        W44978   5.545  12.702   4.069 -0.1395  0.1037 -0.2382
29848W        W44979   4.194  17.837  12.123 -0.1686 -0.1026 -0.0740
29849W        W44980   8.424   5.711  14.918  0.3365  0.2951  0.0992
29850W        W44981  17.150  17.781   3.888 -0.3386 -0.1500  0.1514
29851W        W44982   1.234   5.186   0.484  0.0685 -0.0845 -0.0633
29852W        W44983  14.167  17.632   0.947 -0.6881  0.0970 -0.2027
29853W        W44984  17.306   5.892  13.764 -0.1380 -0.2541 -0.1426
29854W        W44985   3.395  10.206   1.570  0.0409 -0.3076 -0.2199
29855W        W44986  16.292   0.555  13.023  0.1765  0.1963  0.1130
29856W        W44987   9.671  15.890  13.219 -0.2624 -0.1478 -0.3228
29857W        W44988   8.094   2.780   0.560  0.3498 -0.0497  0.0061
29858W        W44989   2.964  10.676   4.028  0.1166  0.2665  0.5123
29859W        W44990   6.100   7.180   3.717  0.0168 -0.0357 -0.1614
29860W        W44991  12.550  12.645  13.104 -0.0847 -0.1834 -0.2268
29861W        W44992   7.650   2.862   3.587 -0.0443 -0.0467  0.3467
29862W        W44993   0.931   0.083  12.771  0.2624  0.0223 -0.2521
29863W        W44994  11.911  10.455   4.727  0.0435 -0.0095  0.0599
29864W        W44995   9.949  14.746  11.774  0.0380 -0.1746 -0.0495
29865W        W44996  14.600   8.142   5.393  0.2465 -0.2515 -0.1246
29866W        W44997  11.838   6.424   1.636 -0.0320 -0.0425 -0.0640
29867W        W44998  16.815  13.050   3.018 -0.0201 -0.1340 -0.0325
29868W        W44999   1.167  16.078  13.870 -0.1756  0.1403  0.0579
29869W        W45000   6.767   9.435  13.076 -0.0044  0.0875 -0.3799
29870W        W45001   5.889  16.250   4.922 -0.0300  0.1539 -0.0005
29871W        W45002   2.253   8.807  14.199  0.6132 -0.1607 -0.0656
29872W        W45003   2.718  11.520   1.656  0.3551 -0.0777  0.1441
29873W        W45004   7.071  10.787  11.033  0.1583  0.2212 -0.4593
29874W        W45005   1.454   6.059   5.231 -0.2021 -0.3187  0.0597
29875W        W45006  11.184   7.605   3.678 -0.3037  0.0358  0.2633
29876W        W45007  14.001   8.204   3.384 -0.4901  0.0449 -0.0878
29877W        W45008  16.700  13.676   0.173  0.3420 -0.3447  0.2121
29878W        W45009   3.426   9.355  15.418 -0.1990 -0.1856 -0.0339
29879W        W45010  17.838   6.705   2.730 -0.1445  0.1039 -0.3273
29880W        W45011   8.448  18.208   5.184 -0.4607  0.3320 -0.0029
29881W        W45012   3.469   5.265  15.249  0.1137  0.1893 -0.0892
29882W        W45013  14.046  16.710   0.813 -0.1670  0.1341  0.1492
29883W        W45014   8.629   4.751  11.894  0.4014  0.1859 -0.2356
29884W        W45015   0.572   5.952   1.789 -0.3027 -0.2052 -0.2861
29885W        W45016  17.770   2.729  13.978  0.3512 -0.3370  0.1558
29886W        W45017   9.453  16.317   1.221  0.2723 -0.3388  0.0958
29887W        W45018   7.857  16.554  16.098  0.0180  0.1803 -0.2678
29888W        W45019  13.692   6.626   2.785  0.0270  0.0519 -0.0715
29889W        W45020  16.735   8.882  10.594 -0.2406  0.0587  0.1971
29890W        W45021   4.227  12.046  14.666 -0.0196 -0.2248  0.1979
29891W        W45022   7.160  12.069   2.452  0.1412 -0.0170 -0.2103
29892W        W45023  14.688  16.666   0.020 -0.1830  0.1029  0.1203
29893W        W45024  17.505   2.322  13.812  0.1961 -0.2403 -0.2247
29894W        W45025  12.800  14.110  11.177 -0.2596  0.1407 -0.2294
29895W        W45026   0.683   9.486   3.153  0.1592 -0.2173  0.1363
29896W        W45027  13.273   4.547   4.226  0.0921  0.3753  0.0027
29897W        W45028   4.087   5.523   0.471 -0.0847 -0.0223  0.0286
29898W        W45029   8.984  18.357  15.833 -0.0037  0.0032 -0.2589
29899W        W45030   7.848  10.470   6.480  0.1706 -0.1072  0.1618
29900W        W45031   8.869  14.024   4.876 -0.0114 -0.3073  0.0110
29901W        W45032   5.548   8.954   4.102  0.0876  0.1612  0.1459
29902W        W45033  15.637  17.718   2.955 -0.2787  0.2141  0.0116
29903W        W45034  18.221  12.150  15.386  0.2682  0.0504  0.0332
29904W        W45035  14.104   3.856  12.313 -0.0272 -0.3708 -0.0033
29905W        W45036   5.343  15.547   0.057 -0.3401 -0.2401  0.0360
29906W        W45037  17.079   9.226   1.662 -0.0574 -0.0226 -0.0404
29907W        W45038   3.546  16.068   3.571 -0.2742 -0.1088 -0.0499
29908W        W45039  18.324   5.146   4.073 -0.3138 -0.0658 -0.2283
29909W        W45040  16.976   1.648  15.374  0.4220  0.1058 -0.1186
29910W        W45041  14.690   8.015  12.659 -0.0657 -0.0376 -0.2905
29911W        W45042   1.349  11.612  11.545  0.0097  0.2761 -0.1593
29912W        W45043  11.250  11.059  13.793  0.1250 -0.3029  0.4100
29913W        W45044   5.209  14.687  14.926  0.0259 -0.1269  0.1841
29914W        W45045   8.346  12.122   5.347  0.1906 -0.0809 -0.0807
29915W        W45046  17.407   7.171  15.048  0.1784  0.2821 -0.0275
29916W        W45047   3.278   2.943  11.586  0.2395  0.0794 -0.3489
29917W        W45048  18.120   3.259   5.027  0.1797 -0.2284 -0.0046
29918W        W45049   0.075   6.417  14.030 -0.3052  0.3265 -0.0648
29919W        W45050   9.466   5.068   1.839 -0.1515 -0.1583 -0.1227
29920W        W45051  10.056   0.009  11.417 -0.4180 -0.4094  0.1481
29921W        W45052  15.070   2.903   4.519 -0.1786  0.4138 -0.0048
29922W        W45053  11.504   1.604   2.107 -0.2045 -0.0234 -0.2935
29923W        W45054   9.147  18.014   5.846 -0.4182  0.2112  0.2175
29924W        W45055   2.405  10.546  11.745 -0.3004 -0.0985 -0.0670
29925W        W45056  11.588   4.847  14.874 -0.3439 -0.2739 -0.1291
29926W        W45057  14.758   2.695  12.821 -0.0110  0.1783 -0.2419
29927W        W45058   6.603   0.320   1.318 -0.0385 -0.2422  0.0734
29928W        W45059   2.647   1.608   2.819 -0.0194 -0.2079 -0.0554
29929W        W45060   5.877   3.641   1.073  0.2789  0.3231 -0.0437
29930W        W45061   8.604   5.217   3.073  0.2014 -0.2859  0.2842
29931W        W45062   1.423  10.632   0.837  0.3372 -0.1397  0.3919
29932W        W45063   6.728  15.536   4.829  0.0400 -0.0324  0.0046
29933W        W45064   0.863   4.164  10.843 -0.0892  0.0641 -0.0051
29934W        W45065  14.883   1.002   1.546  0.0096  0.0726  0.4275
29935W        W45066  10.139   4.176  14.326  0.0578  0.1922 -0.1801
29936W        W45067   0.096   9.538  15.680  0.0693 -0.0278 -0.1147
29937W        W45068  10.514   1.873  15.072  0.1714 -0.4108  0.0356
29938W        W45069   6.980  12.203   0.084 -0.0980 -0.1101  0.1593
29939W        W45070   1.363  13.071  13.364  0.1733  0.1543 -0.1556
29940W        W45071   8.463   3.399  15.277  0.0355  0.0290  0.0506
29941W        W45072  18.116   6.845   4.724  0.3720  0.1355 -0.0651
29942W        W45073  14.751   3.541   4.434 -0.3189 -0.0668  0.0827
29943W        W45074  11.677  10.237  12.278  0.2275 -0.0353  0.1506
29944W        W45075  18.190   0.692  13.908  0.0777 -0.2393 -0.0054
29945W        W45076   7.773  15.799   3.661  0.0322 -0.0078  0.1020
29946W        W45077   2.339  13.224  10.430  0.3161  0.0423 -0.0630
29947W        W45078  11.485  12.107   2.081  0.2171  0.0925 -0.0183
29948W        W45079  13.243  12.049   2.330 -0.0807  0.1708  0.3007
29949W        W45080   4.801  15.603   0.108 -0.3166  0.0740 -0.1859
29950W        W45081  13.762   9.148  12.578 -0.2948 -0.2402  0.2077
29951W        W45082   8.337  18.058   1.928  0.2409  0.0844  0.0351
29952W        W45083  11.417   7.292  15.597  0.0678 -0.1446  0.3185
29953W        W45084   5.200  18.026  12.465 -0.0476 -0.1762  0.2176
29954W        W45085   3.657  17.824  11.293  0.0583  0.1715  0.0953
29955W        W45086  15.688  10.390   2.444 -0.1345 -0.1853  0.0573
29956W        W45087   5.537  10.145  11.652  0.2119  0.0485  0.1481
29957W        W45088   9.799   5.904  15.351  0.4411 -0.2187 -0.0087
29958W        W45089   6.627  15.867  13.762  0.0004 -0.0312 -0.3784
29959W        W45090   6.043  14.771  15.540 -0.2244 -0.1073  0.0149
29960W        W45091   8.873  13.653  13.803  0.1015 -0.0057 -0.0864
29961W        W45092   4.527   6.646  15.324  0.0957 -0.2322  0.0824
29962W        W45093   0.699   3.743  14.581 -0.1323  0.0791  0.0067
29963W        W45094  10.909  10.326   4.887 -0.1323  0.0128  0.0083
29964W        W45095   2.450  17.195  15.881 -0.4417 -0.0951  0.1323
29965W        W45096  13.144  13.409   1.967 -0.1513  0.0826  0.1270
29966W        W45097   0.387  14.028  16.024  0.0346 -0.1322 -0.2842
29967W        W45098   7.895  10.102   3.289 -0.0627 -0.2821 -0.1554
29968W        W45099   6.625  13.540  13.602  0.1227 -0.0718  0.0541
29969W        W45100  18.400   2.789  14.166  0.1235 -0.0009 -0.2235
29970W        W45101  10.477   4.335   4.394  0.1205  0.0495 -0.1629
29971W        W45102   9.923   6.573   5.026 -0.3171 -0.1966  0.1623
29972W        W45103   2.472  10.506  10.987 -0.0097 -0.0025 -0.2744
29973W        W45104   5.805  16.061  10.082  0.2547 -0.0571  0.3273
29974W        W45105  18.028   7.283   2.015 -0.1328 -0.0533 -0.0654
29975W        W45106   1.985  14.883  12.643  0.0101 -0.0706  0.2519
29976W        W45107  10.599   2.138   3.488  0.0716  0.1439 -0.2672
29977W        W45108   6.091  10.626   0.446  0.0804  0.1136  0.1562
29978W        W45109  10.470  11.847   3.301 -0.1567  0.0741  0.3760
29979W        W45110   4.169   3.384  12.023  0.0481 -0.2747 -0.0169
29980W        W45111  15.701  16.569   3.297  0.2178 -0.0614  0.3312
29981W        W45112  12.220   0.872  13.827 -0.4498 -0.0769  0.0171
29982W        W45113  15.654  12.137   4.247  0.2876  0.0401 -0.4344
29983W        W45114  11.378  17.332   1.974  0.0763 -0.1758  0.1276
29984W        W45115   7.556   7.702   4.606 -0.1161 -0.1509 -0.3168
29985W        W45116   1.115   4.861   0.071  0.2084  0.2179  0.1019
29986W        W45117   2.378   8.065   4.069  0.1083  0.0065 -0.2192
29987W        W45118   3.341   6.091  15.300  0.0204  0.0471  0.0447
29988W        W45119  16.304   6.271   0.589 -0.2105 -0.1282 -0.0779
29989W        W45120   2.753   7.954  14.984 -0.0465 -0.2494  0.0058
29990W        W45121   5.891   1.803  10.794  0.1096 -0.0541 -0.0196
29991W        W45122   0.001  12.044  15.843  0.0820  0.1191  0.2690
29992W        W45123  13.930  15.530   4.880 -0.1878 -0.0199  0.1170
29993W        W45124  10.341   0.859  13.933 -0.2160 -0.0151  0.2189
29994W        W45125   2.933   8.938   4.291 -0.1446  0.1584 -0.0288
29995W        W45126  15.599   9.391   0.389 -0.2701 -0.0652  0.0485
29996W        W45127   1.491  13.666  12.069 -0.0639 -0.2391  0.3960
29997W        W45128   8.927   4.171  12.484 -0.2836  0.0740  0.1543
29998W        W45129   0.734  17.849   1.906 -0.1342 -0.1251  0.1243
29999W        W45130   0.770   4.605   5.377 -0.0309  0.2420 -0.2843
30000W        W45131  11.701  14.136   0.759  0.1545  0.0998  0.0886
30001W        W45132   0.769   5.133   5.480  0.1330  0.0799  0.2042
30002W        W45133  16.311   4.831  11.245  0.0365  0.0614 -0.0990
30003W        W45134  17.687  15.523  15.097  0.1733  0.0779 -0.4075
30004W        W45135  13.219   5.348   3.326 -0.0164  0.3241  0.0914
30005W        W45136  15.363   1.631   2.440 -0.0043  0.0820 -0.1629
30006W        W45137   3.577  11.743  11.897  0.1534 -0.0274  0.0685
30007W        W45138   8.953  15.762   0.686 -0.3308  0.1784 -0.2568
30008W        W45139  17.431  10.406   3.739  0.1105  0.1957  0.1754
30009W        W45140   9.295   5.284   5.249 -0.1853  0.0118  0.1883
30010W        W45141   6.218  11.206  12.359  0.1390 -0.3718 -0.0669
30011W        W45142  13.225   1.495   0.621 -0.1045  0.0832  0.0066
30012W        W45143   9.421  11.965   6.289  0.2351 -0.4508 -0.1169
30013W        W45144   8.073  16.602   0.529  0.1959  0.0237 -0.4775
30014W        W45145   6.885   1.217  13.358 -0.0711 -0.3253  0.0189
30015W        W45146   1.155   1.275  10.030  0.2808 -0.3515 -0.3233
30016W        W45147  12.218   3.610   2.753 -0.0110  0.2169 -0.0386
30017W        W45148  17.872  14.096  10.944  0.0678 -0.0995  0.3477
30018W        W45149   7.827   5.079   0.911 -0.1325  0.0347 -0.2389
30019W        W45150  17.833   9.618  14.995  0.0639 -0.2885 -0.2255
30020W        W45151   4.036   4.385  12.219 -0.1603 -0.2356  0.2211
30021W        W45152   9.814   7.928   4.884  0.0561 -0.0624 -0.0261
30022W        W45153   4.172  11.037   5.466 -0.1280  0.1962  0.0671
30023W        W45154   0.858  12.252  12.193  0.0951  0.1596  0.2077
30024W        W45155   9.456  17.920   1.510  0.1348 -0.1270 -0.3650
30025W        W45156  14.810   8.940   0.966  0.4334 -0.3736  0.1921
30026W        W45157   5.743   8.767   2.089  0.0552  0.1747 -0.1964
30027W        W45158   9.370   8.433  11.992 -0.1019 -0.2188  0.0274
30028W        W45159  12.593   3.425   2.437 -0.0681 -0.2797 -0.0274
30029W        W45160   2.202   2.254   4.499  0.1245 -0.2271 -0.4224
30030W        W45161   1.648   8.903  15.483  0.5458  0.0844 -0.0185
30031W        W45162   3.835  15.855   3.925  0.1615  0.4888  0.1536
30032W        W45163   0.348  10.023   4.794  0.2249 -0.0177  0.3073
30033W        W45164   7.916   3.124   0.006  0.1134 -0.2138 -0.1648
30034W        W45165  10.118  17.707  14.292  0.0830 -0.1727 -0.1222
30035W        W45166   3.349   8.631  15.187 -0.0692  0.0450 -0.0347
30036W        W45167   7.938   1.023  14.303 -0.1175 -0.2186 -0.0931
30037W        W45168   5.250   2.744  14.738 -0.1412  0.4066 -0.0603
30038W        W45169  12.392   5.221  10.646  0.1147  0.1286  0.2049
30039W        W45170   4.971   8.074  12.089  0.0075 -0.3949  0.1330
30040W        W45171   7.265   5.834  15.328 -0.0928  0.0506  0.1144
30041W        W45172   5.214   3.263  14.586  0.0085  0.2873  0.0795
30042W        W45173   5.227   4.101   3.338  0.0167  0.0469  0.0493
30043W        W45174  17.806   5.972   4.970 -0.0545 -0.1030 -0.1180
30044W        W45175  11.374  16.578  11.387 -0.0231 -0.2605  0.3115
30045W        W45176  12.917  17.235  11.983 -0.0454 -0.3168  0.2496
30046W        W45177  14.640   5.464   4.657 -0.2363  0.2396  0.2129
30047W        W45178  18.327   9.950  16.000 -0.0117 -0.1958 -0.0286
30048W        W45179   3.064   2.655  11.963  0.4196 -0.1154 -0.0451
30049W        W45180   6.358   2.512  11.574  0.3948 -0.1629  0.0398
30050W        W45181  14.392   7.938  15.226  0.2087 -0.0415 -0.1362
30051W        W45182  12.698   1.409  11.059  0.0121 -0.0969 -0.0599
30052W        W45183  13.822  10.618   2.785  0.7188  0.0636  0.3748
30053W        W45184   3.488   9.248   0.523  0.0674  0.1090 -0.1302
30054W        W45185  10.649   5.721   1.502 -0.2437 -0.1486  0.1235
30055W        W45186  10.436   3.745  11.202 -0.0859 -0.0706 -0.0502
30056W        W45187   1.908  10.032  15.225 -0.3314  0.0169  0.1379
30057W        W45188   5.299  18.393   3.054  0.1872  0.2799  0.0420
30058W        W45189  13.994  16.796   2.220 -0.1834 -0.3505  0.0726
30059W        W45190  13.374  16.166  12.526  0.2232 -0.1554  0.2817
30060W        W45191   9.384  10.367   1.379 -0.0523 -0.0454  0.3538
30061W        W45192   3.573   4.631  13.641 -0.0261  0.0253  0.3439
30062W        W45193  13.976  10.066  10.751 -0.0882 -0.0477  0.2080
30063W        W45194   8.534  11.057  15.444  0.0946  0.1421 -0.1168
30064W        W45195   0.313   5.500  12.765 -0.1186  0.2962 -0.0904
30065W        W45196   7.931  15.072  15.842 -0.1597 -0.3787  0.1267
30066W        W45197  10.856   6.818   5.400 -0.0013 -0.0402 -0.0450
30067W        W45198   4.755   4.170   4.734 -0.1660 -0.0934 -0.4487
30068W        W45199   3.523  11.909   2.737 -0.1535 -0.0536  0.4921
30069W        W45200   1.854   1.556   3.360  0.0230  0.2463 -0.1383
30070W        W45201   6.070  13.277  10.941 -0.0135  0.0409  0.0407
30071W        W45202  11.593  10.879   3.276 -0.0646  0.1823  0.1314
30072W        W45203   2.286   4.486   0.725  0.0943 -0.0148 -0.0196
30073W        W45204  17.977   6.337  15.609 -0.2353 -0.0753 -0.0041
30074W        W45205   3.505   2.467   0.708 -0.2085  0.3957 -0.3603
30075W        W45206   0.956   7.682   3.846  0.0527 -0.0972  0.3596
30076W        W45207  18.415  16.755  14.385  0.0473  0.0021  0.2429
30077W        W45208   2.936  17.084   0.682 -0.0505  0.1965 -0.1523
30078W        W45209  13.459  16.283   5.170  0.3341  0.0848 -0.0011
30079W        W45210  13.867  17.735  12.097  0.1086  0.3212 -0.3979
30080W        W45211   0.428   4.627   4.113 -0.4635 -0.3088 -0.0283
30081W        W45212  10.398   7.552  11.596  0.3409 -0.3150  0.1609
30082W        W45213   2.678  12.783   3.421 -0.1824 -0.0269  0.0268
30083W        W45214   1.857   4.513   4.082  0.1982 -0.0042 -0.1890
30084W        W45215  14.161   5.495   0.800 -0.3721 -0.1251  0.1824
30085W        W45216  11.802   2.812  12.168  0.0655  0.5142 -0.0020
30086W        W45217   2.987   0.702   2.456 -0.0626  0.4155  0.0927
30087W        W45218   5.265   6.298  13.254 -0.1395 -0.1487 -0.0372
30088W        W45219   5.319  10.996  12.935 -0.0417  0.0315  0.0633
30089W        W45220   4.648   9.481  11.256  0.1332 -0.2638 -0.1128
30090W        W45221   1.202   9.246   5.471  0.2645  0.1025  0.2709
30091W        W45222  12.631   3.860   4.043 -0.0700  0.0441  0.0496
30092W        W45223   8.660   5.498   5.877 -0.2274 -0.1270  0.2440
30093W        W45224  10.047   7.933  14.993 -0.0130 -0.1932  0.5576
30094W        W45225   0.369  15.177  12.515 -0.1665  0.0252 -0.1810
30095W        W45226  15.522   4.079  12.340  0.0917  0.0665 -0.0580
30096W        W45227  12.045   2.941   5.876  0.1875 -0.5386 -0.6136
30097W        W45228   3.314   6.066   3.075 -0.1697 -0.0135 -0.0369
30098W        W45229   5.511  12.766  13.063 -0.2190  0.6033 -0.0574
30099W        W45230  17.583   3.674  11.423  0.1104 -0.0297  0.1364
30100W        W45231   0.278   4.500   0.496  0.1082 -0.0283 -0.1708
30101W        W45232   7.014  11.684   5.399 -0.1637 -0.0069  0.1526
30102W        W45233   5.056  10.462  13.801 -0.1038 -0.1674  0.2698
30103W        W45234  13.653  11.156   3.556 -0.0941  0.2677 -0.1197
30104W        W45235   1.547   8.354   0.582  0.2798  0.1980  0.0074
30105W        W45236   7.924  15.420   1.927  0.0132 -0.2943  0.1213
30106W        W45237   6.656  13.445   1.317  0.3284 -0.0878 -0.0290
30107W        W45238   9.530  13.312  10.940  0.2027 -0.1584 -0.0895
30108W        W45239  11.261  12.419  11.556 -0.1219 -0.0700  0.2445
30109W        W45240  14.209   2.831   4.776 -0.0533  0.0388 -0.2672
30110W        W45241   0.120   9.564   4.875  0.1109  0.3382 -0.2016
30111W        W45242   3.707  14.224   0.259 -0.1884 -0.2137  0.0469
30112W        W45243  15.383   3.350   1.162 -0.0588  0.0657  0.3036
30113W        W45244   4.173  17.633   2.959  0.2835 -0.1957 -0.1885
30114W        W45245   3.331   5.385   5.366 -0.2001  0.4395 -0.0597
30115W        W45246   3.994   2.744  12.128  0.0643 -0.3329 -0.0506
30116W        W45247  17.182   8.802  12.893 -0.2741 -0.0704 -0.1184
30117W        W45248   4.753  12.246  13.824  0.2799  0.0866 -0.0107
30118W        W45249  15.658  16.178   5.259 -0.1286 -0.0436 -0.0822
30119W        W45250   4.157  11.089  12.680  0.0466 -0.2519 -0.1267
30120W        W45251  15.700   5.384   0.690 -0.0566 -0.1296  0.0857
30121W        W45252   0.078   8.937  11.334 -0.0817 -0.1242  0.3254
30122W        W45253   0.164   8.527  15.346 -0.0039  0.0470  0.1563
30123W        W45254   4.113  11.692   1.127  0.1551 -0.1585  0.0565
30124W        W45255   6.417  12.721   5.456  0.2178 -0.0655  0.0102
30125W        W45256   4.720  14.082   2.630  0.1274  0.0049 -0.3703
30126W        W45257   8.793   9.085   0.911  0.1777 -0.0268 -0.2062
30127W        W45258   7.089   0.876   1.458 -0.0634  0.0444 -0.0532
30128W        W45259   5.207  13.066  15.155 -0.0843 -0.1466 -0.4163
30129W        W45260  16.938   3.064   1.018 -0.0707 -0.0212  0.0707
30130W        W45261  10.586   5.627   1.025  0.1563  0.0311 -0.0027
30131W        W45262   2.561  13.901  11.189 -0.2432  0.1114  0.2572
30132W        W45263  16.015  12.998   2.158  0.2881 -0.0149 -0.3488
30133W        W45264  11.909   8.607  11.530 -0.2427  0.2710  0.2617
30134W        W45265  12.973  15.317  15.834  0.3855  0.5551 -0.2957
30135W        W45266  18.272   1.708   3.772 -0.1778 -0.0317 -0.0441
30136W        W45267   6.203   1.615  11.178  0.0477 -0.4697 -0.1439
30137W        W45268   4.267   0.963   5.252  0.0895 -0.1910  0.4507
30138W        W45269  13.047   0.869   5.466  0.5408  0.0016  0.1115
30139W        W45270  17.331   0.980   3.648 -0.4754  0.1071  0.0661
30140W        W45271  11.580   2.692  15.185 -0.0183  0.1279 -0.0770
30141W        W45272   6.839   3.050  15.924 -0.0723  0.0814 -0.1939
30142W        W45273  13.681   6.308  12.833  0.0493 -0.0443  0.0501
30143W        W45274  14.322  12.769   4.836  0.0013 -0.2529 -0.2534
30144W        W45275  17.050   3.443  10.367 -0.0052 -0.4543 -0.7249
30145W        W45276   5.626  15.134  11.828 -0.2853  0.1624  0.2137
30146W        W45277   9.185  11.582   6.111  0.1710 -0.1709 -0.0609
30147W        W45278  16.352  10.418   2.329  0.2095 -0.0036  0.2850
30148W        W45279   8.980   0.396  11.634 -0.0893 -0.2984  0.1867
30149W        W45280  10.043  16.821   3.281 -0.2003 -0.0658  0.3034
30150W        W45281  15.256   2.652  11.420  0.2983 -0.0702  0.0254
30151W        W45282   4.806   1.802   2.576  0.2701  0.2172  0.2109
30152W        W45283  13.529   7.561   1.554  0.2389  0.0206 -0.0603
30153W        W45284  16.354   2.879   1.605  0.1992 -0.2839 -0.0815
30154W        W45285  12.071   7.974   4.796  0.3560  0.0817 -0.0354
30155W        W45286   5.717  14.742  11.508  0.0925  0.0720  0.2001
30156W        W45287   4.741   1.178  12.436 -0.1544 -0.2531 -0.1534
30157W        W45288  10.231  18.346   0.083  0.0636  0.2443  0.1868
30158W        W45289  12.612   1.359   0.596 -0.3451  0.1042  0.1262
30159W        W45290  15.967   4.280   3.206 -0.2616 -0.0909  0.1158
30160W        W45291  17.324   3.677   4.961  0.0336 -0.0591  0.1426
30161W        W45292  11.908   2.309  13.717 -0.2745 -0.0153 -0.0305
30162W        W45293  15.151   5.667   3.363  0.1198  0.0969  0.0446
30163W        W45294   3.984  17.630  10.261 -0.4593  0.0091 -0.2120
30164W        W45295  14.272   7.452   0.137 -0.2488 -0.2585 -0.4222
30165W        W45296  12.949   3.808  15.990 -0.3588 -0.0739  0.1347
30166W        W45297   2.588   9.552   5.259  0.0498  0.3297  0.2746
30167W        W45298   2.896   0.893  10.244  0.3424 -0.2423  0.1682
30168W        W45299   7.561  14.773  15.537  0.1104 -0.0610 -0.0281
30169W        W45300   1.187  17.061  13.758  0.0858 -0.0160 -0.1561
30170W        W45301   5.682   9.756  10.537 -0.0904 -0.1122  0.2709
30171W        W45302   6.108   7.301  15.904 -0.1173  0.3434  0.0965
30172W        W45303  10.996  17.716   4.967  0.0178 -0.2556  0.4488
30173W        W45304  15.775   1.794   1.421 -0.0232  0.3015 -0.0452
30174W        W45305   1.597   3.411  14.549  0.3014  0.1954 -0.1711
30175W        W45306  15.367  17.282   0.345 -0.2229 -0.2635 -0.4108
30176W        W45307  14.670   4.723   5.150 -0.0871  0.1043 -0.1275
30177W        W45308   9.375  13.059   5.128 -0.0265  0.1195  0.0703
30178W        W45309  18.323  11.582  13.572 -0.2865  0.3829  0.1566
30179W        W45310   3.524  11.417  13.233  0.3098 -0.0340  0.0738
30180W        W45311  15.096  18.146  12.356  0.1456 -0.2049  0.2623
30181W        W45312  12.566   8.980  12.240  0.0503 -0.0168 -0.2659
30182W        W45313  17.011   5.392   5.390  0.2792 -0.0852 -0.3401
30183W        W45314  13.822   0.874  14.194 -0.0440 -0.0629  0.0851
30184W        W45315   5.117   9.566   0.128  0.2161  0.2173  0.1123
30185W        W45316  14.680  11.230   2.949 -0.1876  0.3320 -0.4852
30186W        W45317   3.567   1.370  10.989 -0.0090 -0.1848  0.0729
30187W        W45318   8.869   3.674  13.983  0.0148 -0.0432  0.0091
30188W        W45319  12.570  10.072  14.254 -0.2994  0.0500  0.1340
30189W        W45320   4.914   7.416  14.252  0.2928  0.0601 -0.2768
30190W        W45321  10.875   9.459   3.555 -0.0807 -0.0938  0.4255
30191W        W45322   7.019   0.275   0.648  0.1710  0.1399  0.1806
30192W        W45323  15.341   2.989   3.729  0.1610 -0.2431 -0.0035
30193W        W45324  13.552   6.840  14.137 -0.2080  0.2263 -0.0059
30194W        W45325  16.214   6.178  13.272 -0.1026 -0.0747 -0.1419
30195W        W45326  12.228   2.574   1.026 -0.2028 -0.2228  0.0888
30196W        W45327   2.308  11.671   2.733 -0.0777 -0.1376  0.1209
30197W        W45328   6.711  18.100  11.598 -0.1033  0.2226 -0.0949
30198W        W45329   5.073  13.189   3.792  0.1820 -0.1733  0.1833
30199W        W45330  16.379   0.695   2.330 -0.1783  0.0802 -0.0619
30200W        W45331  15.934  15.081   1.883 -0.2318  0.0551  0.0350
30201W        W45332  17.857   5.092  14.250  0.0509  0.1413 -0.1815
30202W        W45333   4.716   5.102  12.091  0.0700 -0.0106 -0.1748
30203W        W45334   0.076   5.721  15.281 -0.0744 -0.0983 -0.0374
30204W        W45335  15.028  13.718   1.335 -0.1891  0.3587 -0.2059
30205W        W45336   1.479  17.740  14.299  0.2324 -0.3030 -0.1289
30206W        W45337  17.266  13.514  15.619  0.0922  0.3742 -0.2722
30207W        W45338  15.109   1.610  14.613  0.0406 -0.2297  0.2926
30208W        W45339  15.167   9.173  14.902  0.4061  0.1520 -0.0760
30209W        W45340   1.555  12.575  16.034 -0.1091  0.0011  0.3273
30210W        W45341   9.264   8.574  15.843  0.1096 -0.0053  0.1327
30211W        W45342   4.923  15.685   2.564 -0.0905  0.0641 -0.1825
30212W        W45343  16.631  14.584   3.427 -0.1833  0.1521  0.1182
30213W        W45344  11.694  13.828  16.011  0.1563  0.1763 -0.4413
30214W        W45345  15.897   1.530   0.386  0.0271 -0.0776  0.1560
30215W        W45346  16.606  10.640   4.902  0.3750  0.2683 -0.0006
30216W        W45347   0.585   8.943  11.357 -0.3274 -0.0016 -0.1085
30217W        W45348  12.677   9.931   2.433 -0.1278 -0.0980  0.1184
30218W        W45349   0.157  13.235  14.158 -0.2808 -0.2443 -0.2020
30219W        W45350   1.829  15.412  10.991 -0.2627  0.3276  0.0566
30220W        W45351   0.963   8.653   1.826  0.0094  0.2520 -0.3594
30221W        W45352   0.531   6.978  12.682 -0.0043 -0.1434  0.2095
30222W        W45353  14.214  14.361  14.527  0.1921 -0.0433  0.2236
30223W        W45354   2.667   2.573  10.568 -0.1443  0.4336  0.0922
30224W        W45355   8.953   9.487   0.086 -0.0691  0.0352  0.1087
30225W        W45356   0.150   0.054  12.470  0.4232  0.0018  0.1480
30226W        W45357  13.123  10.494   3.337  0.2037  0.0903  0.0759
30227W        W45358   2.751   2.414  13.601 -0.0621 -0.0199 -0.1585
30228W        W45359  10.540  12.660   5.588 -0.2558  0.0420  0.1670
30229W        W45360   1.546  11.788  12.969  0.0249  0.3582  0.2122
30230W        W45361   8.936   2.245   4.081  0.0208  0.1024 -0.1389
30231W        W45362   5.926   8.359  14.275  0.3250 -0.1167  0.1800
30232W        W45363  14.918  17.689  12.048 -0.1182 -0.1115  0.1411
30233W        W45364   4.164   8.366   2.832 -0.0273  0.1917  0.2820
30234W        W45365  11.136   2.693  13.251 -0.0652  0.0799 -0.0721
30235W        W45366   9.908   6.924  14.503  0.0606 -0.0711 -0.3363
30236W        W45367  12.514   3.263  13.088  0.0113 -0.0117  0.1379
30237W        W45368   8.437   1.837   0.561  0.0387  0.1136 -0.0498
30238W        W45369   5.676   2.008   1.955  0.4174 -0.0686  0.0084
30239W        W45370  11.741  11.439  14.575  0.0082  0.0859 -0.1314
30240W        W45371   5.574   9.195  14.893  0.0522  0.1582 -0.0146
30241W        W45372  16.504   9.978   3.704  0.0369  0.0940  0.2202
30242W        W45373  11.970   5.858  12.760  0.0886 -0.0282  0.1627
30243W        W45374   4.603  13.068  14.116 -0.0967  0.0770  0.2572
30244W        W45375   8.819   5.636   1.744  0.0329 -0.1058  0.1193
30245W        W45376  18.051  15.067  12.512 -0.0773 -0.0568 -0.0767
30246W        W45377  10.231   8.949   4.089 -0.1637  0.5457  0.3060
30247W        W45378   8.866   1.546   3.962 -0.0291  0.0496 -0.3493
30248W        W45379  12.333  12.284  14.538  0.1234  0.3839 -0.1870
30249W        W45380  12.830  13.981   1.005  0.0318 -0.0991 -0.2450
30250W        W45381   0.550  17.611  14.478  0.1373  0.0274  0.2645
30251W        W45382  16.585  14.206   3.064  0.4689 -0.2635 -0.3275
30252W        W45383  14.715   2.316   3.885 -0.0153  0.0441 -0.0379
30253W        W45384   7.555  18.444   4.282  0.4666 -0.0104 -0.4376
30254W        W45385   1.178   8.121   6.293 -0.2735 -0.3694  0.0000
30255W        W45386  13.809   8.061   1.653  0.1498  0.4173 -0.1237
30256W        W45387  11.768   1.999   0.768  0.1299 -0.0855 -0.0235
30257W        W45388  15.539   4.320   0.270  0.0961 -0.2080  0.1548
30258W        W45389   7.484  14.795  13.426  0.0204  0.1734  0.2279
30259W        W45390   2.325  18.126   1.973 -0.0427  0.0227  0.1586
30260W        W45391  14.825   3.480  14.704  0.0834 -0.1450  0.2070
30261W        W45392   8.856  14.281  10.423  0.1666  0.1187 -0.3711
30262W        W45393  17.664   4.062  14.014  0.0039 -0.0117 -0.0649
30263W        W45394  12.575   9.698  13.881 -0.0727 -0.2589  0.2003
30264W        W45395   2.194   9.475   0.555  0.1249  0.3852 -0.0335
30265W        W45396   5.172  13.377  11.469 -0.1987  0.0913 -0.0502
30266W        W45397   8.376  14.705   3.951  0.2568 -0.2075 -0.0540
30267W        W45398  11.133   7.678  13.119 -0.2688 -0.2602 -0.1970
30268W        W45399  12.147   7.492   4.941 -0.3002 -0.0463 -0.0163
30269W        W45400  16.542   0.754   0.301 -0.1330 -0.0657 -0.0620
30270W        W45401   3.841  14.060  15.927 -0.1854 -0.1359 -0.0329
30271W        W45402   9.927   5.753  13.752 -0.1499  0.0564  0.0681
30272W        W45403   4.037  14.232  13.334  0.1383  0.2277 -0.0346
30273W        W45404   6.859  11.269  14.881  0.1468 -0.0790  0.1663
30274W        W45405   4.734   7.073   1.263  0.2456 -0.2634 -0.3781
30275W        W45406  18.343  18.189  10.978 -0.3187 -0.1972 -0.4486
30276W        W45407  14.777  12.601   1.905  0.3845  0.3255 -0.0258
30277W        W45408   8.977  10.761  12.612 -0.0179 -0.2201  0.0128
30278W        W45409  16.828  11.589   0.395  0.0024 -0.0181 -0.0361
30279W        W45410   3.310   1.931  14.881 -0.2991  0.0690 -0.1596
30280W        W45411  10.787  16.065  14.782 -0.3954 -0.0776 -0.0647
30281W        W45412  18.051   4.503  13.387 -0.0613  0.1626 -0.0138
30282W        W45413   1.430  12.175   3.632 -0.0915  0.0183  0.2973
30283W        W45414   3.418  16.007  12.521  0.1406  0.0247  0.2930
30284W        W45415  14.658   7.591  10.450 -0.0381  0.1581  0.0226
30285W        W45416  12.408   6.191   2.057 -0.5219  0.3055  0.0617
30286W        W45417  15.555  14.161   4.959 -0.2856  0.2906 -0.1566
30287W        W45418   5.894  11.909   2.008  0.0261 -0.1565  0.1680
30288W        W45419   1.532  18.132   4.069 -0.2205 -0.0640  0.3230
30289W        W45420   7.946   8.901  15.416 -0.0826 -0.2409  0.0306
30290W        W45421   2.158   3.528   0.108  0.0137 -0.1686  0.0438
30291W        W45422   5.830  11.928   1.234  0.0723 -0.0679 -0.2919
30292W        W45423   4.381  13.798   0.756  0.0047  0.1160 -0.3396
30293W        W45424   7.224   8.734   1.576 -0.0074 -0.0636  0.0003
30294W        W45425  14.094   5.003   3.787 -0.1907  0.1286  0.1723
30295W        W45426   7.679   0.088   5.711 -0.3358  0.0227 -0.2137
30296W        W45427  14.725   8.592   5.808 -0.1364 -0.2620  0.0584
30297W        W45428  14.006  12.490  11.818 -0.2256 -0.3128 -0.1426
30298W        W45429   0.758  11.056  13.948  0.1789 -0.0933 -0.2145
30299W        W45430   8.903   8.735   2.884 -0.2101  0.0188 -0.1889
30300W        W45431  11.121  11.527   1.032  0.2319  0.0574  0.0705
30301W        W45432   6.975   2.447   5.305  0.0618  0.1286 -0.0919
30302W        W45433   4.645   0.302  11.499  0.0096 -0.2084 -0.1103
30303W        W45434  12.802  11.154   0.364 -0.3102  0.0177  0.1061
30304W        W45435   1.852   8.573   6.183  0.0435  0.0254  0.0804
30305W        W45436   7.492  15.040   3.201  0.0896 -0.3429 -0.0934
30306W        W45437   1.175  10.061   2.543  0.1241  0.1362 -0.1651
30307W        W45438   6.448  15.770  11.148 -0.1096  0.2045 -0.0059
30308W        W45439   0.960   4.617  14.797 -0.0916  0.2674 -0.0574
30309W        W45440  13.705  13.336  14.222  0.4683  0.1323  0.1622
30310W        W45441   9.788   3.705   3.767  0.1099 -0.3017 -0.3600
30311W        W45442   2.345  14.147  12.113  0.3695  0.2537  0.0422
30312W        W45443  12.091  14.982  15.825  0.4093 -0.1481  0.0274
30313W        W45444   1.680  10.760   1.621  0.2066  0.1502  0.0382
30314W        W45445   0.461   2.257   1.553  0.1779 -0.1346  0.4855
30315W        W45446   2.519   6.670   5.528  0.0537  0.0625 -0.1670
30316W        W45447   4.532   7.242   2.617 -0.0338 -0.3777  0.4295
30317W        W45448   1.501  14.502   2.958  0.1277  0.0089 -0.0868
30318W        W45449   1.970  10.618   2.994  0.2657 -0.1307 -0.0980
30319W        W45450   0.208   7.713  12.382  0.4096 -0.0612 -0.3299
30320W        W45451  12.066   1.755  14.906 -0.0150 -0.0428 -0.0715
30321W        W45452  13.015   9.192   0.367  0.1461  0.2261 -0.1881
30322W        W45453   8.708  11.031   1.411  0.1026 -0.1608  0.0819
30323W        W45454   0.064  15.332  14.611 -0.0619 -0.1347 -0.1655
30324W        W45455   7.288   2.028   5.860  0.0659 -0.1851 -0.3793
30325W        W45456   8.244  17.353  12.124 -0.1485 -0.0305 -0.1294
30326W        W45457   8.703   9.567   5.165 -0.2181  0.1060  0.0049
30327W        W45458   8.591  14.466   3.589 -0.0034  0.2972 -0.0705
30328W        W45459   7.245  17.340  12.159  0.0014  0.1382 -0.1164
30329W        W45460   1.325  12.876   2.139 -0.2834 -0.0387  0.1195
30330W        W45461   1.398  12.588  14.100 -0.0954 -0.2130 -0.0822
30331W        W45462   5.827   4.409   5.517 -0.1079 -0.1726 -0.2871
30332W        W45463   7.982  15.921  11.595 -0.2289  0.3168  0.2318
30333W        W45464  13.701  18.068  14.271 -0.1872 -0.1715 -0.1332
30334W        W45465  10.497   3.975   2.224 -0.4054 -0.1648  0.0346
30335W        W45466  18.182  15.978  13.739 -0.1814  0.2406 -0.5464
30336W        W45467  12.460   4.826   3.824  0.0848  0.1016 -0.0827
30337W        W45468   6.032  18.105  11.439  0.0572  0.2566  0.2300
30338W        W45469  16.760   7.433   4.190  0.4782  0.0588  0.3030
30339W        W45470  11.423   0.941   1.919 -0.1911  0.1822 -0.0573
30340W        W45471   4.386   8.260  16.088 -0.0029  0.1923 -0.5702
30341W        W45472   6.938   6.793   2.632  0.1300 -0.0986 -0.3724
30342W        W45473   1.768   5.890   5.618 -0.0987  0.1658  0.3725
30343W        W45474  11.414   7.812   0.172 -0.1063 -0.1525  0.0872
30344W        W45475  11.290   8.989  15.708 -0.0426 -0.0690  0.1953
30345W        W45476  16.293   3.622   1.131 -0.1880 -0.0408  0.0093
30346W        W45477  14.354  17.712  11.875 -0.1344 -0.0947  0.1660
30347W        W45478   4.416   0.584  14.039 -0.2527  0.1544  0.0212
30348W        W45479  18.073  17.688  14.018 -0.2486  0.1398  0.0698
30349W        W45480  15.152  13.447  10.922  0.0341  0.1717  0.1865
30350W        W45481   1.195   1.585   2.029 -0.0817  0.0961  0.2737
30351W        W45482   4.868   2.179  11.950  0.2415 -0.3835 -0.3420
30352W        W45483   6.013  17.099   5.331 -0.3283  0.2314 -0.2653
30353W        W45484  10.246  14.111   2.786 -0.1152  0.0610  0.0137
30354W        W45485   8.888   5.456  15.599  0.2027  0.0352 -0.0588
30355W        W45486  16.921   2.027   4.402 -0.2190  0.0161 -0.2185
30356W        W45487   2.785  12.696  12.921  0.0913 -0.2227 -0.1546
30357W        W45488  17.070   1.085  13.217  0.0591  0.2120  0.0203
30358W        W45489   5.463  13.501   2.825  0.0574  0.0276  0.1542
30359W        W45490   9.847  10.436  14.043 -0.0391 -0.0209  0.0176
30360W        W45491  13.597   0.530   1.169  0.2151  0.0372 -0.2190
30361W        W45492  14.243   8.399   5.676 -0.1611  0.1770 -0.2974
30362W        W45493   4.666   8.720   4.880  0.1714 -0.3391 -0.1149
30363W        W45494  16.303   0.476  13.572  0.1378  0.0058 -0.0114
30364W        W45495   1.298  17.479   3.782  0.2355 -0.1614 -0.0192
30365W        W45496   0.529  14.630   3.200 -0.1080 -0.0444 -0.0238
30366W        W45497  15.160   9.879   0.465 -0.0380  0.4595 -0.0745
30367W        W45498   0.786   7.460   2.319 -0.1038  0.1547  0.0586
30368W        W45499   7.813   1.946   5.053  0.4251 -0.2841 -0.1737
30369W        W45500  16.942   1.124  13.994  0.0366  0.2300  0.1322
30370W        W45501  16.509  17.536   4.705 -0.0227  0.1001 -0.1454
30371W        W45502  10.658   3.131   5.856  0.0222  0.1522  0.0396
30372W        W45503   3.446  11.632   5.329 -0.1024  0.1541  0.0465
30373W        W45504  10.056  13.888   0.329 -0.1805 -0.0401 -0.1423
30374W        W45505   6.713  11.697   0.834  0.0224  0.0229 -0.0137
30375W        W45506   0.811  12.349  12.702  0.0156  0.0918 -0.1210
30376W        W45507  13.285   1.193   0.214  0.0557 -0.2146 -0.3035
30377W        W45508   4.555   4.788  11.663  0.3509 -0.2014 -0.0552
30378W        W45509  10.722   2.734  15.574  0.0389  0.1256  0.0998
30379W        W45510  13.391   7.120   2.242 -0.0632 -0.3006  0.0491
30380W        W45511   3.185   1.903  10.310 -0.3256  0.3530 -0.1299
30381W        W45512   6.827  13.769  11.826 -0.1240 -0.0121  0.0560
30382W        W45513  10.082  18.158   6.035  0.0856 -0.2237 -0.1415
30383W        W45514   5.524  12.749   2.767  0.0971 -0.0873  0.0108
30384W        W45515  17.187   7.808   4.538  0.0711  0.0380  0.3152
30385W        W45516   5.009  15.832  13.418  0.0336 -0.1325  0.0128
30386W        W45517  11.912  15.694   2.421  0.1214 -0.1064 -0.6245
30387W        W45518   1.925   0.148  13.192  0.0490  0.0603  0.0094
30388W        W45519  10.787   8.955   5.047 -0.2310  0.3872 -0.2455
30389W        W45520   5.834   6.931  11.703  0.0684 -0.0733  0.0342
30390W        W45521   2.024   4.385   0.218 -0.1958 -0.3152  0.1477
30391W        W45522  12.107   0.560   4.425  0.1137 -0.1996  0.1530
30392W        W45523   5.731   4.086  11.431 -0.2477 -0.0401  0.2176
30393W        W45524   6.385  11.751  11.073  0.2078  0.0167 -0.3835
30394W        W45525  11.554   9.519   0.227 -0.0894 -0.1671  0.1201
30395W        W45526  14.025   3.276  10.281  0.2019  0.2452 -0.1548
30396W        W45527   5.537   3.468   5.766  0.1971 -0.1165  0.2120
30397W        W45528  17.857   4.134   2.697 -0.0236  0.2670  0.1640
30398W        W45529  12.370  10.512   3.628 -0.2021  0.2041  0.1569
30399W        W45530   3.702   5.472   4.858 -0.1050 -0.0425 -0.1755
30400W        W45531  15.309   1.470  12.313  0.1005 -0.0004  0.0056
30401W        W45532   2.469  15.033  12.756 -0.0761 -0.2763 -0.0732
30402W        W45533  13.805  14.697  14.277  0.0415 -0.0789  0.1840
30403W        W45534   4.734  13.449  13.733 -0.0938 -0.1490  0.1296
30404W        W45535   6.805  12.650  15.503 -0.2438 -0.2779 -0.0983
30405W        W45536  18.316   2.715  15.060  0.1165 -0.1603  0.0548
30406W        W45537   6.328  11.196   5.541  0.0387  0.1242 -0.0727
30407W        W45538   0.520   4.317   0.919  0.3202 -0.0184  0.0048
30408W        W45539   2.835   7.866  10.362 -0.3373  0.4624 -0.0979
30409W        W45540  15.458  18.403   4.163 -0.1048 -0.3491 -0.3688
30410W        W45541   9.484  10.406   0.349 -0.3265 -0.0840 -0.0014
30411W        W45542  18.018   9.560  15.450  0.0375  0.0144 -0.0256
30412W        W45543  14.252  18.188   2.262 -0.0146  0.2329 -0.0024
30413W        W45544  15.598  11.669   2.025 -0.0265  0.1654 -0.1900
30414W        W45545   9.365   5.425   0.182  0.1421 -0.1237 -0.0888
30415W        W45546  17.244  18.437   1.782 -0.0424 -0.4131 -0.2132
30416W        W45547  17.908  13.588  10.527 -0.1892 -0.0784  0.0729
30417W        W45548  15.913   7.297   1.820  0.0606  0.2782  0.1305
30418W        W45549   3.809   2.481  13.148 -0.2018  0.1147 -0.2769
30419W        W45550   1.081   9.985   1.898 -0.1479 -0.0754  0.1170
30420W        W45551   4.277  12.167  12.413 -0.0122 -0.0594 -0.0431
30421W        W45552   3.703   2.738  12.642 -0.2204  0.0772  0.0959
30422W        W45553   3.909  10.416   2.472 -0.0781  0.0961 -0.0706
30423W        W45554  16.993   1.788  12.181 -0.1919 -0.0297 -0.1974
30424W        W45555   2.241   2.715  11.256 -0.0283 -0.0509 -0.0997
30425W        W45556   4.499  14.462   2.206 -0.0100 -0.2820 -0.0495
30426W        W45557   2.367   4.513  15.599 -0.1851 -0.4995  0.0121
30427W        W45558   6.242  10.013  14.407 -0.0398  0.0484 -0.1124
30428W        W45559   0.077  18.396  15.292  0.2571 -0.2593 -0.0524
30429W        W45560   3.645   5.039  11.894 -0.2515 -0.3193  0.0598
30430W        W45561   0.104  10.436   5.458  0.1944  0.0295  0.0678
30431W        W45562   5.622  12.344  14.902  0.1573 -0.1828  0.2266
30432W        W45563  12.174  16.852  12.426  0.3666  0.0527 -0.0958
30433W        W45564  16.515  10.182   1.289 -0.2242  0.0505  0.0708
30434W        W45565   5.196   6.033  14.291  0.4066 -0.1580 -0.4414
30435W        W45566   6.015   0.573  11.337 -0.2405  0.1000 -0.3491
30436W        W45567   6.832  12.406  10.127  0.1168 -0.2867  0.2656
30437W        W45568   3.491  16.107  14.800 -0.1332 -0.0288  0.0225
30438W        W45569  14.732   1.741   3.824  0.0501 -0.1525 -0.1409
30439W        W45570  13.006  12.163   1.855  0.2072 -0.0901  0.1601
30440W        W45571  12.041   6.996   4.770  0.0097  0.0008 -0.1417
30441W        W45572   1.687  13.265  14.903 -0.1511 -0.1661  0.0507
30442W        W45573  15.078  12.223  11.076  0.0051  0.2316 -0.0290
30443W        W45574   1.118  10.752  11.490 -0.2305 -0.0943  0.2887
30444W        W45575   7.983   0.559   0.976 -0.1601  0.2318 -0.1630
30445W        W45576  18.484   0.993   1.572  0.0690  0.0385  0.0106
30446W        W45577   4.762   1.801   4.006 -0.0950 -0.2950  0.2300
30447W        W45578   1.248   5.259   2.170 -0.0866  0.3369  0.1170
30448W        W45579  12.160   0.417   6.283  0.0814  0.0906  0.1661
30449W        W45580  10.915  15.151  13.598  0.1076  0.2279  0.3222
30450W        W45581   0.495   7.545   0.950  0.1371  0.1315  0.2063
30451W        W45582  14.742   4.997  14.064 -0.1552 -0.1447 -0.0026
30452W        W45583  18.107  13.286  11.929  0.0534  0.0243 -0.3394
30453W        W45584  14.247  18.083   4.661  0.1747 -0.0318 -0.2216
30454W        W45585  11.698  11.326  11.149 -0.1218  0.0096 -0.3064
30455W        W45586   1.519  12.238  11.615  0.0963  0.1299  0.1499
30456W        W45587   8.929   7.900   2.433  0.1201  0.0819 -0.1474
30457W        W45588  17.770  16.062   2.854  0.1332 -0.0537 -0.0371
30458W        W45589   3.767  16.335   3.196  0.1699  0.1105 -0.1546
30459W        W45590   2.367  16.119   0.709  0.0565  0.2072 -0.0722
30460W        W45591   1.854   4.345   1.035  0.1055  0.0531  0.2364
30461W        W45592   1.555   4.595   3.053  0.0572 -0.2397  0.1116
30462W        W45593   8.939   9.913  12.349 -0.2493 -0.0819 -0.0278
30463W        W45594   4.739  17.919  13.993  0.0349  0.3694 -0.0008
30464W        W45595   8.213  13.731  13.726  0.0122 -0.0085  0.1167
30465W        W45596   2.159   9.206  11.799  0.1318  0.3042 -0.1883
30466W        W45597  12.974  15.073  13.923  0.2386  0.4209 -0.1750
30467W        W45598   6.842  12.885  12.504 -0.1513  0.1977  0.1176
30468W        W45599   4.752   6.594  12.563 -0.2973  0.3743  0.2322
30469W        W45600  10.103  15.986   4.350  0.1349  0.0546 -0.1481
30470W        W45601   9.960  14.065  12.695 -0.4005 -0.3026 -0.0390
30471W        W45602   1.010   0.595   2.910 -0.0887  0.1986  0.2916
30472W        W45603  16.375   1.761   0.562  0.2424  0.1000 -0.0742
30473W        W45604  11.300   7.879  15.666 -0.1148 -0.0787 -0.0808
30474W        W45605   2.953   7.270   3.135 -0.2639  0.2129 -0.1209
30475W        W45606  15.032  13.121  12.208  0.2228 -0.2014  0.1564
30476W        W45607  17.842   4.422   9.954 -0.1192 -0.0180  0.3020
30477W        W45608  16.303  17.982   3.774  0.0722 -0.0261 -0.1699
30478W        W45609   2.888  15.386  12.744  0.1101 -0.0200 -0.1268
30479W        W45610  11.397   0.928  14.238 -0.0530  0.2491 -0.0038
30480W        W45611  17.500   4.823   2.576 -0.1726  0.1694  0.1297
30481W        W45612   2.013   8.506  10.649  0.0760  0.2700  0.1396
30482W        W45613   6.817   4.131   1.695 -0.1882  0.0768  0.0023
30483W        W45614   2.150  11.734   3.296  0.0141  0.1346  0.0735
30484W        W45615  18.215   3.754  14.112  0.1642 -0.0121  0.1184
30485W        W45616  11.598  12.484  15.311 -0.1794 -0.2672 -0.4364
30486W        W45617   2.382  14.357  10.062 -0.0215 -0.1083 -0.0601
30487W        W45618  15.240  11.326  12.009  0.2080  0.2023 -0.2270
30488W        W45619  17.023  11.368   1.775 -0.1270  0.3723  0.2455
30489W        W45620   5.575  18.391   5.524 -0.1456 -0.2344 -0.1194
30490W        W45621  11.873   6.851   2.473  0.0552  0.1607  0.2126
30491W        W45622   1.280  13.426   0.474 -0.0012  0.3985 -0.1848
30492W        W45623  10.473  18.453  15.749  0.1261  0.1511 -0.0601
30493W        W45624  12.668  10.813   3.278  0.0936  0.1510 -0.0732
30494W        W45625  13.620  11.495   4.157 -0.4332  0.2243 -0.2406
30495W        W45626  10.232   2.261   3.917  0.1337 -0.0921  0.2862
30496W        W45627   3.704   8.298  14.844 -0.2387  0.0725 -0.1461
30497W        W45628  13.833   5.839  11.380 -0.0191  0.0775 -0.1983
30498W        W45629  15.051  13.876   0.351  0.3590 -0.0742  0.0125
30499W        W45630   7.211  18.412   2.979  0.3736 -0.0040  0.4641
30500W        W45631  17.075   6.637   4.932 -0.1690  0.1913  0.3593
30501W        W45632   4.312   6.171  16.069 -0.1638  0.1087  0.0088
30502W        W45633   8.552  15.759  15.211 -0.0810 -0.2111  0.0022
30503W        W45634   7.512  17.292   5.429  0.2789  0.0792  0.0642
30504W        W45635   1.393  16.824   1.461  0.0926 -0.1019 -0.1884
30505W        W45636  13.268  16.239   0.618 -0.0888  0.3192  0.1118
30506W        W45637   3.598  15.046   0.356  0.1418 -0.0417 -0.2801
30507W        W45638   9.382   5.017   4.415  0.0574  0.0838  0.0026
30508W        W45639  17.298  10.064  13.089 -0.2267  0.1608 -0.0231
30509W        W45640   2.964  13.621  11.785 -0.0254  0.2795 -0.0542
30510W        W45641  13.978   9.827   5.194  0.2607 -0.0460  0.1054
30511W        W45642  16.665  11.626  11.942  0.0381  0.0472  0.2215
30512W        W45643  17.059   9.490  15.326 -0.1941  0.5165  0.2262
30513W        W45644   2.491  11.834  12.465 -0.2511 -0.0893  0.3681
30514W        W45645  14.207  10.740   0.145 -0.0186 -0.1011  0.0759
30515W        W45646   5.735   1.992  16.021  0.0410 -0.2476 -0.3202
30516W        W45647   6.057  15.869   4.677  0.1480 -0.1493  0.1441
30517W        W45648   8.044   6.828  12.411 -0.0579  0.0896 -0.0213
30518W        W45649  16.332  10.682   5.690  0.1397  0.2215  0.0256
30519W        W45650  16.581   7.768  16.107  0.0673  0.4243  0.0214
30520W        W45651   6.115   3.172  13.152  0.2041  0.5307 -0.1289
30521W        W45652  10.077   8.569   0.061 -0.0166 -0.2472  0.1122
30522W        W45653   8.915   1.463  11.477  0.0396 -0.0051  0.0330
30523W        W45654   9.844   4.654  12.594 -0.0172 -0.2449 -0.1594
30524W        W45655   8.040   0.144   6.059  0.2596  0.1334 -0.1896
30525W        W45656   1.019   9.591   2.560  0.0230 -0.1748  0.1782
30526W        W45657   8.031  17.297   2.437  0.4378  0.0140 -0.0933
30527W        W45658   4.168   0.422  15.443  0.2492 -0.1741  0.0476
30528W        W45659   6.239   1.032   9.601 -0.3992  0.1350 -0.0896
30529W        W45660   0.359   3.903  13.050  0.2793 -0.0492  0.2657
30530W        W45661   7.612   9.751  12.772 -0.1583  0.3533  0.2347
30531W        W45662   9.778   2.362  16.099  0.0251 -0.1224  0.2092
30532W        W45663  17.275   1.099   5.119 -0.1216 -0.0346  0.1900
30533W        W45664  10.860  14.556   4.039  0.0887  0.0629 -0.1236
30534W        W45665  11.249   4.958  15.380  0.0519  0.1924  0.0663
30535W        W45666   8.929  16.248   4.375  0.0045  0.1454  0.0842
30536W        W45667  14.494  12.765   2.369 -0.0910 -0.1408 -0.1813
30537W        W45668   8.782  10.042  15.189  0.2759  0.0031  0.1083
30538W        W45669   6.771  10.308   4.267 -0.2084  0.2680  0.3446
30539W        W45670  12.175   8.276   0.922  0.1716 -0.0569  0.2428
30540W        W45671  14.260  15.129  12.662 -0.3169 -0.0063  0.1594
30541W        W45672  15.633  16.197  13.612 -0.0395  0.1608  0.2969
30542W        W45673   9.392   3.370   1.055 -0.0960  0.1239  0.0133
30543W        W45674  16.266  14.327  11.294 -0.0031 -0.2307 -0.0692
30544W        W45675  16.018  16.482  10.802  0.2815  0.0859  0.1485
30545W        W45676   4.949   5.228   0.029 -0.0099  0.2944 -0.0168
30546W        W45677   5.063   4.206  10.410  0.2482 -0.0259 -0.0322
30547W        W45678  15.766   3.670   3.377  0.3344  0.1742 -0.0822
30548W        W45679   6.368   0.661  14.474  0.4723  0.4168 -0.0364
30549W        W45680  18.407   0.138   0.566  0.1753  0.2130  0.5682
30550W        W45681  14.744   1.411  12.790 -0.0459 -0.0385  0.1445
30551W        W45682   8.093   2.751  11.587  0.2184 -0.0232 -0.0550
30552W        W45683   5.432   1.103   1.095 -0.3802 -0.0982  0.1017
30553W        W45684   3.457   4.651   5.413 -0.0579 -0.0129  0.2100
30554W        W45685   0.796  13.634  14.981 -0.2665 -0.3348 -0.0676
30555W        W45686   0.799  13.652   3.629 -0.0532 -0.0842 -0.1397
30556W        W45687   7.951  13.050   4.487  0.0819  0.1336 -0.0906
30557W        W45688   2.440  13.893   4.632  0.1325 -0.0225 -0.0604
30558W        W45689   6.731   2.928   5.121  0.0436 -0.0691  0.3531
30559W        W45690   7.189   8.408  11.664  0.0165 -0.0459 -0.0155
30560W        W45691   0.680  17.083   5.096  0.0042  0.1987 -0.0462
30561W        W45692  11.442   7.724  14.258 -0.1269 -0.0418 -0.1416
30562W        W45693  11.100   5.115   0.296  0.0197 -0.0194  0.1376
30563W        W45694  13.943  13.146   1.984  0.0278  0.1231 -0.1147
30564W        W45695  15.256   0.172   5.317 -0.0632  0.0446  0.0297
30565W        W45696  16.769  15.368   3.158 -0.2514  0.0628  0.1094
30566W        W45697   2.803   7.546   2.158 -0.0011  0.1141 -0.1117
30567W        W45698   9.714   0.765  12.907  0.0806  0.1408 -0.4027
30568W        W45699  16.653   1.667  15.808 -0.0660  0.1026 -0.0032
30569W        W45700  10.733   1.664   5.026 -0.2132 -0.3155  0.0021
30570W        W45701   3.286  11.160  11.097  0.1485 -0.4205 -0.1798
30571W        W45702  17.217   3.835   3.733 -0.4701  0.4085  0.1950
30572W        W45703   1.501  15.046   0.295  0.1393  0.1403  0.0175
30573W        W45704   5.757  15.216  11.353 -0.1006 -0.1193  0.1201
30574W        W45705  17.563  11.234  13.795 -0.2137  0.1674  0.0997
30575W        W45706   9.736   1.162   3.262  0.3040 -0.0634 -0.0619
30576W        W45707   1.558  11.630   4.433  0.0423 -0.1112  0.2656
30577W        W45708   2.826  17.934   3.042 -0.1772  0.2794 -0.3353
30578W        W45709   9.446   0.039   0.552 -0.0543  0.1119  0.0945
30579W        W45710  17.995  16.323   3.254  0.0679 -0.0012  0.1988
30580W        W45711  12.396   2.535   3.461 -0.1401  0.1389  0.1770
30581W        W45712  13.937   3.383  13.941  0.1434  0.3207 -0.3140
30582W        W45713   2.151   8.842   5.558 -0.4669  0.1281 -0.1636
30583W        W45714   2.210   9.693   1.121 -0.1774  0.1780  0.0798
30584W        W45715  13.887   2.588  12.640  0.1261  0.2592  0.1968
30585W        W45716   4.496   8.807   2.556 -0.0414 -0.0877  0.1486
30586W        W45717   2.779  12.839   2.022 -0.3963  0.1646 -0.0093
30587W        W45718  13.809  13.361  10.911 -0.1372 -0.0962 -0.1884
30588W        W45719  12.056  15.092  10.696  0.0193 -0.2656  0.0810
30589W        W45720   2.971  14.136  10.618 -0.0782  0.0705 -0.0537
30590W        W45721  10.334  17.416   3.265 -0.0616 -0.0149  0.0402
30591W        W45722  11.528  12.437   0.221 -0.2045 -0.1913  0.0282
30592W        W45723  12.043  15.314   2.760  0.0862  0.2892  0.0523
30593W        W45724   5.049   4.147  11.247 -0.1723 -0.1265 -0.1275
30594W        W45725  14.064   3.301  10.929  0.4234  0.1782 -0.1979
30595W        W45726   6.474  10.810  12.284  0.0320 -0.1860  0.1681
30596W        W45727   8.094   4.074  14.881  0.3042 -0.1752 -0.4466
30597W        W45728  17.566  13.788  14.722 -0.2316  0.3663 -0.1406
30598W        W45729   9.040  11.714   5.090 -0.0852 -0.2934 -0.2013
30599W        W45730   6.518  12.273   3.154 -0.1459 -0.1302 -0.0117
30600W        W45731   1.660   8.597   0.071 -0.2052  0.2318 -0.1689
30601W        W45732   6.472  15.354   2.465  0.1483 -0.1452 -0.1410
30602W        W45733   4.222  10.345   3.070 -0.0273 -0.0205  0.1115
30603W        W45734  12.842   9.546   2.147  0.2579 -0.0002  0.3973
30604W        W45735   7.896   0.151   1.259 -0.0343 -0.1742 -0.1949
30605W        W45736  11.223   6.091  15.035 -0.2626 -0.0166 -0.1973
30606W        W45737   3.718   5.927  14.543 -0.1565 -0.0429  0.1237
30607W        W45738  11.200   4.443  14.069 -0.0040 -0.0467  0.2321
30608W        W45739   1.394  14.216   2.302  0.0925  0.1939  0.0074
30609W        W45740   2.445   7.815  12.508 -0.1229 -0.1609  0.1587
30610W        W45741   5.710  16.557  12.652  0.0228 -0.1283  0.1363
30611W        W45742   1.189  11.172  11.166  0.0736 -0.1566 -0.3433
30612W        W45743  12.756  17.358   3.689  0.2272  0.1777 -0.2077
30613W        W45744  15.595   3.226   5.831 -0.0008  0.0116  0.0082
30614W        W45745  14.878  12.786  11.827  0.2655  0.0780  0.2405
30615W        W45746   8.701  13.968   2.472  0.0618  0.1422  0.1989
30616W        W45747   7.133  14.201  13.996 -0.1886 -0.1886  0.2911
30617W        W45748   6.987  14.692   4.970 -0.1479 -0.0212  0.0581
30618W        W45749  12.758   4.409   5.035 -0.1026  0.1010 -0.3222
30619W        W45750   2.286   4.427  12.272  0.0868  0.1753  0.3587
30620W        W45751  16.751  12.859  15.564 -0.0902  0.0401 -0.1946
30621W        W45752  15.882  16.492  14.370  0.0399 -0.2923 -0.0042
30622W        W45753  18.376   2.861   1.516 -0.2572  0.0021  0.0940
30623W        W45754   2.942  12.730   3.907  0.1640 -0.2297 -0.2892
30624W        W45755  16.568  15.803   1.532 -0.1298 -0.0947  0.0152
30625W        W45756  12.976   6.651  14.291 -0.0556 -0.0894  0.1841
30626W        W45757   6.867   3.841   5.464  0.0903 -0.0089 -0.0122
30627W        W45758   4.571   4.734  13.168 -0.0455  0.2684 -0.3009
30628W        W45759   8.353   6.774  14.204 -0.1489 -0.0462  0.2819
30629W        W45760  12.865  12.953   5.107 -0.0305  0.0012  0.2337
30630W        W45761  14.467  16.469   3.661  0.0257  0.2847  0.1511
30631W        W45762  10.524  13.316  15.285  0.4462 -0.0839 -0.0850
30632W        W45763   5.657  13.696  15.492  0.0789 -0.1322  0.0514
30633W        W45764   8.149   7.249  10.983 -0.4477 -0.3619  0.0017
30634W        W45765  16.439   0.516  15.832 -0.1617  0.2167 -0.0346
30635W        W45766  14.501   8.986  12.992 -0.2010  0.0032  0.1404
30636W        W45767  13.610   8.597  15.366 -0.0224  0.0066 -0.1672
30637W        W45768  17.973  15.396  14.638  0.0800  0.0877  0.0851
30638W        W45769  12.173  12.222  11.782 -0.1392  0.1185  0.0003
30639W        W45770  10.527  15.589  15.690  0.4344 -0.2987  0.2708
30640W        W45771  14.387  18.228   3.816  0.0685 -0.3990 -0.2939
30641W        W45772   1.019   7.580  11.002  0.1171 -0.2757  0.1411
30642W        W45773   6.972   9.307   5.385 -0.0618  0.5680  0.0881
30643W        W45774  13.781  17.223   4.815  0.0057 -0.0392 -0.2056
30644W        W45775   6.895  12.946  10.448 -0.1664  0.1690 -0.5268
30645W        W45776   4.115   3.087   1.996  0.0625 -0.0796  0.2708
30646W        W45777   0.051   0.568  12.848  0.1219  0.0259  0.0045
30647W        W45778   0.166  17.507  10.185 -0.2214 -0.1190 -0.3308
30648W        W45779   1.589  17.237   0.750 -0.0098  0.0811  0.0841
30649W        W45780   6.622   5.178  14.973 -0.0696  0.2582  0.3408
30650W        W45781   3.425   8.888  13.643 -0.0437 -0.1987  0.0813
30651W        W45782   9.467   8.753   1.585 -0.3600  0.1916  0.1097
30652W        W45783   4.759   0.417  12.193  0.4064  0.0938  0.0144
30653W        W45784   2.984   3.855  12.319  0.2298  0.0095 -0.4662
30654W        W45785  11.926  12.631   3.349  0.1048 -0.0530  0.2448
30655W        W45786   4.315   4.072   4.501  0.2730  0.2464 -0.0480
30656W        W45787   8.552  11.333  15.880  0.1407  0.0224 -0.1655
30657W        W45788   0.626  16.111  13.861  0.0145 -0.1026 -0.1096
30658W        W45789  14.810   4.711  11.669 -0.2933 -0.0240 -0.2478
30659W        W45790  17.717  10.234  15.738  0.1105  0.1868 -0.1754
30660W        W45791   0.123   1.837   1.147 -0.1474  0.3425  0.1621
30661W        W45792  11.340  17.162   1.184 -0.0745 -0.3053  0.3857
30662W        W45793  10.496  15.637   3.372 -0.0193 -0.1914 -0.0445
30663W        W45794   8.508  17.267  11.333  0.4033  0.5178 -0.3504
30664W        W45795  16.457  16.855  13.744  0.1152 -0.1655 -0.0816
30665W        W45796   6.661   0.809   1.173  0.2106  0.0086  0.3162
30666W        W45797  11.295   7.640  10.958 -0.0017  0.1375  0.1883
30667W        W45798  15.870   0.147   1.732 -0.1133 -0.0985  0.2141
30668W        W45799  13.865   2.978   0.265 -0.1798 -0.2052  0.4495
30669W        W45800  17.633   0.219  14.366 -0.1951 -0.1055  0.1469
30670W        W45801  11.594  16.762  12.576 -0.0931  0.0230 -0.0007
30671W        W45802  10.935  17.252  10.160  0.1799  0.1192  0.0415
30672W        W45803   4.556   8.605  12.452 -0.0967  0.2542 -0.0135
30673W        W45804   9.074   9.444  12.472  0.0439 -0.0033 -0.2151
30674W        W45805  13.967   4.689   2.815 -0.0069 -0.0950 -0.2908
30675W        W45806   0.436  16.710  14.558  0.0245  0.1459 -0.3124
30676W        W45807  18.211  18.233  10.350  0.4368  0.1525  0.2532
30677W        W45808  10.665  13.473   1.420  0.1814 -0.2502  0.2928
30678W        W45809   6.321  11.396   3.203 -0.0164 -0.2030  0.1295
30679W        W45810  11.472   9.008   0.104  0.0915 -0.3208 -0.3139
30680W        W45811  13.401  13.004  12.768 -0.1290 -0.0249  0.1427
30681W        W45812   3.233  11.603   3.067  0.2722  0.1526 -0.4810
30682W        W45813   1.958   4.663  15.857  0.1885  0.2014  0.0782
30683W        W45814   7.680   6.857   5.940 -0.2098 -0.1526  0.1653
30684W        W45815  10.170  14.250   5.153  0.1741  0.0767 -0.1744
30685W        W45816  16.795   9.262   3.322 -0.2110  0.2991  0.2956
30686W        W45817   8.492   4.646   2.947 -0.0339  0.2896  0.0900
30687W        W45818  12.518  15.444   4.835 -0.1023  0.0765  0.0667
30688W        W45819   7.216  10.343  12.905 -0.1087 -0.0933  0.1389
30689W        W45820   3.698   7.846   2.279  0.2040 -0.1248 -0.0144
30690W        W45821   5.620   0.135   2.486 -0.1426 -0.5149 -0.0292
30691W        W45822   2.397  15.870  14.493  0.1389  0.0985 -0.1789
30692W        W45823   7.946  17.438  10.584 -0.2647  0.3614 -0.3164
30693W        W45824  10.539  13.668   2.403 -0.1584  0.1927 -0.0684
30694W        W45825  11.314   6.764   5.457 -0.4885  0.0857  0.0002
30695W        W45826   1.269  16.253  14.877  0.1511  0.1094 -0.1203
30696W        W45827   4.681   7.603  13.449  0.2600 -0.0180 -0.1285
30697W        W45828  17.369   0.919  13.711  0.2041 -0.0552 -0.0941
30698W        W45829   8.774  15.940  14.587 -0.0686 -0.0903  0.0425
30699W        W45830   0.535  11.778   3.109  0.0818  0.0230 -0.1093
30700W        W45831   8.136  16.923  11.265 -0.2190  0.0664  0.1312
30701W        W45832   7.907  10.156   2.497 -0.0510  0.0782  0.0006
30702W        W45833  15.693  18.338   2.071 -0.0242  0.0184 -0.1141
30703W        W45834  18.024   2.488   2.177  0.1526 -0.3218  0.0426
30704W        W45835   8.904   3.308  10.928  0.1669  0.1741 -0.0388
30705W        W45836  10.176  15.239   2.395 -0.2214  0.1277  0.0369
30706W        W45837  11.967  18.304   2.887  0.0259 -0.0212  0.0417
30707W        W45838   9.173  17.485   5.558  0.1321 -0.2573  0.1306
30708W        W45839   5.071   1.255   3.480 -0.1065  0.3007  0.0470
30709W        W45840   5.548   1.484   0.074 -0.2084 -0.0998  0.1569
30710W        W45841   4.680   3.767   0.066 -0.2243 -0.0122  0.0685
30711W        W45842   5.110  11.280  14.115 -0.0879 -0.1664 -0.0027
30712W        W45843   7.916   5.328  13.393  0.1345  0.0690 -0.1275
30713W        W45844   8.073  14.028  14.718  0.3899  0.1098  0.1014
30714W        W45845   8.016   7.452   2.241  0.1749  0.3999  0.1078
30715W        W45846   0.382  14.998   0.516  0.1264 -0.0384 -0.0417
30716W        W45847  13.650  15.656   0.126 -0.2429 -0.1006 -0.0913
30717W        W45848   4.411   8.216  12.095  0.0256  0.0809  0.0541
30718W        W45849   2.442  14.613  13.878  0.1151 -0.3717  0.1298
30719W        W45850   1.346  17.026   3.214 -0.0091 -0.0629  0.0976
30720W        W45851   7.978   2.575  15.682  0.0006 -0.3054  0.0853
30721W        W45852  14.652   5.427   3.043  0.0799  0.2634  0.3386
30722W        W45853   3.204  17.340  11.551  0.0641  0.1102  0.1351
30723W        W45854   7.455  14.480   4.976  0.1056 -0.0407  0.2581
30724W        W45855   0.265  10.652   4.115  0.3734  0.2968 -0.2646
30725W        W45856  14.669   9.596  14.885 -0.4048  0.0997 -0.1899
30726W        W45857  15.563  13.418   1.145  0.1977 -0.0844  0.2277
30727W        W45858   5.246  13.550  15.292  0.2974  0.1374  0.0523
30728W        W45859  12.903  12.408   5.026 -0.0515  0.0971 -0.0343
30729W        W45860   1.449  11.182  14.752 -0.0070  0.0969  0.1082
30730W        W45861   9.670  14.438   1.418 -0.3941 -0.0499  0.3412
30731W        W45862   4.062  18.013   1.547 -0.0123  0.2139  0.1466
30732W        W45863  13.834  12.936  15.983  0.1633 -0.1910  0.2124
30733W        W45864   9.606   3.934  15.291 -0.1094 -0.1702  0.3062
30734W        W45865  13.952   1.858   0.679 -0.1178  0.0215  0.1133
30735W        W45866  13.501   8.255  12.791  0.0519  0.0512 -0.0323
30736W        W45867  15.318   7.331   2.053  0.0343 -0.0811 -0.0229
30737W        W45868  15.500   4.196   2.976  0.1119 -0.1259  0.3393
30738W        W45869  13.400   7.054   3.616 -0.0691  0.1147 -0.2394
30739W        W45870  16.320  13.903   0.945  0.3279  0.0693  0.0862
30740W        W45871   1.517   3.522   3.230 -0.1282 -0.2429  0.0263
30741W        W45872   2.341   4.918  14.692 -0.0037 -0.0439  0.0712
30742W        W45873   8.669   0.832   4.841  0.1542  0.0961  0.0418
30743W        W45874   7.696  18.258   4.735 -0.3730 -0.1233  0.2340
30744W        W45875   2.177   5.790  13.708  0.1669  0.2733  0.1602
30745W        W45876   7.567   7.216   3.283  0.0168  0.0173  0.1554
30746W        W45877   4.896   6.581   5.487 -0.0206  0.3267  0.0212
30747W        W45878   3.874  17.018  15.497  0.1998  0.0456  0.2761
30748W        W45879   5.854   7.723   6.273 -0.0660 -0.1377  0.0551
30749W        W45880  14.113  14.507   3.943  0.0649  0.0839  0.2882
30750W        W45881   1.308  16.005  11.549 -0.3594  0.1216 -0.2669
30751W        W45882  10.806  12.456   2.878  0.1213 -0.1622 -0.1407
30752W        W45883   1.377   0.927   2.645 -0.1808  0.0371  0.2120
30753W        W45884  15.552   2.784   1.167 -0.4149  0.3648 -0.4312
30754W        W45885  12.266  12.722  15.513  0.0020 -0.1343  0.1720
30755W        W45886   0.477  17.006  13.106 -0.2011 -0.0759  0.0983
30756W        W45887   2.891  13.609   5.385  0.2926  0.2019 -0.1874
30757W        W45888  14.893   4.851  15.857  0.0952 -0.0021 -0.0188
30758W        W45889  10.409   5.902   5.081  0.2098 -0.2239  0.1889
30759W        W45890  16.417   6.732   3.143 -0.1245 -0.1392  0.1881
30760W        W45891  15.284  14.213  11.610  0.1219  0.1590  0.2433
30761W        W45892   4.160   1.766  14.333 -0.0449 -0.1099 -0.0413
30762W        W45893   8.157   4.390   1.927  0.2686 -0.2027 -0.1006
30763W        W45894   1.982   5.545   3.305  0.1888 -0.0038 -0.1418
30764W        W45895   2.054  17.134  15.619  0.1012 -0.0240  0.0090
30765W        W45896  15.708   2.966  11.113  0.1936  0.0303 -0.2275
30766W        W45897   6.367   5.806   0.889 -0.2287  0.0958  0.1861
30767W        W45898   2.085   8.316  14.406  0.3482 -0.1966 -0.2110
30768W        W45899  10.294   6.456  14.296  0.2046  0.1987  0.2037
30769W        W45900   1.918  16.955   0.941 -0.0297  0.0333 -0.0039
30770W        W45901   6.384  14.055  14.313  0.1195  0.0523  0.0875
30771W        W45902  13.675   4.470  10.291 -0.0587  0.2817 -0.2159
30772W        W45903   7.084  16.410   3.987 -0.0201 -0.2431  0.1106
30773W        W45904  18.315   8.060  12.154 -0.0200  0.3928  0.1765
30774W        W45905  17.095  11.009   2.215  0.1249  0.2611  0.1997
30775W        W45906   0.780  13.536   1.841  0.0877 -0.0291 -0.2123
30776W        W45907  13.672   3.163   5.481 -0.2427 -0.1088 -0.3199
30777W        W45908   7.882   1.182  11.707  0.1827  0.0497  0.1789
30778W        W45909   8.963   2.713   2.600  0.0215 -0.0855 -0.2809
30779W        W45910  11.724   0.609  16.023  0.2565  0.1681 -0.1646
30780W        W45911  16.056   5.299   2.468 -0.2269 -0.0476  0.3566
30781W        W45912  16.119  16.764  13.390 -0.1718 -0.2217  0.1754
30782W        W45913   8.689   0.873   2.519 -0.1485 -0.0687 -0.1222
30783W        W45914  13.110  17.297  11.132  0.0762 -0.0737  0.0286
30784W        W45915   4.901   3.240  14.101 -0.1107 -0.1476  0.2289
30785W        W45916   4.959   5.538   1.020  0.4091  0.2929  0.2811
30786W        W45917  16.156  12.154   3.974  0.1497 -0.0954 -0.1298
30787W        W45918   9.626  13.698   0.544  0.0147 -0.3631  0.0690
30788W        W45919   2.110  12.739  14.497  0.2431  0.3514  0.1959
30789W        W45920  14.485   8.785  11.539 -0.0903 -0.2550 -0.0379
30790W        W45921   0.048  11.767   2.425  0.1067  0.3073 -0.0109
30791W        W45922  11.369   1.222   2.896 -0.0765  0.2048  0.0738
30792W        W45923   4.956   2.795  16.017 -0.1700  0.1127  0.0991
30793W        W45924   5.176  14.330   1.411 -0.2813  0.1956  0.1282
30794W        W45925   6.020  18.142  15.829  0.2253  0.1509 -0.3122
30795W        W45926  17.620   3.350   5.201 -0.2255 -0.0159 -0.1909
30796W        W45927   7.661   0.508   3.312 -0.0580  0.0891  0.1494
30797W        W45928  15.951   4.314  12.269 -0.2231 -0.3311 -0.0411
30798W        W45929   1.578  15.236  15.301 -0.2911 -0.2017 -0.3527
30799W        W45930   9.999   5.035  15.846  0.0696 -0.1216  0.0350
30800W        W45931  13.622  16.010  15.422  0.2228  0.1564 -0.2296
30801W        W45932   8.966  10.134  15.702  0.0389 -0.1086 -0.0923
30802W        W45933   7.034  11.839   2.029  0.3851  0.0613  0.0579
30803W        W45934  15.931   2.604   4.945 -0.0053 -0.0361 -0.0342
30804W        W45935   3.411  12.903  15.379  0.3238 -0.1267  0.3392
30805W        W45936   5.665  16.438  15.132  0.0108 -0.1397 -0.3408
30806W        W45937  18.400   6.369  14.598 -0.0333  0.2291 -0.0506
30807W        W45938   5.457   8.481  13.009 -0.1125  0.2540 -0.2466
30808W        W45939  12.440  14.729  15.502  0.0405  0.0840 -0.2190
30809W        W45940  15.088  17.560   1.957 -0.0978 -0.1883 -0.1364
30810W        W45941   5.111  15.943   2.173  0.2363  0.1536 -0.0148
30811W        W45942  14.215  12.001  14.422 -0.0125 -0.0618  0.0625
30812W        W45943   1.300  17.353  15.950  0.2963 -0.0719  0.0564
30813W        W45944   6.080   7.282   1.411 -0.3069 -0.0272  0.0512
30814W        W45945   3.487  16.642  15.479  0.1204  0.2264  0.0682
30815W        W45946   4.191   9.584   4.394  0.3935 -0.0931  0.4713
30816W        W45947  12.747   6.053   1.767  0.1115  0.0984 -0.4123
30817W        W45948   3.448   7.356  15.234 -0.2369  0.0621  0.1348
30818W        W45949   9.456   0.486  15.447 -0.2398 -0.0866  0.3530
30819W        W45950   4.867   1.634  10.363 -0.6324 -0.2463  0.1986
30820W        W45951  15.082  12.050  13.903 -0.1730 -0.1234 -0.2139
30821W        W45952  16.855  13.826   4.970 -0.0661 -0.1019  0.1930
30822W        W45953  16.160  16.326  13.739 -0.0582  0.1587 -0.3028
30823W        W45954   0.209   4.377  12.748 -0.2286 -0.0949 -0.2029
30824W        W45955   7.906  11.219   1.664  0.2940 -0.0867  0.0654
30825W        W45956   5.632   1.233  13.734 -0.0994 -0.0353  0.3562
30826W        W45957  15.915   6.377   1.904 -0.0088 -0.2839 -0.1242
30827W        W45958  12.215   3.537  12.196  0.0788  0.2107 -0.2012
30828W        W45959  15.133   3.961   3.175  0.2052 -0.2396 -0.0400
30829W        W45960   7.515   2.906  14.992 -0.2646  0.0997  0.2465
30830W        W45961   2.985   7.587   0.513  0.0117  0.0297  0.1427
30831W        W45962  12.444  13.766  11.371  0.1302 -0.0579 -0.0787
30832W        W45963   9.802   8.769   4.286  0.2672  0.1788 -0.0894
30833W        W45964   7.690   3.047  14.159  0.3633  0.0901  0.3561
30834W        W45965  11.351  14.223  14.266 -0.0265 -0.2430 -0.1673
30835W        W45966   9.570  14.205  12.345 -0.0118  0.0218  0.0359
30836W        W45967   9.172  12.162   0.642  0.0237  0.1350 -0.2875
30837W        W45968   5.268   3.927  10.038  0.1179  0.2892  0.0305
30838W        W45969  10.113  17.121   4.359 -0.0387  0.0437  0.2686
30839W        W45970   2.562  15.625  15.868  0.1179  0.0788 -0.1961
30840W        W45971  17.163   1.564  14.543 -0.2064  0.2690  0.2584
30841W        W45972  10.643   5.929  12.771 -0.3310  0.0509 -0.1110
30842W        W45973  17.885  12.838  12.083  0.0246  0.0538  0.0641
30843W        W45974   2.824  17.099  10.655 -0.1189  0.0360 -0.1246
30844W        W45975  10.209  16.090  13.214 -0.2897  0.0822 -0.1655
30845W        W45976   9.142   2.617  12.543  0.1131 -0.0702 -0.0253
30846W        W45977   7.277  11.913   4.628 -0.5323 -0.0495 -0.2510
30847W        W45978  14.323   2.995   5.234 -0.1245 -0.1182 -0.1517
30848W        W45979  15.569   2.735   4.145  0.3673 -0.0651  0.5376
30849W        W45980   4.515  17.244   2.225  0.0058 -0.0337  0.1981
30850W        W45981   8.269  11.870  14.046 -0.1386  0.1898 -0.1552
30851W        W45982   9.458  12.235   1.071 -0.2042  0.1031  0.2651
30852W        W45983   1.342   6.287   0.521  0.0311 -0.1605  0.2306
30853W        W45984  17.003  10.392   1.904 -0.2297 -0.0679  0.0604
30854W        W45985  12.555  16.400   4.838  0.4568  0.1640  0.0633
30855W        W45986   4.443  12.726   4.903  0.2933  0.1921  0.1995
30856W        W45987  17.473   6.240   1.451  0.3063  0.3850  0.0198
30857W        W45988   4.809  17.426  14.257 -0.4023  0.2480 -0.2206
30858W        W45989  14.712   8.346   1.687 -0.0656 -0.1521  0.0507
30859W        W45990  15.222   3.691   4.483  0.1282 -0.0851  0.1996
30860W        W45991  12.369   8.016   5.205  0.2486  0.2886  0.0572
30861W        W45992  15.341   7.597   1.498 -0.2844 -0.1204  0.0343
30862W        W45993  15.376   9.420   1.795  0.3676 -0.2839  0.2240
30863W        W45994   9.361   8.827  12.802  0.2904  0.1322  0.0905
30864W        W45995   6.758   8.406  11.273  0.0924  0.1614 -0.1776
30865W        W45996   6.171  12.839  12.583 -0.0437 -0.1105 -0.1688
30866W        W45997   6.552  14.638  11.821  0.2328 -0.1489  0.0787
30867W        W45998  18.142  17.343  11.270  0.3481  0.3818  0.0213
30868W        W45999  12.230   9.754   4.248  0.0494 -0.0916 -0.1433
30869W        W46000  18.245  15.138  11.278 -0.2456  0.1225 -0.1436
30870W        W46001  11.580   4.872  13.332 -0.5702 -0.1555  0.2543
30871W        W46002  14.430   9.577  14.415  0.4727  0.0054  0.2895
30872W        W46003  16.752   8.389   5.734 -0.2095  0.2263 -0.0256
30873W        W46004   8.860   4.589   5.002 -0.0124 -0.3844 -0.1478
30874W        W46005  13.190   2.203   1.693 -0.0673  0.2766  0.3478
30875W        W46006   0.396  17.745   9.756 -0.0389  0.2190 -0.1044
30876W        W46007   6.716  15.179  15.779  0.0360 -0.0523  0.0190
30877W        W46008  10.283  13.632  12.594 -0.2567 -0.3292  0.1345
30878W        W46009  11.387   6.006   0.163  0.1292 -0.1332 -0.1128
30879W        W46010   7.635  14.639  12.222  0.0302 -0.0663 -0.1097
30880W        W46011  12.298  14.201  11.148 -0.2178 -0.0907 -0.0010
30881W        W46012  11.892   4.338  16.088 -0.1109  0.0029 -0.0664
30882W        W46013  14.797  11.880   2.383 -0.3385 -0.0120 -0.3321
30883W        W46014   9.732   5.002   5.228  0.3221 -0.1674 -0.0953
30884W        W46015   1.712  17.343  11.602 -0.1802 -0.1041  0.2522
30885W        W46016  16.476  14.720   3.889 -0.0741 -0.1411 -0.3282
30886W        W46017   0.088   5.656   3.512  0.1592  0.0035 -0.0473
30887W        W46018  17.213  14.394   0.025  0.0753  0.0523 -0.0434
30888W        W46019   1.870   4.748  14.882 -0.0775  0.1650 -0.0769
30889W        W46020  16.898  12.134   3.024  0.1113  0.0655 -0.4579
30890W        W46021   3.164   7.796  15.388  0.4118  0.1292 -0.3021
30891W        W46022   5.790   9.194   1.619 -0.1473 -0.0773 -0.0039
30892W        W46023  18.394   4.322   0.155  0.1197  0.2262 -0.1594
30893W        W46024  11.429   7.594   1.129  0.1303 -0.2185 -0.1566
30894W        W46025   5.251  14.252  15.190 -0.0190 -0.0033 -0.3791
30895W        W46026   8.143   1.312  12.534 -0.1033  0.0220 -0.0551
30896W        W46027   1.312   0.236  12.509 -0.2600 -0.1997 -0.0130
30897W        W46028   5.255   5.570   5.757  0.0240  0.5010  0.2497
30898W        W46029   8.696   7.332  12.672  0.2434 -0.0192  0.0310
30899W        W46030   0.392   6.791  15.492 -0.0915  0.0522 -0.1202
30900W        W46031   8.470  13.358  14.038 -0.0450 -0.1190 -0.1169
30901W        W46032   8.007   7.168   3.102 -0.1416 -0.1936 -0.1009
30902W        W46033   9.995  12.562   5.483  0.2654  0.1628  0.1078
30903W        W46034   5.305   1.884   1.214 -0.0227  0.1180  0.2155
30904W        W46035  12.602  17.236  15.524 -0.1285  0.3137 -0.1134
30905W        W46036   5.480  14.408   3.764 -0.1719 -0.0902  0.2346
30906W        W46037  14.418  17.471   3.476  0.0198 -0.1641  0.2923
30907W        W46038  11.414  15.691  14.112  0.1626 -0.0889  0.0951
30908W        W46039  12.138  13.116   1.740 -0.2242  0.1659 -0.0616
30909W        W46040  16.251   9.344   4.929 -0.2811  0.2807  0.2893
30910W        W46041   3.244  18.380   3.784 -0.0670 -0.0225  0.0643
30911W        W46042   2.193  17.782   4.838 -0.0697 -0.4523  0.0610
30912W        W46043   0.407  14.173  11.609 -0.0074 -0.2384 -0.1135
30913W        W46044   9.182   3.735   1.267 -0.1435  0.3578 -0.0177
30914W        W46045   7.518  12.655   3.722 -0.2371  0.5314  0.0003
30915W        W46046  12.422   6.134  13.162 -0.4809  0.3971 -0.1171
30916W        W46047  12.954  11.795  14.755 -0.1411 -0.3742 -0.1586
30917W        W46048  11.412   8.488   6.161 -0.0819  0.0181  0.2885
30918W        W46049   5.187  17.736  10.578  0.3389 -0.0550  0.3182
30919W        W46050   4.777  10.509  14.465  0.2302 -0.1264 -0.3778
30920W        W46051   4.728  18.328  11.389 -0.5884  0.0109 -0.2406
30921W        W46052   2.246   5.967  14.394 -0.4104  0.0310 -0.0698
30922W        W46053  14.978  12.560   0.194  0.4570 -0.0981  0.3937
30923W        W46054  15.465   1.310  15.904 -0.2331 -0.1733 -0.1695
30924W        W46055   0.370   7.025   3.005  0.0077 -0.3273 -0.0132
30925W        W46056  16.795   3.117   1.584 -0.1541 -0.0398  0.0915
30926W        W46057   0.151  17.038   2.035 -0.2956 -0.1967 -0.1353
30927W        W46058  12.864   4.603   4.528  0.1252 -0.1392 -0.1715
30928W        W46059   7.776   2.258   3.051 -0.0381  0.0128  0.1085
30929W        W46060  16.411  11.512  15.631 -0.2916  0.0464 -0.0993
30930W        W46061   7.154   9.288  13.415 -0.1266 -0.2145  0.1514
30931W        W46062  13.367  18.486  12.109 -0.1094  0.0117 -0.3443
30932W        W46063   8.686  14.068  12.514 -0.0953  0.2290 -0.0015
30933W        W46064  15.881   0.169   2.662 -0.3819  0.1783 -0.1151
30934W        W46065  15.364   6.997   3.381  0.0369 -0.2868  0.2199
30935W        W46066  10.255   2.887   0.963  0.1698  0.0722 -0.1930
30936W        W46067  10.526   5.078   5.874  0.2295  0.1849 -0.1038
30937W        W46068   7.263   7.168   0.472  0.2746  0.0660  0.1318
30938W        W46069  13.322  10.131   1.404  0.3019  0.0172 -0.0953
30939W        W46070  15.032   1.849  10.919 -0.1616  0.4328 -0.0132
30940W        W46071  16.286  10.094   4.253  0.0679  0.1697  0.1745
30941W        W46072   7.175   6.093   3.926 -0.0209 -0.0512 -0.0038
30942W        W46073  12.588   3.902   3.536 -0.1669  0.1091 -0.2745
30943W        W46074  10.029   9.219  16.032 -0.0834  0.0923  0.1844
30944W        W46075   3.827   3.289  15.075 -0.2481  0.0400  0.5308
30945W        W46076  14.121  12.777   5.351  0.1138 -0.1152  0.0625
30946W        W46077   9.316  15.638   2.707 -0.2647  0.1633  0.2909
30947W        W46078   6.440   4.334  14.579  0.0475  0.0644 -0.1475
30948W        W46079   9.479  15.481  15.072  0.1956  0.1660  0.1341
30949W        W46080   5.003  14.523   5.029  0.0960  0.1955 -0.2633
30950W        W46081   9.094  13.016  13.430  0.0575  0.3760 -0.2386
30951W        W46082   5.519   5.496   2.739 -0.0773  0.0666 -0.3376
30952W        W46083  10.121   7.958   5.286  0.1286 -0.0748  0.1500
30953W        W46084  10.452  12.570   3.747 -0.0065  0.1900 -0.2084
30954W        W46085   3.078   4.204  15.108  0.3152 -0.2991 -0.0163
30955W        W46086   8.304   0.940  15.706 -0.2981  0.1143  0.3257
30956W        W46087   9.363  16.769   2.218 -0.0771  0.2425 -0.0668
30957W        W46088  10.759   1.053   3.329 -0.2133  0.2227  0.3568
30958W        W46089  16.656  10.101   2.683 -0.0333  0.1090  0.0082
30959W        W46090   3.309  14.458   4.213  0.0679  0.6811  0.3889
30960W        W46091   6.681   5.410  12.298  0.1334  0.1651 -0.1537
30961W        W46092   3.493   8.552  11.826  0.4754 -0.2074 -0.3189
30962W        W46093   3.682   8.370   2.408 -0.3380 -0.0110 -0.0944
30963W        W46094   8.309  16.782   0.114 -0.0672  0.2914 -0.0953
30964W        W46095  13.281   2.564   1.345 -0.0821  0.1429 -0.1588
30965W        W46096   4.768  13.670  11.164  0.0335  0.0325  0.3118
30966W        W46097   6.830   5.824  13.490 -0.1008  0.0659  0.0196
30967W        W46098  16.587  10.250  10.892  0.0412 -0.0506  0.0918
30968W        W46099   0.274  16.402  15.312  0.2649 -0.1671  0.1347
30969W        W46100   0.685  17.952   0.527 -0.0360  0.2219  0.0941
30970W        W46101  17.477   6.772   1.265  0.0364 -0.0423 -0.0408
30971W        W46102   8.087   7.125   4.851  0.1823 -0.0200  0.2855
30972W        W46103   9.406  13.964   1.992  0.2749 -0.1751  0.0856
30973W        W46104  11.683   8.512  15.258  0.0121 -0.0623  0.0211
30974W        W46105  17.831   7.795   2.726  0.3309 -0.1006  0.0240
30975W        W46106  12.145  18.162   5.607 -0.1074  0.3169 -0.1772
30976W        W46107  11.384  14.495   3.633  0.0142 -0.2836 -0.0834
30977W        W46108  17.267   4.984  11.718  0.0259 -0.1026  0.2111
30978W        W46109   6.861  16.547  14.389 -0.0971  0.0026  0.1290
30979W        W46110  14.529  15.071   4.608 -0.4408  0.1310  0.0917
30980W        W46111  14.763  12.940  14.361  0.0979  0.2667  0.1665
30981W        W46112   1.357  15.725  12.412  0.0996 -0.1800 -0.1251
30982W        W46113  14.330   1.368   3.448  0.4667 -0.1092 -0.1687
30983W        W46114   9.318   2.133  12.697 -0.0751 -0.2147  0.0575
30984W        W46115   0.899  11.217   3.398 -0.0466 -0.4464 -0.0228
30985W        W46116   3.478   1.331   0.843 -0.1339 -0.0545 -0.2616
30986W        W46117  15.118  17.124   3.589 -0.0581  0.2300  0.0623
30987W        W46118  10.437   3.921  12.709 -0.2067  0.1314  0.0793
30988W        W46119   7.928   1.696  15.787  0.2002 -0.0211 -0.2897
30989W        W46120   9.947  15.922   3.289  0.2678 -0.2028  0.0988
30990W        W46121  15.240   2.486   0.280 -0.3421  0.5081 -0.1033
30991W        W46122   8.286   5.775  11.740  0.1900  0.2757  0.0695
30992W        W46123   6.833  18.213  11.087  0.3577 -0.2152  0.1898
30993W        W46124   4.724   4.734   0.044  0.0451 -0.0351  0.2518
30994W        W46125  14.912  17.136  11.541  0.2628  0.3770 -0.0978
30995W        W46126   1.033   2.569  12.683 -0.2019 -0.1602 -0.1833
30996W        W46127  10.498   6.729   2.128  0.0942  0.1884 -0.1240
30997W        W46128   4.248   1.877   5.133 -0.1022  0.0155 -0.0623
30998W        W46129   4.703  14.051  13.950  0.0660 -0.3217 -0.1476
30999W        W46130   7.019  17.001   2.699 -0.1377  0.2388 -0.2784
31000W        W46131   4.892   2.746   3.518  0.0455 -0.1170  0.1251
31001W        W46132   3.064   3.930  11.187 -0.0937  0.1200 -0.2302
31002W        W46133  15.478  14.322   2.150  0.0630  0.1279 -0.0425
31003W        W46134   6.632   9.260   2.406 -0.0490  0.0548 -0.1133
31004W        W46135   2.094  17.860  10.618  0.1247  0.2326  0.0691
31005W        W46136   3.050   5.146  10.864 -0.1368  0.1829 -0.0752
31006W        W46137   8.818   4.503   2.437  0.2565  0.0360  0.2343
31007W        W46138   1.558   2.846   3.715  0.3101  0.1075  0.1593
31008W        W46139   4.283  17.972  13.103 -0.2170  0.1832 -0.2373
31009W        W46140  13.739  13.584  12.187 -0.0938 -0.1891 -0.0981
31010W        W46141  16.651  10.574   3.916 -0.0463  0.0838  0.2468
31011W        W46142   1.452   2.676  14.901 -0.2018 -0.3066 -0.2776
31012W        W46143   2.543  10.294  10.520 -0.0392 -0.0703  0.2800
31013W        W46144   7.612  11.588  11.467 -0.2581  0.0495 -0.2332
31014W        W46145   3.789   6.489   4.386 -0.0458 -0.0613  0.0425
31015W        W46146  15.966   3.200   1.880 -0.0716  0.4670 -0.0511
31016W        W46147   1.405   7.848   3.563 -0.2981  0.2568 -0.0533
31017W        W46148  13.428   6.221  11.481 -0.0898 -0.1901  0.1295
31018W        W46149   6.761  16.196   5.664  0.0171  0.0763  0.1177
31019W        W46150  15.949   7.339   4.471  0.2146  0.1756  0.0492
31020W        W46151   6.341  11.405  13.646 -0.0328 -0.0416  0.1848
31021W        W46152   7.154   1.076   3.804 -0.1401 -0.0257 -0.3915
31022W        W46153  18.269   8.710   2.526 -0.2291  0.2329  0.0074
31023W        W46154   4.669   3.376  11.197 -0.2599  0.0060  0.0230
31024W        W46155  15.127   5.845   4.851 -0.3197 -0.0229 -0.1263
31025W        W46156   8.552   8.166  15.507  0.1681  0.1408 -0.1190
31026W        W46157  15.214   3.186   1.988 -0.0469  0.2418 -0.2301
31027W        W46158  17.665   3.447  14.763  0.1858 -0.3796  0.0115
31028W        W46159  18.301   3.502  15.103 -0.2238  0.0968 -0.4649
31029W        W46160   6.225  12.094  13.525 -0.3372  0.3111 -0.0389
31030W        W46161   4.298  13.486  12.350 -0.2098 -0.0568  0.3182
31031W        W46162  17.385   6.453  11.926 -0.3022 -0.1910  0.2123
31032W        W46163   8.247  17.317  13.022 -0.0420  0.1497 -0.0828
31033W        W46164  10.413  17.135  10.454  0.2037  0.1054 -0.0455
31034W        W46165   8.096  12.907   0.343  0.0109 -0.2111  0.1851
31035W        W46166  14.181   4.780   3.278 -0.1653  0.0932 -0.0086
31036W        W46167  15.468   2.985  15.450 -0.0941  0.0764  0.0121
31037W        W46168  16.895   8.026  10.137 -0.2418 -0.1134  0.1702
31038W        W46169  10.810   5.404   2.354 -0.0456 -0.0242 -0.0085
31039W        W46170   9.227   5.278   2.363  0.1370 -0.2564  0.1360
31040W        W46171   8.547  15.038   3.561  0.0192  0.0198  0.0401
31041W        W46172  12.618   8.149  12.784 -0.1810  0.1320 -0.1256
31042W        W46173  13.684   5.664   1.565  0.0107  0.1818  0.1455
31043W        W46174   5.693   5.276   1.798  0.1598 -0.0263 -0.0950
31044W        W46175  13.465  14.733   2.832  0.2370  0.1421 -0.5205
31045W        W46176   4.051   7.439   4.731  0.3602  0.2220  0.2751
31046W        W46177  11.608   3.416  13.869 -0.3844  0.0386  0.0135
31047W        W46178  12.153  17.236   1.363  0.1073 -0.0071  0.0726
31048W        W46179   9.232   4.397  15.767 -0.1324 -0.0358 -0.0504
31049W        W46180  11.377   6.598  16.075 -0.0466 -0.1662 -0.1042
31050W        W46181   3.271  14.903  13.435 -0.1251  0.0344 -0.2576
31051W        W46182   9.807  17.751   4.881 -0.2756 -0.0881 -0.0142
31052W        W46183   7.893  12.129   0.603 -0.0769 -0.2820 -0.1256
31053W        W46184   8.533   3.346   4.171 -0.2725 -0.0718 -0.0118
31054W        W46185   3.689  15.070  13.216 -0.0882  0.0209  0.2462
31055W        W46186  13.128   7.913  15.644  0.0603 -0.2242  0.0339
31056W        W46187   7.385   2.609  11.184  0.2074  0.1020 -0.2172
31057W        W46188   4.030  12.469   5.036 -0.0459  0.1846 -0.1334
31058W        W46189  11.204  12.581   1.245 -0.0408  0.0493 -0.0448
31059W        W46190   6.897   2.426   3.251 -0.0983 -0.2720 -0.1878
31060W        W46191   3.496  17.725  13.602 -0.0276 -0.0898  0.0917
31061W        W46192  16.209  10.138  12.181  0.1655 -0.0875 -0.2074
31062W        W46193   8.643  11.783   3.001 -0.1126 -0.1195 -0.0562
31063W        W46194   2.888  10.552   3.480 -0.1475 -0.0264  0.0349
31064W        W46195  16.802  12.282  15.283  0.1361  0.2082  0.1657
31065W        W46196  10.662   5.411   5.346  0.1964 -0.4093 -0.0477
31066W        W46197  10.448  11.141  14.270 -0.1618 -0.2115  0.1694
31067W        W46198  12.579   4.387   4.080 -0.1971  0.3849 -0.1069
31068W        W46199   8.085  12.463   3.973 -0.1525 -0.2945  0.1114
31069W        W46200  17.996  15.381  15.863  0.4047  0.3551 -0.1233
31070W        W46201  17.968  11.116   3.999  0.2175  0.1924  0.1825
31071W        W46202   1.349  12.743  15.224  0.1749 -0.1210 -0.1978
31072W        W46203   4.558  14.140  13.371  0.4121 -0.2471  0.0268
31073W        W46204  13.765  10.067   0.301  0.2061  0.1607 -0.1016
31074W        W46205   7.684  10.909  11.802 -0.1327  0.1768 -0.0230
31075W        W46206  11.237   6.273   6.862 -0.2556  0.0749  0.0128
31076W        W46207   5.196   8.174   4.794 -0.0294  0.0338  0.5040
31077W        W46208  10.445   6.824  11.870  0.3384  0.0249 -0.1450
31078W        W46209   6.970  13.112  12.966 -0.1807  0.0164 -0.1111
31079W        W46210   3.345  15.602   1.225 -0.1893 -0.1811  0.3128
31080W        W46211   3.934  13.946  12.620  0.0966  0.0714  0.0303
31081W        W46212  16.924   7.790  13.951  0.1853 -0.0795  0.1246
31082W        W46213   4.455  17.724   4.881 -0.0502  0.2042  0.1965
31083W        W46214  18.447   0.211   3.038 -0.1044 -0.2376  0.1339
31084W        W46215   6.723   9.881  13.845  0.1219 -0.0474  0.0904
31085W        W46216   8.416   6.850  10.807  0.0228  0.1495  0.0017
31086W        W46217  10.571   4.348  12.489 -0.3664  0.1148 -0.0041
31087W        W46218   6.322   4.743   0.361 -0.4271  0.1775 -0.2724
31088W        W46219   8.395  16.530  15.712 -0.1167 -0.0044  0.1438
31089W        W46220   4.530   7.850   6.415 -0.1737  0.3071  0.1608
31090W        W46221  13.477  12.872   0.827  0.2589 -0.4973 -0.0295
31091W        W46222   6.336   1.239   2.597 -0.0253  0.3353 -0.2029
31092W        W46223  12.214   9.887  15.963 -0.0245 -0.5100  0.2750
31093W        W46224   5.956   2.707   1.438 -0.2119 -0.1469  0.3022
31094W        W46225   8.166  17.370   1.406  0.1045  0.1873  0.2314
31095W        W46226   7.218  13.770   5.370  0.1381 -0.2761  0.0241
31096W        W46227   8.935   2.940   5.281 -0.1140 -0.3351 -0.1191
31097W        W46228   7.403  17.004  12.709  0.0844  0.4464  0.1237
31098W        W46229  16.692   2.027   1.401  0.4569  0.0709 -0.0451
31099W        W46230  13.016  11.087   4.156 -0.0160 -0.4836 -0.3484
31100W        W46231   3.166  11.965  13.838 -0.2320  0.1321  0.0614
31101W        W46232   2.467  13.631  15.912  0.0822  0.1832  0.2268
31102W        W46233  15.165   2.520  15.364  0.1845 -0.0390  0.1270
31103W        W46234   1.005   5.832   5.045 -0.0904 -0.1939 -0.0828
31104W        W46235  14.901  17.047   5.411 -0.3655  0.0902  0.2233
31105W        W46236  12.598   4.767  12.418  0.1255  0.2028  0.0742
31106W        W46237  14.579  14.253  13.196 -0.2453 -0.0153  0.1227
31107W        W46238  13.165   3.247  15.275 -0.1798 -0.2682 -0.1586
31108W        W46239  12.963   4.813  15.804  0.0404  0.2548 -0.0943
31109W        W46240  15.554  11.104  11.622 -0.1039 -0.1298 -0.0703
31110W        W46241   2.044  13.740   4.930 -0.1461  0.1847 -0.0312
31111W        W46242   8.171   9.020   4.522  0.3240 -0.3679 -0.1439
31112W        W46243   0.199  10.277   0.318  0.1916  0.1496 -0.2461
31113W        W46244  10.928  13.424  13.112 -0.0496  0.1354  0.1100
31114W        W46245  12.060  16.110   3.291 -0.0823 -0.1502  0.1897
31115W        W46246  12.991   9.022   1.011  0.3634 -0.1318  0.1237
31116W        W46247   4.654  10.520   3.164 -0.1808  0.0361 -0.0239
31117W        W46248   6.273   1.898  14.386  0.0546 -0.0730  0.0038
31118W        W46249   9.531  13.818   3.300 -0.1643 -0.3102  0.0902
31119W        W46250  15.587  10.031   3.349  0.1645 -0.1294  0.1056
31120W        W46251   3.199   6.088  14.734  0.0182 -0.1542  0.2886
31121W        W46252  12.554   6.680  14.065  0.0003  0.0338 -0.3324
31122W        W46253  11.526  13.383   6.046 -0.1501  0.2255 -0.1329
31123W        W46254   0.374  10.052   0.766  0.1194 -0.0459 -0.1124
31124W        W46255  12.217   7.267   2.182  0.4651 -0.1697  0.1007
31125W        W46256   9.635  11.450   6.317  0.0480  0.0671  0.1526
31126W        W46257  13.264  16.542  12.848  0.1611  0.0854 -0.1218
31127W        W46258   8.736  17.567  11.755  0.2463 -0.0252  0.1494
31128W        W46259  13.156   6.192   2.140  0.1839  0.0255 -0.1397
31129W        W46260   8.813   6.966   5.335 -0.0469  0.3470 -0.1358
31130W        W46261  10.500   3.853   0.209  0.0852 -0.1472  0.0560
31131W        W46262  16.898  13.851  15.555  0.3351  0.2752  0.2324
31132W        W46263   5.266  11.672   3.362  0.0422 -0.1775  0.3932
31133W        W46264   3.418  17.390  11.044 -0.2438 -0.2222  0.0548
31134W        W46265  16.892   4.727   3.597  0.2124 -0.1364 -0.1221
31135W        W46266  15.405   5.846   1.032 -0.1322  0.0917  0.3072
31136W        W46267   5.075   2.796   4.035 -0.0432 -0.4141  0.2887
31137W        W46268   3.154  16.283  15.703  0.1365 -0.3082  0.1947
31138W        W46269  12.681   7.312   4.946  0.0914 -0.0349 -0.2433
31139W        W46270   2.662   9.012  11.270 -0.0997  0.3194 -0.1258
31140W        W46271   4.613  12.194   0.200 -0.0715  0.2015 -0.1019
31141W        W46272  12.537   5.991  13.651  0.2532  0.0184  0.0043
31142W        W46273  17.392  16.726  15.303 -0.0317 -0.2293 -0.3322
31143W        W46274  14.251  13.621   2.699  0.0572 -0.1308 -0.2051
31144W        W46275   7.298   7.954  15.574  0.3710 -0.3376 -0.2793
31145W        W46276  12.665   9.973   1.205 -0.0967 -0.1267  0.2654
31146W        W46277   0.830  16.466  14.150 -0.1124  0.0865  0.2069
31147W        W46278  15.663   0.371  11.731 -0.2800  0.0994 -0.2931
31148W        W46279   3.819  10.949   2.485  0.1152 -0.0131 -0.1982
31149W        W46280  18.473   4.348   1.478 -0.0666 -0.1277 -0.2554
31150W        W46281   5.813  14.324  12.070  0.0292  0.0603 -0.2276
31151W        W46282   9.463   0.083  15.766  0.2577  0.3816 -0.2345
31152W        W46283  14.709   9.305   6.381 -0.1901 -0.2141  0.2722
31153W        W46284  18.245   6.460   1.338 -0.3307  0.1771 -0.2478
31154W        W46285   5.106  14.791  13.442 -0.0200  0.3255 -0.2154
31155W        W46286   8.043   4.086   4.657  0.1146  0.2216 -0.2228
31156W        W46287   4.554  16.939  13.514  0.1607  0.1520  0.1100
31157W        W46288   7.940   3.345  15.241 -0.0994  0.0920 -0.4029
31158W        W46289  16.674  15.432   4.348  0.2677  0.2364 -0.0833
31159W        W46290   1.436   9.595  11.371  0.0589 -0.0289  0.0520
31160W        W46291   6.544   7.264  15.660 -0.2993 -0.1432 -0.1355
31161W        W46292   0.437  13.110  12.868 -0.1448  0.0926  0.0168
31162W        W46293  10.064   7.208   3.807  0.1246  0.1540 -0.5052
31163W        W46294   5.029  13.064   1.645  0.1230  0.1650 -0.0996
31164W        W46295   1.219   5.866   4.056 -0.1956 -0.1882  0.1435
31165W        W46296  13.726   2.424  13.940 -0.0086  0.0489 -0.3827
31166W        W46297   0.734  15.472   3.870  0.2220 -0.0327  0.0645
31167W        W46298  11.233   0.131  14.641  0.0626  0.0934 -0.0588
31168W        W46299  12.287   6.599  11.438 -0.0699 -0.2195  0.3957
31169W        W46300  14.481  15.473   4.919  0.2050 -0.4650 -0.3232
31170W        W46301   8.436  15.746   0.704 -0.3585 -0.1340  0.6194
31171W        W46302   8.328  14.538  12.741 -0.2629 -0.0037  0.1127
31172W        W46303   9.001  17.855   5.313  0.1871 -0.1797 -0.0390
31173W        W46304  11.749   8.209   1.333 -0.1608  0.1516  0.3833
31174W        W46305   3.893   2.168  16.003  0.2200 -0.2712  0.0296
31175W        W46306   7.813  10.426  13.580  0.0877 -0.0416  0.3104
31176W        W46307  10.639  17.420   3.672  0.0163  0.2194 -0.3550
31177W        W46308   2.451  12.032   4.517  0.1789 -0.1848  0.1443
31178W        W46309  12.639   8.681  12.690 -0.0863  0.0650  0.0118
31179W        W46310   1.964  14.829  15.510  0.1647 -0.1595  0.1961
31180W        W46311  12.799   1.797   3.813 -0.1602 -0.3029  0.6453
31181W        W46312   6.712  17.216  15.558 -0.1019  0.2002 -0.0954
31182W        W46313  16.596   1.861  13.695 -0.3097 -0.0592  0.1903
31183W        W46314   8.724   2.230  13.925 -0.0053  0.4496  0.2588
31184W        W46315   4.735   6.185  14.566 -0.1041  0.2543  0.0970
31185W        W46316   1.191  14.911  14.691  0.2620 -0.3106 -0.0628
31186W        W46317  11.651  13.367   1.494  0.1076 -0.2010  0.0928
31187W        W46318  16.977  12.047   5.267  0.0946  0.3887 -0.2780
31188W        W46319   2.917   2.572  13.139  0.1154 -0.2178  0.3574
31189W        W46320   3.353   0.351   1.062  0.0648  0.0557  0.1968
31190W        W46321  16.168  11.885  11.975 -0.0534  0.1775  0.0541
31191W        W46322   2.910  17.597  15.596 -0.1403  0.1363 -0.0933
31192W        W46323   0.001   3.513   2.230 -0.0309  0.1942 -0.0543
31193W        W46324  14.805   3.554   2.002 -0.1210  0.0829 -0.3924
31194W        W46325  11.478  10.062  14.902 -0.1694  0.0821 -0.0415
31195W        W46326   8.362   5.652  13.254  0.2243 -0.5569 -0.3806
31196W        W46327  12.117  10.808  10.728 -0.1108  0.1056  0.0521
31197W        W46328   7.422  12.525   2.696 -0.1196  0.1197  0.1013
31198W        W46329   0.782   3.216  11.336  0.1597 -0.3138 -0.1394
31199W        W46330  16.118   3.598   4.896  0.1861 -0.3380 -0.0410
31200W        W46331  13.780  12.255  12.264 -0.1913  0.3725 -0.2402
31201W        W46332   9.299  11.484  14.507  0.3474 -0.1497 -0.1092
31202W        W46333  11.021  16.025  13.042 -0.1277 -0.0013 -0.0469
31203W        W46334  16.770  13.535  11.310 -0.1692  0.2699  0.0958
31204W        W46335   8.176   5.656  13.809 -0.3186 -0.2115 -0.0732
31205W        W46336  16.876   8.433   2.567 -0.0766 -0.0863 -0.2520
31206W        W46337   2.390   6.479  15.258  0.3870  0.4040  0.1088
31207W        W46338  17.770  16.791  14.313  0.1119  0.1111 -0.3236
31208W        W46339   0.545  16.865   1.746 -0.2466 -0.4290 -0.0094
31209W        W46340  18.078   5.967  13.880 -0.1363  0.3318  0.3123
31210W        W46341   8.114   2.725   1.105 -0.0147  0.0287  0.3196
31211W        W46342   6.783  17.538   2.688 -0.5042  0.1379  0.1224
31212W        W46343  18.258  13.863   3.237  0.2490 -0.0529  0.2869
31213W        W46344  16.007  15.130  14.853 -0.1189 -0.1223 -0.2351
31214W        W46345   1.617   1.963  13.003 -0.2376 -0.3815 -0.2949
31215W        W46346   5.534   0.379   0.234  0.1775 -0.2166 -0.4235
31216W        W46347  17.329  16.417   0.630 -0.1147  0.1793  0.1746
31217W        W46348   3.673   6.697  11.168 -0.1556 -0.0504 -0.0896
31218W        W46349   1.204   2.250  15.675  0.1491  0.1911  0.1066
31219W        W46350   5.204  15.391  13.373  0.0758 -0.2270 -0.0796
31220W        W46351  11.953   9.425  10.757  0.0370 -0.2365  0.1269
31221W        W46352  14.118  16.012  15.512  0.0254  0.1855 -0.0152
31222W        W46353  17.069  15.265   2.698 -0.0705  0.1926 -0.0881
31223W        W46354  13.890  14.083   4.910 -0.1530  0.1459 -0.0505
31224W        W46355  15.019  18.276   2.775  0.0749  0.2977 -0.1818
31225W        W46356   9.625   6.141   0.660 -0.1401 -0.1562  0.3476
31226W        W46357   5.671  16.752   0.714  0.0837 -0.0470  0.1648
31227W        W46358  12.347   2.356  12.708  0.0835 -0.1284 -0.0979
31228W        W46359  14.830  11.567   4.166  0.0370 -0.0949 -0.0801
31229W        W46360   2.829   5.702  11.809 -0.0440  0.1948 -0.1943
31230W        W46361   2.599  14.924   2.299  0.1135  0.1903 -0.1889
31231W        W46362  16.639   5.324   2.709  0.1520 -0.2418 -0.0211
31232W        W46363   9.679  16.401  13.263  0.3221  0.1517 -0.5099
31233W        W46364  17.115  10.763  15.165 -0.2125  0.1792 -0.1245
31234W        W46365  11.498   0.448  13.590  0.0613  0.0777 -0.1697
31235W        W46366  17.272  17.376   1.214 -0.1063  0.0259 -0.3227
31236W        W46367  12.313  14.056   0.855 -0.0455 -0.1213  0.1036
31237W        W46368   3.284  14.863   4.509 -0.2541 -0.0192  0.2019
31238W        W46369  10.987   6.712   2.283 -0.0306  0.0167  0.1148
31239W        W46370   6.548   8.767   5.380  0.2278  0.2124 -0.1260
31240W        W46371   3.324  16.347  12.952 -0.0138 -0.0573  0.0431
31241W        W46372  17.234   9.349   6.040 -0.0996  0.0948  0.1344
31242W        W46373  16.461  10.347   1.830  0.0709 -0.1168 -0.4344
31243W        W46374   6.011   1.296  10.840  0.1853 -0.2989 -0.2125
31244W        W46375   3.872  15.969  10.929 -0.0008  0.1331  0.1192
31245W        W46376  11.450  12.071   2.732 -0.0495  0.1288  0.3860
31246W        W46377  16.915  17.062  14.875 -0.1432  0.1136  0.0297
31247W        W46378   9.446  16.063   0.749  0.2875  0.0513 -0.0726
31248W        W46379   4.485  12.618   5.420  0.0459  0.1227 -0.0191
31249W        W46380   7.164   8.568   4.654 -0.0792 -0.1058 -0.1309
31250W        W46381  14.350  12.225  14.957 -0.1081 -0.4533  0.2002
31251W        W46382  14.262  14.321   2.036 -0.1900 -0.1161  0.1432
31252W        W46383   1.096   7.640   0.929 -0.2689 -0.2740 -0.2687
31253W        W46384  15.183   8.978   2.443  0.0431  0.0920 -0.0885
31254W        W46385  17.904   5.393  13.365 -0.0632  0.0286 -0.1481
31255W        W46386   6.429   7.298   4.593  0.0082  0.0861 -0.0514
31256W        W46387  15.037  14.249   4.686 -0.1367  0.2071  0.2926
31257W        W46388   2.182   8.598   5.131 -0.0837  0.0239  0.0347
31258W        W46389   8.433  17.390   0.105 -0.2843  0.1760  0.3342
31259W        W46390  14.337  15.401  12.216  0.0642 -0.1599  0.1820
31260W        W46391  10.870  17.085  12.256  0.1752  0.1314  0.5265
31261W        W46392   0.594  11.946   4.711  0.3494  0.2942  0.4707
31262W        W46393  10.344   4.205   3.188 -0.2236  0.3339 -0.1328
31263W        W46394  15.616   5.450   5.336 -0.1033 -0.3292  0.0847
31264W        W46395   4.928  14.400  10.565 -0.0028 -0.0827 -0.0201
31265W        W46396   9.694  10.227   1.900 -0.1092  0.0843  0.0966
31266W        W46397  11.900  14.886   4.778 -0.1654  0.3110 -0.1589
31267W        W46398  11.011  14.976   0.145 -0.0010  0.1178  0.0210
31268W        W46399   1.041  10.134  14.260 -0.1505  0.1010  0.0591
31269W        W46400   2.597  11.511   6.193  0.2369 -0.0586  0.0079
31270W        W46401   0.705   0.717  16.105  0.0844  0.1278  0.2191
31271W        W46402  12.002  12.374   2.141 -0.1955  0.0137 -0.0557
31272W        W46403   3.290  12.220  12.396  0.1755 -0.2218  0.3151
31273W        W46404   8.795   6.414  12.833  0.0073  0.1553 -0.1485
31274W        W46405   7.393  11.421  14.698 -0.1130 -0.2505 -0.3455
31275W        W46406  12.772   5.443  15.686 -0.2201  0.0332  0.1407
31276W        W46407   4.349   9.213  10.878 -0.2723  0.3291  0.1501
31277W        W46408   1.018  11.382   2.885  0.2757  0.2842  0.0149
31278W        W46409   7.566  11.758   0.449  0.0530 -0.0643  0.3339
31279W        W46410  15.731  16.283   1.658 -0.1042  0.3846  0.0939
31280W        W46411   6.088  10.877   2.775 -0.0299 -0.1064 -0.0107
31281W        W46412   1.415  14.105   4.627 -0.1376 -0.1050 -0.0372
31282W        W46413  16.373  18.238  10.671 -0.1296 -0.3334 -0.3250
31283W        W46414   7.681  11.474  15.257 -0.2764  0.1755 -0.1750
31284W        W46415  10.332  15.948   4.789 -0.0913  0.3086  0.1512
31285W        W46416  17.139   0.595  11.730 -0.1991  0.0915 -0.1348
31286W        W46417   7.129   0.580  15.825  0.1796  0.0530  0.1011
31287W        W46418  10.361  12.815   4.253 -0.0668 -0.0873 -0.0044
31288W        W46419  15.521  12.382   3.179 -0.0174 -0.0858  0.0420
31289W        W46420   5.698   1.723   3.782 -0.3594 -0.2227  0.1008
31290W        W46421  17.979  15.622   4.595  0.1086 -0.1171  0.1311
31291W        W46422  11.466  15.581   1.188  0.4328  0.1944  0.4538
31292W        W46423   6.438  13.078  12.985  0.1236 -0.0146  0.0031
31293W        W46424   5.523  11.957  13.258  0.3659 -0.1933 -0.1943
31294W        W46425   2.685  18.374   0.053 -0.1555 -0.2684 -0.0888
31295W        W46426  12.023   6.480  13.801 -0.0494 -0.1023  0.2263
31296W        W46427  18.017  13.954  15.994  0.1605  0.1004 -0.1296
31297W        W46428  11.018  14.158  10.226  0.1362  0.1866  0.1917
31298W        W46429   1.946   8.012  15.570 -0.0603 -0.0517  0.1984
31299W        W46430   5.332   7.469   5.921 -0.2249 -0.0914 -0.1374
31300W        W46431  14.254   0.076   2.581 -0.1031  0.1797 -0.0402
31301W        W46432   1.152   9.949   1.323  0.1311  0.0693  0.0710
31302W        W46433  12.525   7.109   1.823 -0.0221 -0.0969 -0.0080
31303W        W46434  17.694  14.450   9.467  0.0822  0.2743  0.2487
31304W        W46435   9.153  11.576  13.850 -0.2805 -0.2142 -0.0704
31305W        W46436   5.817  14.892  13.929 -0.4929 -0.3299  0.0360
31306W        W46437  16.790   2.864   5.531  0.0018 -0.0004  0.1884
31307W        W46438   5.766   6.269   4.428 -0.2191  0.3846 -0.1246
31308W        W46439  13.018   9.133  11.955  0.0864  0.0316  0.0155
31309W        W46440  14.946   0.578   1.044 -0.0742  0.2297  0.1603
31310W        W46441  11.841   3.368   2.475  0.0769  0.1256  0.2911
31311W        W46442  14.534   0.567   0.752 -0.0110  0.4614 -0.2423
31312W        W46443   2.142   2.926   3.899 -0.0266  0.2837 -0.0901
31313W        W46444   4.547  10.841   1.650 -0.0659  0.1747 -0.2254
31314W        W46445  15.967  15.679  11.099 -0.0666  0.0625 -0.0259
31315W        W46446   2.844  12.260   3.569  0.0611  0.1704  0.1126
31316W        W46447  12.002  18.420   3.368  0.0067  0.1806  0.0560
31317W        W46448  12.962  10.204  14.009 -0.0618  0.0148  0.1833
31318W        W46449  15.317  10.310  14.157 -0.1248 -0.2908  0.1311
31319W        W46450  11.932  16.903   1.738 -0.0489  0.0543  0.1998
31320W        W46451   3.460  17.231  14.312  0.1349 -0.0408  0.3026
31321W        W46452  12.360   5.562  13.654  0.1328  0.2153 -0.2329
31322W        W46453  11.591  18.109   1.073 -0.1982  0.3094  0.1974
31323W        W46454   9.991  16.368   0.909  0.1289 -0.1403 -0.1186
31324W        W46455   7.856   6.050  13.806  0.0248  0.2242  0.2756
31325W        W46456   3.157   1.389   4.664  0.2158  0.0802 -0.1256
31326W        W46457   2.931  15.005   4.966  0.0008 -0.0736 -0.3726
31327W        W46458  12.316   4.478  12.087  0.0657 -0.1414  0.1221
31328W        W46459   1.834  16.466   1.807  0.2959 -0.1534 -0.3711
31329W        W46460   3.912   4.246  13.908  0.3282 -0.0636  0.2407
31330W        W46461  13.548   0.514  10.073  0.1087 -0.1719  0.0019
31331W        W46462  15.234   9.997   1.545  0.0359 -0.0289  0.4333
31332W        W46463  11.090  10.208  14.085 -0.0619  0.0024  0.1442
31333W        W46464   0.147   4.175   4.256  0.1774  0.0693  0.0330
31334W        W46465  15.590  10.523  14.826  0.1559  0.1940 -0.2307
31335W        W46466   8.922  18.476   4.311  0.1746 -0.1192 -0.1680
31336W        W46467  15.519  16.523  14.002  0.0989 -0.0306  0.2420
31337W        W46468  16.192  10.784  14.858  0.3005  0.1280 -0.2080
31338W        W46469  13.108   6.126   0.124 -0.1041  0.1728 -0.1480
31339W        W46470   2.491  13.014  14.252 -0.1463  0.1168  0.3145
31340W        W46471   8.626   2.579  12.569  0.0524 -0.1438  0.1562
31341W        W46472   3.017   4.357  12.970 -0.0437 -0.2588  0.1728
31342W        W46473   6.188   4.178   0.417 -0.1442 -0.1090 -0.3581
31343W        W46474   4.681  13.419  11.553 -0.2126  0.1230 -0.1268
31344W        W46475   6.127   0.984   5.028 -0.0922 -0.1810 -0.1205
31345W        W46476   3.637  11.975   3.357  0.2132  0.1526  0.0352
31346W        W46477   4.965   2.959  11.937  0.3053 -0.0226 -0.2811
31347W        W46478   6.610  14.933  10.584 -0.1800 -0.2210  0.1024
31348W        W46479  12.431   5.389  15.305 -0.1149  0.0088  0.0803
31349W        W46480   4.023  10.891   1.650  0.4197  0.0231  0.0983
31350W        W46481   1.374   2.408  10.552  0.2269  0.1909 -0.1515
31351W        W46482   3.504   4.280  13.265  0.1895 -0.2051 -0.0305
31352W        W46483   6.175   3.901  11.806  0.0745  0.0986  0.2710
31353W        W46484  13.698  11.940  14.359 -0.4268 -0.1356  0.1092
31354W        W46485   0.890  13.202   2.872 -0.3356  0.0589 -0.1851
31355W        W46486  16.295  10.898   3.842 -0.0980  0.1404  0.2185
31356W        W46487   0.138  10.734  16.072  0.5022  0.1684  0.2905
31357W        W46488   6.940  15.891  11.197  0.1433 -0.1327  0.2349
31358W        W46489  14.221   5.883   4.892  0.3320 -0.1165 -0.0252
31359W        W46490   9.338  15.656  13.537 -0.0045 -0.0168  0.1436
31360W        W46491   3.113   7.891  14.420  0.0288  0.0129 -0.0055
31361W        W46492  11.730  12.463   5.578  0.0790 -0.1375  0.0510
31362W        W46493   5.203  12.508   1.025 -0.1225 -0.0415  0.1603
31363W        W46494  16.717  15.916  14.348  0.2926  0.1914 -0.1294
31364W        W46495   3.098   7.879  11.982  0.4133  0.3459 -0.0510
31365W        W46496  10.105   2.888  14.879  0.1593  0.4834 -0.1722
31366W        W46497   6.345   1.729   1.040 -0.1428  0.1504  0.0157
31367W        W46498  12.531  13.802   0.395 -0.1480 -0.0838 -0.0000
31368W        W46499  13.639   0.548   6.378  0.1966 -0.0749  0.1838
31369W        W46500  13.757   0.496   4.787 -0.1055  0.4168  0.0629
31370W        W46501  16.000  12.292  13.159  0.0995  0.0520  0.0677
31371W        W46502   4.481   1.365   1.788 -0.3367  0.1963 -0.1011
31372W        W46503  17.988  14.418   1.170 -0.0421  0.1409  0.1155
31373W        W46504   1.091   4.978  14.340 -0.0344 -0.0161  0.0229
31374W        W46505   3.635  16.976  15.093  0.0059 -0.3269  0.1123
31375W        W46506  11.723   1.172   2.526 -0.0907 -0.0659  0.3684
31376W        W46507   6.324  13.270  12.453  0.0450 -0.0667 -0.1987
31377W        W46508  13.584  14.379   3.285 -0.0408  0.1263 -0.0945
31378W        W46509  10.535   3.980  10.768  0.0001  0.1984  0.0495
31379W        W46510  14.873   0.148  14.235  0.0574  0.1443  0.1300
31380W        W46511   0.677   0.434   3.532  0.0967  0.0246 -0.1894
31381W        W46512  16.966   5.044  14.231 -0.0103 -0.1490 -0.0412
31382W        W46513   1.919   9.809   3.818  0.0110  0.0246 -0.0744
31383W        W46514   7.807   0.104  10.009  0.1125 -0.1250 -0.1546
31384W        W46515   5.028  17.053  14.944 -0.4055 -0.1841  0.0850
31385W        W46516  12.026   3.589  15.316  0.3736  0.3406 -0.2982
31386W        W46517  11.085   7.441   5.518 -0.1139 -0.2622  0.2414
31387W        W46518   1.044  16.909   2.772 -0.2491  0.1016 -0.1634
31388W        W46519  15.006   6.734  14.633  0.2967  0.0595 -0.2836
31389W        W46520  10.568   2.864   6.572 -0.2225  0.1948 -0.2236
31390W        W46521  16.511  12.359  16.001  0.3421 -0.0922 -0.2535
31391W        W46522  16.587  15.183   0.969 -0.2570 -0.1850  0.0556
31392W        W46523  12.238   4.820   5.827  0.0821 -0.0229  0.2365
31393W        W46524  10.425  11.101  12.265  0.1096 -0.0383  0.0814
31394W        W46525   8.111   4.323  13.944 -0.0737 -0.0465  0.2150
31395W        W46526   7.799  10.319   5.895  0.2314  0.4368 -0.0686
31396W        W46527  16.969  16.122   3.521 -0.0769 -0.0343  0.4399
31397W        W46528  13.413   1.731   4.150 -0.2396 -0.0715  0.0480
31398W        W46529   3.695  12.985  12.464 -0.5024  0.1753 -0.0847
31399W        W46530   7.299   6.583  14.780 -0.0148  0.1805 -0.2095
31400W        W46531   3.710  12.346   5.442  0.2944  0.2189 -0.1663
31401W        W46532  17.215   2.978  10.399  0.2144 -0.0497  0.0975
31402W        W46533  17.701   4.796   4.927  0.1252 -0.1890  0.3832
31403W        W46534   7.692   0.552   4.246  0.0956  0.3039 -0.2452
31404W        W46535   4.643   2.755   2.099 -0.1572 -0.2861  0.0502
31405W        W46536  12.758  10.864   1.196 -0.0335  0.0163 -0.0036
31406W        W46537  18.400  13.954  12.695 -0.3453 -0.2636  0.1344
31407W        W46538   7.079  13.526   3.654 -0.0131 -0.1052  0.1045
31408W        W46539  15.418   8.875  10.698  0.0208 -0.4625 -0.0575
31409W        W46540  15.573   1.972   0.438  0.1031 -0.1687 -0.1262
31410W        W46541   2.195  10.136  13.029  0.2653  0.2263  0.1896
31411W        W46542  11.176   9.826   0.132  0.1302 -0.1550  0.3333
31412W        W46543   2.668  15.607   9.534 -0.1477 -0.1602 -0.0331
31413W        W46544   6.198   3.316  11.445 -0.2209 -0.1961 -0.0687
31414W        W46545   7.701   4.692  11.393  0.2880 -0.2024  0.3252
31415W        W46546  13.597  11.718   2.201  0.0935 -0.0251  0.0798
31416W        W46547  10.087  12.569  10.496 -0.2400  0.2567  0.1178
31417W        W46548   7.592   0.691  14.494  0.1969  0.0317 -0.2815
31418W        W46549  13.055   8.089  10.897 -0.0819 -0.0903 -0.2893
31419W        W46550   3.044   1.843  15.843  0.2489 -0.1338 -0.0369
31420W        W46551   7.527   4.167   3.035 -0.1668 -0.4416 -0.0119
31421W        W46552  12.501   0.459   0.393  0.0953  0.1614 -0.1194
31422W        W46553   6.700   0.208   5.960  0.1666 -0.2456 -0.0789
31423W        W46554  14.750  17.739   0.674 -0.0538  0.4533 -0.0603
31424W        W46555  13.667  16.959   2.565  0.0694 -0.0910  0.0102
31425W        W46556   2.307  15.116  13.803 -0.0563 -0.0092 -0.0888
31426W        W46557  18.207  13.582  11.451 -0.1778  0.1000  0.2384
31427W        W46558  17.795   7.204  14.144 -0.1095 -0.0085  0.1294
31428W        W46559   3.700  10.470   0.054  0.2695  0.2483 -0.1975
31429W        W46560  13.591   9.581   5.045 -0.1704  0.0399 -0.4602
31430W        W46561  17.016  12.416  13.913 -0.0054 -0.0395 -0.1471
31431W        W46562  12.190  13.693   3.025  0.4463  0.0546 -0.0166
31432W        W46563   5.587  11.244   5.231 -0.2229 -0.2297 -0.1304
31433W        W46564   3.747   9.060  12.689 -0.0740 -0.2274  0.0593
31434W        W46565  17.772   0.246  15.563 -0.0226 -0.3339 -0.0906
31435W        W46566  15.015  10.418   4.031  0.1838 -0.3342  0.1138
31436W        W46567  13.774   8.634  12.775 -0.2385 -0.1951  0.2063
31437W        W46568   0.279   4.217  11.365  0.2765  0.0791  0.2728
31438W        W46569  11.331  13.777   3.377  0.1276  0.0564  0.6255
31439W        W46570   8.143  15.012  11.568 -0.0837  0.0605  0.6306
31440W        W46571   3.371  13.363  12.388 -0.1302 -0.1673  0.2638
31441W        W46572  17.547   1.366  11.468  0.3142 -0.0236  0.0808
31442W        W46573   9.980  10.430   4.129 -0.1956 -0.0130 -0.1595
31443W        W46574  16.658  13.568   4.521 -0.0981  0.0508 -0.3629
31444W        W46575  17.865   1.010  13.521 -0.1655  0.1136  0.1810
31445W        W46576  14.872   7.789  16.022  0.4403  0.2284 -0.0011
31446W        W46577   6.568  11.787   2.395 -0.4273 -0.2257 -0.1151
31447W        W46578  10.358  10.453  12.960 -0.1669  0.1189  0.0443
31448W        W46579  17.671   1.145  10.222  0.2446 -0.0005  0.2038
31449W        W46580  14.189   1.150  11.215  0.0357 -0.0412  0.2330
31450W        W46581  15.543   8.460  11.770  0.2829  0.2713 -0.1318
31451W        W46582  15.570   0.048   0.162  0.2279  0.0363  0.0061
31452W        W46583   5.582  15.790   1.567  0.2310 -0.0682 -0.1232
31453W        W46584   5.288  14.455   0.120 -0.2611 -0.2145 -0.0946
31454W        W46585  16.623   0.123  10.998 -0.0644 -0.0640 -0.2365
31455W        W46586   3.122   1.588  12.060  0.1154 -0.0187  0.2159
31456W        W46587   6.134   3.959  13.003 -0.2253 -0.1725 -0.0156
31457W        W46588  12.645   0.614  13.965  0.2240  0.0034 -0.3330
31458W        W46589  10.610  11.486   2.743  0.1829 -0.0509 -0.0402
31459W        W46590   0.228  11.464   5.030 -0.0339 -0.1582  0.0623
31460W        W46591  14.650  12.438   2.769 -0.2363  0.2932  0.1392
31461W        W46592  10.663  10.902  13.062  0.0059 -0.0204  0.0966
31462W        W46593   4.934  13.624   4.045 -0.1581  0.2218  0.2739
31463W        W46594   8.286   2.431  13.834 -0.0135  0.1558  0.1085
31464W        W46595   1.098   6.485  14.585 -0.0451  0.1356 -0.0577
31465W        W46596  12.749   7.034   2.746  0.0075 -0.0344 -0.1867
31466W        W46597   2.638  11.559   1.150 -0.2225 -0.2954  0.1782
31467W        W46598   4.382   7.852   5.940 -0.0750 -0.0294  0.1687
31468W        W46599   9.199   6.971   5.592 -0.1835 -0.0405 -0.1118
31469W        W46600   1.306  14.583   5.516  0.1852 -0.0012  0.2153
31470W        W46601   9.442   4.159   0.783  0.1918 -0.0220 -0.1083
31471W        W46602   6.119  12.039   4.925  0.0596 -0.1470 -0.1331
31472W        W46603  16.318   4.274   2.806  0.0195 -0.3158 -0.0967
31473W        W46604   4.649   7.702  14.692 -0.2351 -0.1496  0.0735
31474W        W46605   2.996   9.271   1.454  0.1577  0.0344  0.1246
31475W        W46606  17.641   4.538  11.000  0.0184  0.1862  0.0625
31476W        W46607   5.842   5.835   2.222  0.1955 -0.0527 -0.0774
31477W        W46608   8.817  13.099  15.337  0.0280  0.0485 -0.2509
31478W        W46609   7.025  10.559   3.905  0.0486  0.1057 -0.0249
31479W        W46610  14.081   1.704  12.558 -0.0906 -0.2100  0.0008
31480W        W46611  15.522   7.864  11.973  0.0776 -0.3223  0.2444
31481W        W46612   8.609   4.796   4.162  0.0198 -0.2867 -0.1037
31482W        W46613   7.473   7.862   3.460  0.0871  0.1423 -0.1996
31483W        W46614   8.243  16.409   4.359  0.1903  0.2034 -0.0445
31484W        W46615   7.401  15.829  14.846  0.2004 -0.0439  0.2510
31485W        W46616   5.989  12.315   2.959 -0.1338  0.1510  0.2931
31486W        W46617   6.149  17.169   4.024  0.0265  0.1423 -0.1341
31487W        W46618   5.682   1.096   4.714 -0.1213 -0.0716  0.0647
31488W        W46619  15.952  15.836  13.464  0.0194 -0.4272  0.2191
31489W        W46620  14.825   6.502  15.120 -0.1172  0.0371 -0.2257
31490W        W46621  14.447  12.281  15.546  0.4845 -0.0936  0.5063
31491W        W46622   6.573   9.162   5.665 -0.0738  0.1215  0.0749
31492W        W46623   5.165  17.658  11.096  0.1923  0.0610  0.1179
31493W        W46624   9.333   5.269   1.045 -0.0339  0.3461  0.0649
31494W        W46625   0.964   5.997   3.552  0.1275 -0.0140 -0.0688
31495W        W46626   1.008  17.927   3.543  0.1180  0.1029 -0.0999
31496W        W46627   2.150  16.220  12.554 -0.0610 -0.2695 -0.0104
31497W        W46628   4.563  17.628   1.069  0.2213 -0.0729 -0.0551
31498W        W46629  10.488   7.848  12.057 -0.2326  0.2092  0.0138
31499W        W46630   1.324   8.163  12.183  0.2530 -0.0695  0.1312
31500W        W46631  16.336   9.649  13.860 -0.0132 -0.0776  0.2668
31501W        W46632  11.658   0.257  14.921 -0.2759  0.2494 -0.1288
31502W        W46633   1.396  13.985   0.562  0.0852  0.2632  0.2042
31503W        W46634  14.769   8.589  12.832  0.0277 -0.1614  0.2090
31504W        W46635  16.373   1.734  12.901 -0.3548  0.2292 -0.1943
31505W        W46636  16.689   8.726  14.231  0.1591 -0.2829  0.3374
31506W        W46637   2.375  15.918  11.707  0.0058  0.0758  0.0252
31507W        W46638  18.229  15.727  12.344 -0.2612 -0.3199 -0.2455
31508W        W46639  13.187  14.739   3.324 -0.0575 -0.0228 -0.1058
31509W        W46640  15.432  17.408  14.764 -0.1888 -0.2901 -0.2122
31510W        W46641   2.982   4.155   1.675 -0.0976  0.2742 -0.3480
31511W        W46642   7.684  10.518  11.174  0.2990 -0.4433 -0.0560
31512W        W46643   4.238   7.718  10.336  0.3370  0.0015  0.0169
31513W        W46644   8.382  13.430   4.187 -0.0591 -0.2275 -0.2508
31514W        W46645  12.179  15.449  13.130  0.0068  0.3156 -0.1563
31515W        W46646  17.300  15.152  14.209 -0.0179  0.0046 -0.0799
31516W        W46647   7.448  13.969  12.802  0.1183 -0.0750 -0.2159
31517W        W46648   8.258  16.297  13.016 -0.0314 -0.1626  0.2926
31518W        W46649   0.719  14.703  15.519  0.0568 -0.1048  0.2147
31519W        W46650   1.851  17.527  15.945 -0.0628 -0.0419 -0.2062
31520W        W46651  10.791  12.170   1.468 -0.0886  0.0027 -0.1272
31521W        W46652   7.214  15.958  13.084 -0.1051  0.1536  0.2593
31522W        W46653  14.544   7.598   4.204 -0.3041 -0.2398 -0.0014
31523W        W46654   2.243  17.864  13.199  0.0034 -0.0144 -0.3218
31524W        W46655  16.422   4.754  11.679  0.0571  0.1074 -0.2429
31525W        W46656   4.588  11.904   2.626 -0.0015 -0.1880 -0.2402
31526W        W46657  10.419   4.072   3.844  0.2176  0.1655  0.0533
31527W        W46658  13.220   2.205   1.026  0.1130  0.0967 -0.0918
31528W        W46659  17.439  17.899  10.887 -0.1824  0.0128 -0.1791
31529W        W46660  13.114  18.358  14.298 -0.1611 -0.2294 -0.2204
31530W        W46661   4.542   1.468  15.663  0.1112 -0.0619  0.0754
31531W        W46662  14.628   8.094   5.889  0.3424  0.1898  0.0890
31532W        W46663  10.611  15.357  12.744  0.0739 -0.1419 -0.0519
31533W        W46664   8.441  15.746  13.298 -0.0772  0.0798 -0.4214
31534W        W46665  16.012   3.323   5.523  0.0315 -0.0167  0.0601
31535W        W46666   5.581   0.276  14.713 -0.4975 -0.0806 -0.1014
31536W        W46667   4.572  16.953   9.806 -0.0787 -0.4559 -0.0545
31537W        W46668   1.581   0.137  14.168  0.3045  0.2222  0.1044
31538W        W46669  11.298   9.839  13.787  0.1587  0.1328  0.2204
31539W        W46670   9.864   7.411   2.323 -0.0461 -0.2196  0.0551
31540W        W46671   9.047  15.580  11.717 -0.0404 -0.2052  0.3335
31541W        W46672   0.466  15.188  13.764  0.0437  0.2007 -0.3982
31542W        W46673   9.418   4.596  13.706  0.0236  0.3772 -0.1138
31543W        W46674  13.616   5.197  13.042  0.1589 -0.4250 -0.1124
31544W        W46675   7.957  14.206   1.956 -0.4322  0.0401 -0.3347
31545W        W46676  16.065   8.774  15.874  0.0156 -0.2002 -0.1644
31546W        W46677   5.130   2.342  13.651  0.0959  0.0277  0.0632
31547W        W46678  16.634  16.628  12.168 -0.1572  0.0049 -0.1688
31548W        W46679  16.200  11.363  12.081 -0.0177 -0.2981 -0.0252
31549W        W46680  18.141  18.374  15.741 -0.1485 -0.1327  0.2318
31550W        W46681  11.527   8.684  11.114  0.1559 -0.0546  0.1699
31551W        W46682   9.658   7.257  15.700 -0.0143  0.0121  0.0971
31552W        W46683   0.520   8.091  12.272  0.0191  0.1153  0.2166
31553W        W46684   9.733   2.859  13.196  0.0776 -0.0859 -0.0381
31554W        W46685  15.052   2.666   5.027  0.0289  0.1598  0.3436
31555W        W46686  12.384  12.233  13.683  0.1167  0.1111  0.0104
31556W        W46687   5.939   6.078   0.782  0.0635  0.1794  0.1673
31557W        W46688  13.386  16.463  15.251 -0.2028  0.2021  0.3761
31558W        W46689   6.668   0.130   2.385 -0.1170  0.0268 -0.2034
31559W        W46690   0.238  16.448  11.938 -0.0532 -0.1876  0.0176
31560W        W46691   6.799   3.687   2.779 -0.1079  0.0936 -0.2539
31561W        W46692   1.261  11.282   1.453  0.0255 -0.2261  0.3660
31562W        W46693  18.330   3.661   0.936 -0.0528  0.3375  0.0272
31563W        W46694  11.406   2.055   1.893 -0.2276 -0.0381 -0.3868
31564W        W46695   5.480   7.421   1.086 -0.0962  0.1757  0.0359
31565W        W46696  12.090   1.981   0.057 -0.1772  0.0864 -0.0836
31566W        W46697   9.045   3.493  14.525  0.3440  0.0394  0.1598
31567W        W46698   2.751   2.012   0.638 -0.3795  0.0082  0.3673
31568W        W46699   5.928  17.013  15.858 -0.1709 -0.1844 -0.0785
31569W        W46700  15.847   8.767  13.672 -0.0021  0.1679  0.2780
31570W        W46701  15.800  13.467   3.811  0.4534  0.0799 -0.0221
31571W        W46702  16.788  18.143  13.105  0.1019 -0.4383  0.0704
31572W        W46703   1.159  10.924   1.794 -0.0442  0.1452 -0.0582
31573W        W46704   1.884  16.710  13.466  0.1776  0.1276  0.2260
31574W        W46705  11.596   1.899  14.436  0.0094 -0.0234  0.3125
31575W        W46706  10.046   5.335  12.752  0.1564 -0.0669 -0.0502
31576W        W46707  12.691  14.494  15.056  0.1554  0.1146  0.0507
31577W        W46708   3.834  12.926   4.997  0.1194  0.0506 -0.2907
31578W        W46709   9.710  10.287  13.559 -0.0081 -0.0220  0.1843
31579W        W46710  12.038   8.091   1.751 -0.1061 -0.0317  0.2008
31580W        W46711   6.723  12.001   3.661  0.3910  0.1093 -0.2558
31581W        W46712   3.278   6.892  11.009  0.3021 -0.0179 -0.0153
31582W        W46713   4.046   8.774  12.459 -0.0185 -0.0679 -0.0570
31583W        W46714   1.821   5.769  11.167 -0.3456  0.3361 -0.0694
31584W        W46715  11.083   7.418  13.658 -0.1538  0.0173 -0.1402
31585W        W46716   3.323   0.223  12.200  0.0557 -0.3891 -0.0830
31586W        W46717   7.575   2.150  13.009 -0.0357  0.2228 -0.2930
31587W        W46718   4.358  13.316  11.015  0.0613  0.1506  0.1503
31588W        W46719  12.838   8.406  11.426  0.0868 -0.0568  0.1581
31589W        W46720   9.926   7.350   1.793 -0.3223  0.0646  0.0883
31590W        W46721   5.845   5.855  11.611  0.0446  0.0394  0.1968
31591W        W46722   2.346  16.739  15.437  0.2970 -0.0461  0.2527
31592W        W46723   3.077   4.619  13.424 -0.2321 -0.0014  0.0066
31593W        W46724   5.237  10.529   5.421  0.1214 -0.0309  0.1792
31594W        W46725   1.312   3.599   4.458 -0.3667 -0.0176  0.0428
31595W        W46726   8.336   3.167  13.173 -0.2020  0.0246 -0.3737
31596W        W46727  16.461   3.208  15.664 -0.0890  0.2499  0.0728
31597W        W46728   8.449   3.373   3.075 -0.3785 -0.0564  0.0310
31598W        W46729  16.283   3.458  13.397  0.1724 -0.3121  0.0845
31599W        W46730  18.298  10.908   1.095 -0.0324  0.0927 -0.0832
31600W        W46731   9.385   4.762  14.376 -0.0826 -0.3980 -0.1901
31601W        W46732   5.638   0.227   4.142  0.2882 -0.0068 -0.2011
31602W        W46733   4.700  16.263   2.409 -0.1037 -0.0701  0.1437
31603W        W46734  12.847  13.334   4.778 -0.1706  0.0522 -0.1350
31604W        W46735   3.079  13.225  13.344  0.0416 -0.2652  0.0522
31605W        W46736   3.074  16.655   3.987  0.0930  0.0851  0.1725
31606W        W46737  17.529   5.647  15.219 -0.1007 -0.0659 -0.3087
31607W        W46738   2.547   4.809  15.139 -0.1317  0.0098 -0.1257
31608W        W46739   8.631   8.640  12.609 -0.0995  0.1973 -0.0146
31609W        W46740   2.572   8.565   5.484 -0.1673  0.0375  0.1123
31610W        W46741  11.302   2.934   0.763  0.2128 -0.2563  0.0203
31611W        W46742   0.291  15.171  11.537  0.2064  0.1173 -0.0120
31612W        W46743  10.829   6.460   3.846  0.1964  0.2412  0.2219
31613W        W46744   4.263  13.528  15.293  0.2344 -0.1333 -0.0006
31614W        W46745  13.119   4.368   0.700 -0.1295  0.3419 -0.2252
31615W        W46746   4.081   1.120   4.491  0.1577  0.0235 -0.1940
31616W        W46747   4.047   9.022  11.225  0.0490 -0.0201  0.2433
31617W        W46748   4.033   6.589  12.087 -0.1451  0.1372 -0.1139
31618W        W46749   7.264   3.950  14.015 -0.1062  0.1911  0.1562
31619W        W46750   2.881  17.096   1.228 -0.2316 -0.2856  0.1057
31620W        W46751   0.877  16.735   3.903  0.0139  0.2599  0.2117
31621W        W46752   3.257   5.339  12.408  0.3574 -0.0404 -0.2714
31622W        W46753   5.825   3.155  15.756 -0.0310  0.0118  0.0798
31623W        W46754   0.371   5.592   0.306 -0.2628 -0.2216 -0.2465
31624W        W46755   3.057  15.902   0.973  0.1753 -0.0515 -0.2015
31625W        W46756   0.169  14.408   2.857  0.2318 -0.0143 -0.1006
31626W        W46757   5.414   5.297  14.582 -0.0772 -0.0975 -0.1313
31627W        W46758  11.572   4.137   5.695 -0.1237  0.0212 -0.1753
31628W        W46759  15.216  17.795  10.992  0.2147  0.2112  0.0666
31629W        W46760  17.840   0.679  11.237  0.4085  0.0686 -0.1215
31630W        W46761  15.247  16.440   0.678  0.4662 -0.1445  0.1535
31631W        W46762   6.455   9.879  10.991  0.1269 -0.1569  0.2260
31632W        W46763   8.906  15.498  12.756 -0.0637  0.1536  0.1861
31633W        W46764   4.981   9.835  11.961  0.1774 -0.2290  0.0133
31634W        W46765   1.812  13.070   2.611  0.0476 -0.1233  0.0060
31635W        W46766   4.859  11.770   3.011  0.0034 -0.2827  0.0724
31636W        W46767   4.091   5.997   2.245  0.0812 -0.0577 -0.2096
31637W        W46768  10.165  14.974  12.281  0.1072 -0.0383 -0.0093
31638W        W46769   2.270   4.683   2.624 -0.0873 -0.1818 -0.1971
31639W        W46770   9.994  10.346   3.498 -0.3335  0.0577 -0.0508
31640W        W46771   4.913  13.440   4.870 -0.1491  0.2569 -0.0175
31641W        W46772  12.996   6.046  11.480  0.1239  0.4682 -0.1686
31642W        W46773   9.246   0.552  14.604  0.0879  0.0362 -0.3080
31643W        W46774   1.439  13.035  12.858  0.2078  0.2420  0.1968
31644W        W46775   5.245   2.244  11.600 -0.1947 -0.1087 -0.2537
31645W        W46776   3.493   0.910   0.472  0.1078 -0.2234  0.0778
31646W        W46777  16.543  11.086  15.126 -0.0860 -0.3590 -0.0742
31647W        W46778   9.918  10.316   0.199 -0.4632  0.0817  0.0709
31648W        W46779  15.707  17.076  10.819  0.3220 -0.4570  0.1520
31649W        W46780  11.487   0.361   4.768 -0.1670  0.0797 -0.2178
31650W        W46781   8.751   3.032  12.288  0.2506 -0.4465  0.0142
31651W        W46782   9.465   7.956   6.492 -0.2732  0.4734  0.0958
31652W        W46783  11.731  11.813  11.064 -0.1076  0.2605  0.2000
31653W        W46784  13.933   7.112   3.540 -0.0349  0.0659 -0.2183
31654W        W46785   6.736  17.902   4.799 -0.2854 -0.0432 -0.0309
31655W        W46786   6.093  15.592  12.663 -0.0857 -0.0065 -0.3922
31656W        W46787  12.107  12.978   6.228  0.2000  0.4093 -0.3418
31657W        W46788  15.094  11.010   4.919 -0.0104  0.1927  0.0377
31658W        W46789   9.102   3.250   4.817 -0.3240  0.4682 -0.1826
31659W        W46790   5.834  14.238  12.582 -0.1870  0.0570 -0.2662
31660W        W46791   9.016   1.544   0.720 -0.1430 -0.1554 -0.1068
31661W        W46792  10.666   5.974   0.562  0.1816 -0.1555 -0.0867
31662W        W46793  17.775   0.046   2.003 -0.1024 -0.2551 -0.1730
31663W        W46794   5.442  13.282  10.385  0.2346  0.4213  0.0273
31664W        W46795  16.884  14.047   4.517 -0.0397  0.0037  0.0493
31665W        W46796   6.204   9.379  15.267 -0.2398  0.3567 -0.0597
31666W        W46797   8.005  16.849  15.743 -0.1698  0.0706 -0.0812
31667W        W46798  11.195  13.866   2.844 -0.3936  0.0396 -0.1454
31668W        W46799   9.775   8.539  12.971 -0.1028 -0.0185  0.0854
31669W        W46800  13.964   5.836   1.055  0.2181  0.2571 -0.0919
31670W        W46801   8.472   2.858   3.455  0.3747  0.2366 -0.0352
31671W        W46802   5.770  11.038   0.310  0.0313  0.5050 -0.0549
31672W        W46803  15.263  18.076  15.785  0.1734 -0.1136  0.0751
31673W        W46804   6.585   0.866  13.641  0.0681  0.0941 -0.0110
31674W        W46805   0.801   1.945   1.135  0.1165 -0.2804 -0.0236
31675W        W46806   1.272  17.207  12.488  0.1033  0.0512  0.0707
31676W        W46807   4.564  10.562  11.551  0.1942  0.1490  0.4149
31677W        W46808  14.567  13.797  13.384  0.1623  0.3986 -0.0427
31678W        W46809  13.554  13.926   5.234 -0.3251 -0.1587 -0.0471
31679W        W46810   6.025  12.482  12.875  0.2360 -0.0812 -0.3505
31680W        W46811   8.072  17.344   2.979 -0.0138 -0.1055 -0.1301
31681W        W46812  16.965  17.070   4.524 -0.0991  0.2960 -0.2341
31682W        W46813   4.280  17.704  10.682  0.3975 -0.3150  0.3492
31683W        W46814  16.739   6.425   2.460  0.1462  0.0588  0.0313
31684W        W46815   1.620   0.176  11.091  0.0322  0.0949  0.0936
31685W        W46816  14.432  10.898  15.537 -0.0140  0.1942 -0.0108
31686W        W46817   1.377  13.743   0.160 -0.0833  0.1835  0.1357
31687W        W46818   3.373  12.408  13.976 -0.2017 -0.3627  0.2737
31688W        W46819   1.770   0.596   4.154 -0.0634  0.0373  0.0476
31689W        W46820  10.733   0.131  11.850  0.1193  0.4098 -0.1452
31690W        W46821   1.186   3.738  14.308 -0.0971 -0.1486  0.1873
31691W        W46822  13.720   7.935   3.063 -0.0891 -0.0360 -0.1398
31692W        W46823   9.558   3.392  12.537 -0.2110 -0.2071  0.2614
31693W        W46824   9.335  10.151   2.583  0.1252  0.4370  0.3220
31694W        W46825  17.113   3.513  11.172 -0.2664  0.0732  0.2846
31695W        W46826   1.747   0.573   2.790 -0.3890  0.1752 -0.0226
31696W        W46827  17.863  10.494  12.162  0.0475  0.0533 -0.2345
31697W        W46828   8.021   7.110  12.000 -0.1332 -0.0343  0.0545
31698W        W46829   5.262  14.167  11.882 -0.0509 -0.3864 -0.1550
31699W        W46830  14.728  16.812   4.650  0.1295 -0.2443  0.0950
31700W        W46831  13.972  14.946  13.842 -0.0855  0.2236 -0.1114
31701W        W46832   2.281  13.917   2.109 -0.1133  0.3475  0.0773
31702W        W46833   5.437  18.444   3.593  0.1674 -0.2158 -0.2574
31703W        W46834   2.287  17.310  13.433  0.0282 -0.0295 -0.0272
31704W        W46835  12.155  10.182  11.796 -0.0444 -0.0522  0.0676
31705W        W46836   8.494   6.568   2.495  0.0777 -0.2552  0.0813
31706W        W46837  17.123  13.794   1.963 -0.5383 -0.3369 -0.0196
31707W        W46838  12.740   0.545   2.991 -0.1109  0.2366 -0.0697
31708W        W46839  11.177  13.720   4.359  0.1995  0.0712  0.3077
31709W        W46840  14.023   5.851   3.451 -0.0283  0.0516  0.0343
31710W        W46841   7.059   4.889  15.157  0.0041 -0.1368  0.2006
31711W        W46842   6.925  16.861  12.891  0.1578  0.2320 -0.1233
31712W        W46843   6.055   1.109  11.320  0.1822 -0.0384  0.0758
31713W        W46844   3.984   9.934   3.504  0.2785 -0.2214 -0.0907
31714W        W46845  15.770  10.636  11.631 -0.2897 -0.2085  0.3379
31715W        W46846   5.595   8.696  14.097  0.1075  0.1927  0.1820
31716W        W46847   5.505   1.518  10.630  0.0861 -0.1269 -0.0339
31717W        W46848  11.382   7.313  12.844  0.0572  0.0311  0.1767
31718W        W46849   2.314  15.442  12.392  0.1772  0.0179  0.0535
31719W        W46850   1.852   7.965  13.277  0.0808  0.2282 -0.1376
31720W        W46851   9.629  12.943  13.443  0.0716 -0.1777 -0.0350
31721W        W46852   6.919   4.734   0.353  0.2151  0.0462 -0.0046
31722W        W46853   2.491   4.646  10.619 -0.1783  0.4545 -0.1116
31723W        W46854  15.457   3.184   4.684 -0.0712  0.1917  0.0326
31724W        W46855  17.648   8.479   2.111 -0.0461 -0.2071 -0.1034
31725W        W46856   0.771  10.796  13.452  0.2114  0.1172 -0.1164
31726W        W46857  17.027   6.985   3.424 -0.3231 -0.0961 -0.3533
31727W        W46858  10.221   1.328   3.246  0.0445  0.0246 -0.0964
31728W        W46859  13.302  11.552  15.108  0.0812 -0.1220  0.1152
31729W        W46860   7.952  12.848   3.665  0.2527 -0.1633  0.0507
31730W        W46861   7.237  14.130   1.023  0.0442 -0.0778  0.0855
31731W        W46862   4.222   1.847  15.747 -0.2510  0.0386 -0.3003
31732W        W46863   8.859   4.251   1.757 -0.1607  0.0601 -0.0404
31733W        W46864   3.813   9.999   2.962 -0.2866  0.0661 -0.0926
31734W        W46865   5.451  15.801   3.728 -0.1755  0.3561 -0.0082
31735W        W46866   0.728   9.607  12.530 -0.1418 -0.1418 -0.0381
31736W        W46867   9.039  15.267   3.575 -0.3745 -0.0359 -0.1540
31737W        W46868  10.624   3.556  13.475 -0.0487  0.3416 -0.1490
31738W        W46869  16.245   2.066   2.155 -0.0274 -0.1122 -0.2243
31739W        W46870  14.605  11.070  13.324  0.2698  0.2176  0.1345
31740W        W46871  11.133   0.658  13.269 -0.0935 -0.0702 -0.1213
31741W        W46872  14.074  12.445   2.508 -0.2334 -0.3407  0.1645
31742W        W46873   6.681  11.768  12.413  0.1036 -0.2413 -0.2000
31743W        W46874   7.027  14.361   2.312  0.0281  0.0172 -0.2952
31744W        W46875   7.168   9.459   2.007  0.0483  0.2007 -0.3893
31745W        W46876  17.398  10.041   1.344 -0.3547  0.1230 -0.0143
31746W        W46877   3.919  12.748  15.301  0.1860 -0.0333 -0.1129
31747W        W46878   2.602  11.378   9.944 -0.0132 -0.1667  0.4986
31748W        W46879   0.773   8.011   5.831  0.0291  0.0467  0.1383
31749W        W46880   7.756   7.439   0.781 -0.1434 -0.1119  0.0576
31750W        W46881  11.730   0.522   0.843  0.2027 -0.0333 -0.1244
31751W        W46882  10.781  10.737   3.895  0.0181  0.2255 -0.0569
31752W        W46883  14.508  11.623   0.611 -0.1053 -0.0013  0.0997
31753W        W46884  11.069   8.246   2.737  0.1727  0.0171 -0.3320
31754W        W46885   3.873   0.473   2.449 -0.0658 -0.2704  0.3001
31755W        W46886   5.292  13.543   4.437  0.1084 -0.2160 -0.1292
31756W        W46887   9.255  12.790   4.360  0.0299  0.2859 -0.1272
31757W        W46888  15.548  18.319   0.675 -0.3926  0.0186  0.1863
31758W        W46889   7.769   2.341  13.753  0.1331  0.1404  0.0515
31759W        W46890   5.983   4.468  12.885 -0.2630 -0.1240 -0.1209
31760W        W46891  12.058  15.684  11.120 -0.0846 -0.2025 -0.2256
31761W        W46892   8.754  12.946   5.627 -0.4221 -0.0836  0.1211
31762W        W46893   2.095   0.869  14.813  0.1670 -0.0610 -0.0008
31763W        W46894  12.511   3.062  14.588 -0.2548  0.1138 -0.0811
31764W        W46895   8.963   8.849   1.338  0.0795  0.0655  0.0845
31765W        W46896  15.752   1.499   2.763  0.1397  0.0889 -0.1337
31766W        W46897   9.943  12.707   3.663 -0.0648 -0.1155  0.0632
31767W        W46898   9.409   9.877   5.295  0.0960 -0.1121 -0.1346
31768W        W46899   1.725   5.021   1.898 -0.1146  0.0982 -0.3510
31769W        W46900  10.335  12.703   2.687  0.2443 -0.1547  0.0647
31770W        W46901   4.863  13.236   4.388  0.0442  0.1647 -0.0544
31771W        W46902   0.761   3.662  13.517  0.1113  0.0567  0.3213
31772W        W46903  10.055   2.251  10.314  0.2284 -0.1078 -0.2186
31773W        W46904  14.788  13.073  15.278  0.0473 -0.1361  0.0551
31774W        W46905   1.894  13.395  10.608 -0.0889 -0.0325  0.0639
31775W        W46906  18.219   5.944   5.621 -0.3297 -0.1550  0.2995
31776W        W46907   5.480  15.714   9.766 -0.1047 -0.4094 -0.0875
31777W        W46908   4.342   0.945  15.609 -0.1723 -0.1106 -0.4160
31778W        W46909   5.910  17.609  15.785  0.1844  0.0688 -0.0222
31779W        W46910   1.614  13.126  12.378  0.1952 -0.0344  0.0398
31780W        W46911  15.070  15.433  11.124  0.0128  0.0598  0.0247
31781W        W46912   9.246  17.049  13.736  0.1490  0.0547 -0.0147
31782W        W46913  13.649  13.649   0.165 -0.2367  0.1322 -0.0432
31783W        W46914   1.769   1.534  12.186 -0.0177  0.0631 -0.1242
31784W        W46915  10.667   7.584  15.823  0.0009 -0.0194 -0.5596
31785W        W46916  11.405  10.162   4.140  0.0441 -0.1068 -0.4348
31786W        W46917   3.380   4.692  12.983  0.1689  0.0106 -0.1935
31787W        W46918   7.824   1.984  13.407 -0.0876  0.3778  0.3969
31788W        W46919   9.195  15.743  12.260 -0.0859  0.1976  0.3072
31789W        W46920  14.410   3.888  11.650  0.0765 -0.3069 -0.0178
31790W        W46921   7.125  12.254  15.555  0.1819 -0.2397  0.2253
31791W        W46922   4.257  10.289  12.212  0.1656 -0.1099 -0.2680
31792W        W46923   3.765  18.476  12.543  0.0835 -0.2709 -0.1080
31793W        W46924   1.393   7.386  15.653  0.2605  0.2892 -0.0628
31794W        W46925   9.910  11.952   2.469  0.0057  0.1624  0.1113
31795W        W46926   3.583  12.801   4.505 -0.0741 -0.0816 -0.0349
31796W        W46927   0.594   0.052   1.191  0.4008  0.0952 -0.2827
31797W        W46928  11.992   6.827   5.637  0.0884  0.1953  0.0854
31798W        W46929  14.851   6.267  13.046 -0.2834  0.2036  0.0922
31799W        W46930  10.263  13.245  13.841 -0.1409  0.0467  0.1520
31800W        W46931   6.108  16.476  11.348  0.2023 -0.3833 -0.0293
31801W        W46932  15.922  15.062   3.152  0.1199  0.3216  0.3639
31802W        W46933  12.111   7.080  11.502 -0.0227  0.1620  0.0841
31803W        W46934   7.912   2.015   2.025 -0.1138  0.1327 -0.0725
31804W        W46935   8.377   1.639  11.406  0.1019  0.1233 -0.0654
31805W        W46936  11.906   4.703   3.113  0.0582  0.0771  0.0494
31806W        W46937  16.801   0.668  14.388 -0.0667  0.1970  0.0142
31807W        W46938  18.394   5.191   1.887  0.0703 -0.0399 -0.1141
31808W        W46939  18.015   1.405   3.301  0.0675  0.0287  0.0947
31809W        W46940   3.787  13.695   0.578  0.1257  0.2631 -0.2812
31810W        W46941  12.217  13.042   0.835 -0.1123 -0.1551  0.1590
31811W        W46942  10.354  14.397  11.744  0.0526  0.0818 -0.0839
31812W        W46943   9.306  13.043  11.459 -0.0871 -0.5391 -0.0951
31813W        W46944   3.178   6.009  13.151 -0.2431  0.2259 -0.2415
31814W        W46945   8.759   5.935   0.586  0.1147  0.1665  0.2781
31815W        W46946  17.835  15.574   9.770  0.2718 -0.1894  0.2559
31816W        W46947  13.470  11.308  12.208 -0.0195 -0.2955 -0.1231
31817W        W46948   3.075  16.680   1.029  0.2035  0.2003 -0.0762
31818W        W46949   7.924   7.637  11.898 -0.1474 -0.0587  0.5817
31819W        W46950  10.555  11.742  15.009 -0.0396 -0.0478  0.2098
31820W        W46951   3.245   3.125   4.363  0.2443 -0.3047 -0.0739
31821W        W46952   4.246   7.136   5.135  0.3111  0.2196  0.1210
31822W        W46953  10.160   5.352   0.395  0.2912  0.0997  0.0596
31823W        W46954   0.478  17.062   3.530 -0.1422 -0.1053  0.2005
31824W        W46955  15.250  15.984  12.811 -0.0024  0.1434  0.3749
31825W        W46956   6.356  11.363  10.743 -0.0212 -0.0411  0.2943
31826W        W46957   9.737   4.638  15.934  0.0427 -0.1266  0.2382
31827W        W46958  14.545   9.790   3.575 -0.1204 -0.1126 -0.0497
31828W        W46959  18.280   0.197   3.605  0.0547 -0.2388 -0.1463
31829W        W46960   0.901  16.509   1.552 -0.1342  0.2027  0.1031
31830W        W46961  14.336  17.714  12.347 -0.1302  0.1439  0.0140
31831W        W46962   7.766   2.077  11.881 -0.1787  0.1528 -0.0668
31832W        W46963  13.678  12.136  13.897 -0.0084  0.2413 -0.1451
31833W        W46964  11.120  16.408  13.389  0.0000 -0.1091 -0.1224
31834W        W46965   2.954   7.376  13.370  0.0376 -0.2330 -0.0854
31835W        W46966   5.919  18.481  12.599 -0.3373  0.3709 -0.1528
31836W        W46967  16.310   7.673   2.791 -0.0215 -0.0236 -0.0077
31837W        W46968   5.039  11.134  15.197  0.1121 -0.1057 -0.1206
31838W        W46969   7.063   7.823  14.950  0.3566  0.0507  0.0634
31839W        W46970   6.006   0.169  15.716  0.2530 -0.3170  0.0822
31840W        W46971  15.289  16.267   0.233 -0.0565 -0.3269  0.0520
31841W        W46972  11.052  10.217  13.236  0.1545 -0.4173 -0.3899
31842W        W46973  16.334   6.159  15.384 -0.0296 -0.0377 -0.1577
31843W        W46974  16.431   7.148   1.947 -0.1758 -0.0417 -0.5308
31844W        W46975   1.464   1.518  14.971 -0.0559 -0.3546  0.0611
31845W        W46976   0.755   2.405   3.722 -0.1057 -0.1465  0.4553
31846W        W46977  15.419   9.877  12.612 -0.1051 -0.1043  0.0730
31847W        W46978  18.196   3.934   6.036  0.1891 -0.0894  0.1590
31848W        W46979  17.114  10.185  11.336  0.0989  0.1959  0.0457
31849W        W46980  11.060  14.995   5.035  0.1537 -0.2537 -0.0552
31850W        W46981  11.726  11.491   2.014  0.2445  0.1193 -0.1718
31851W        W46982   4.185   1.927  14.788 -0.2287 -0.1700  0.0688
31852W        W46983   3.125  10.768  15.374 -0.0499  0.2137 -0.2776
31853W        W46984  16.087   1.130   2.179  0.2903  0.3926  0.0337
31854W        W46985   4.805  14.377  14.930  0.0691 -0.1679 -0.1637
31855W        W46986  13.000  12.267   0.513  0.3581  0.0822  0.2313
31856W        W46987   6.537  18.259  12.819 -0.0833 -0.2654  0.1185
31857W        W46988  15.755  16.786  11.232  0.0391  0.0663 -0.2210
31858W        W46989  17.519   0.432  11.984  0.1250 -0.2917  0.3221
31859W        W46990   0.795  10.656   2.295  0.0921 -0.1621 -0.2314
31860W        W46991   8.704   4.549  12.808 -0.1359 -0.1703 -0.1758
31861W        W46992   3.464  12.703   0.512  0.0731  0.1358  0.0971
31862W        W46993  12.727   3.973  14.326  0.0608  0.0155 -0.1630
31863W        W46994   7.547   0.012   6.185 -0.1244  0.2988  0.1668
31864W        W46995   2.578   3.193  14.383 -0.1568 -0.1790  0.2513
31865W        W46996  13.368  18.023  10.105  0.4276  0.2157 -0.1839
31866W        W46997   9.483   2.758   0.482  0.1025 -0.0023  0.3400
31867W        W46998   4.292  12.270   4.112  0.2953 -0.4837  0.4701
31868W        W46999   1.073  15.437  13.038  0.1619 -0.0884 -0.1932
31869W        W47000  17.949   4.657  15.159 -0.1985  0.0526 -0.0407
31870W        W47001   5.923   9.478  12.794 -0.2069  0.6259  0.2380
31871W        W47002   6.875   8.431  12.843  0.2081 -0.1709  0.0327
31872W        W47003   5.925   4.451  15.558  0.1033  0.4042 -0.3077
31873W        W47004   0.555   5.472   2.945 -0.2612 -0.0077 -0.0368
31874W        W47005  18.066   0.317  16.084 -0.1131 -0.5128 -0.0608
31875W        W47006   8.539   5.695   3.623 -0.1462 -0.4356  0.3340
31876W        W47007  11.470  12.944   1.064 -0.0598 -0.1377  0.1259
31877W        W47008  13.167   2.160   5.575  0.2995  0.0735 -0.3912
31878W        W47009   9.184  10.962  14.771  0.0252 -0.3550 -0.1762
31879W        W47010  10.578   2.943   2.897 -0.1208  0.0402  0.2761
31880W        W47011   3.486   4.644  14.578  0.0028  0.0331  0.0819
31881W        W47012  17.060   4.004  11.334  0.3203  0.0285 -0.0536
31882W        W47013   9.360   5.066   6.366  0.3404 -0.0311 -0.3742
31883W        W47014   2.981   2.982  14.736 -0.0530 -0.0725 -0.0725
31884W        W47015  14.470  10.870   5.697  0.0991 -0.0515 -0.1031
31885W        W47016  16.746   4.305  13.896 -0.3269 -0.1632 -0.2892
31886W        W47017   2.060  15.398  12.920 -0.2647  0.0195 -0.1423
31887W        W47018   0.255   4.865  14.127 -0.0897 -0.1821  0.2311
31888W        W47019  10.174   4.617   1.671 -0.0455 -0.1454 -0.0289
31889W        W47020   0.961  17.389  14.126  0.3355 -0.2168  0.0339
31890W        W47021   6.734  14.606   1.881  0.2148  0.2178  0.2592
31891W        W47022  16.952   5.580  12.921  0.4753  0.1081 -0.2616
31892W        W47023  12.069   9.402   2.597 -0.0541 -0.2118  0.3785
31893W        W47024   5.788  11.942  15.095 -0.1866 -0.0364  0.1236
31894W        W47025  11.421   9.731  12.541 -0.1624  0.0157 -0.0227
31895W        W47026  12.158  16.922  11.376  0.2269  0.2014  0.1297
31896W        W47027   0.649  12.764   2.848 -0.2331  0.1942  0.1829
31897W        W47028  14.967  12.160  15.392  0.1506  0.1264 -0.1973
31898W        W47029  15.872   1.011   2.599  0.0857  0.3024  0.0649
31899W        W47030  14.162  15.864  16.038 -0.0854 -0.0571 -0.3379
31900W        W47031  11.503   9.440  13.686  0.1138  0.0856 -0.0269
31901W        W47032   2.980   5.578  14.032  0.1596  0.0369 -0.0701
31902W        W47033  13.498   7.612  12.876  0.0770 -0.6329 -0.2544
31903W        W47034  16.223   6.097  11.699  0.1050  0.2610 -0.0945
31904W        W47035   6.952   0.770  11.051 -0.0870 -0.0492 -0.1596
31905W        W47036  18.473   0.819   2.966  0.0994  0.2480 -0.1677
31906W        W47037  17.012  10.441  10.938 -0.3709 -0.2327 -0.1055
31907W        W47038  13.757  12.867  13.975 -0.0900  0.1280 -0.1295
31908W        W47039  10.279   4.784   2.751 -0.1680 -0.0084 -0.2788
31909W        W47040  14.185  16.092  15.004 -0.0907  0.1933  0.0236
31910W        W47041   7.444   9.610  14.299 -0.1255  0.0587  0.1542
31911W        W47042  16.754  15.303   2.276 -0.0737  0.0014  0.0804
31912W        W47043  14.541  11.944   1.452  0.0941 -0.0984 -0.2315
31913W        W47044   1.901   2.676   1.858 -0.3076 -0.1459 -0.0109
31914W        W47045   3.189  13.703   2.372  0.0386 -0.0542 -0.1242
31915W        W47046   7.042   3.967  15.593 -0.0307 -0.3983  0.0557
31916W        W47047  14.387   2.137   6.286  0.2897 -0.1740  0.1987
31917W        W47048   0.882   6.839   3.677  0.4354  0.4882  0.0175
31918W        W47049  13.318  11.085  15.476  0.0881  0.4702 -0.2746
31919W        W47050  18.049   0.590   2.782  0.0693  0.0073 -0.1301
31920W        W47051  12.369  16.682   0.124 -0.3756 -0.0201  0.2220
31921W        W47052   9.562   4.908   3.272  0.0265 -0.0459  0.2920
31922W        W47053  17.015  18.072   0.347 -0.0143  0.0322  0.0380
31923W        W47054   6.168   9.668   4.034 -0.1633  0.1106 -0.4411
31924W        W47055   2.116  10.950  13.958 -0.0153 -0.0293  0.0203
31925W        W47056   2.685   5.518  11.169  0.2182  0.1595 -0.0474
31926W        W47057  11.510   0.364   2.547 -0.3883  0.1143  0.1640
31927W        W47058   1.489  12.695   1.225 -0.3210 -0.1460 -0.3507
31928W        W47059   0.324  18.249  13.869  0.3404  0.0612  0.0139
31929W        W47060   9.233  14.780  15.838 -0.3552  0.1236  0.1600
31930W        W47061  12.268  11.246  13.713  0.1769 -0.0285 -0.2850
31931W        W47062   2.013   4.953   4.293  0.1836 -0.1505  0.1581
31932W        W47063  13.702  16.020  15.922 -0.3068  0.0201 -0.0275
31933W        W47064  14.265   2.284  14.773 -0.1407 -0.0173  0.1149
31934W        W47065  16.646  17.050   3.550 -0.5145 -0.0621 -0.0196
31935W        W47066  10.171   1.458  13.371 -0.4210  0.0469 -0.1425
31936W        W47067   4.232   1.428   9.317  0.1215 -0.3947 -0.4055
31937W        W47068  14.101  14.244  13.115  0.1830  0.2571 -0.3519
31938W        W47069   0.596   6.354   0.773  0.0857 -0.1790 -0.2406
31939W        W47070   2.655   4.103   4.320  0.0990  0.1129 -0.2678
31940W        W47071   3.142  18.476   0.735 -0.0242 -0.1038  0.1901
31941W        W47072   8.419   2.088   2.284 -0.1288 -0.1994 -0.0652
31942W        W47073   8.117  12.789   3.205  0.3052 -0.3009 -0.0326
31943W        W47074  10.572  16.712  10.812  0.0966  0.2915 -0.1750
31944W        W47075   2.549  16.025   1.643  0.1812  0.0614  0.1082
31945W        W47076  14.172   6.457  12.651 -0.5171  0.1844  0.1510
31946W        W47077   3.569  17.042  10.038  0.1850  0.2581  0.2172
31947W        W47078   8.142   8.916  13.274 -0.2349 -0.1389  0.1140
31948W        W47079   1.376   6.729  13.227  0.3731  0.2008 -0.0439
31949W        W47080   0.184   7.722  11.858  0.0971  0.0992 -0.3896
31950W        W47081   7.595   3.250   3.262  0.4149 -0.3166 -0.1629
31951W        W47082  13.210   5.913   1.646  0.1599 -0.0250 -0.2499
31952W        W47083  16.820   9.290   5.122 -0.0750 -0.3027  0.1136
31953W        W47084  16.305   7.747  11.236 -0.1706 -0.1858 -0.0098
31954W        W47085  18.215   4.837   5.442 -0.0945 -0.1572  0.0350
31955W        W47086   0.564  15.177  14.657 -0.0223 -0.3669  0.3549
31956W        W47087   5.454  14.498   2.430  0.1774  0.1208  0.0556
31957W        W47088  11.991  13.010  10.831 -0.1162  0.0120  0.2682
31958W        W47089   7.007  15.591  14.488  0.0690 -0.1781 -0.0046
31959W        W47090  12.822  10.359  15.388 -0.1806  0.2924 -0.1890
31960W        W47091  12.862   0.262  15.717  0.2467  0.1313  0.0996
31961W        W47092  15.902  11.435   2.562 -0.0372 -0.3495  0.1576
31962W        W47093   1.837  13.968   2.359 -0.0658  0.1109 -0.1951
31963W        W47094   3.074  16.257   4.992 -0.2456 -0.2374 -0.2470
31964W        W47095   0.347  11.610  13.377 -0.1494 -0.2855  0.1987
31965W        W47096   1.419   7.643   1.876 -0.0071 -0.1799  0.2335
31966W        W47097   1.349   6.582  11.732  0.3450 -0.3555  0.1813
31967W        W47098   5.854  11.660  13.510 -0.3258  0.3786  0.1321
31968W        W47099   1.460   0.229   3.024  0.2759  0.1199 -0.0769
31969W        W47100   0.741   7.477  14.367 -0.1026 -0.0491  0.0363
31970W        W47101   4.289  14.284   3.199 -0.2241 -0.1101 -0.1431
31971W        W47102  16.457   4.087  10.203  0.0737  0.0477  0.0028
31972W        W47103   0.074   8.503  12.246  0.0236  0.2120 -0.2955
31973W        W47104  12.105   2.864   0.042  0.4535 -0.0110 -0.1684
31974W        W47105  17.753   5.877   1.192  0.0657 -0.0574  0.3076
31975W        W47106   2.195  13.245  12.378  0.0179 -0.0095 -0.4071
31976W        W47107   0.642  18.456  11.750 -0.0291  0.2079  0.1583
31977W        W47108   8.147  15.485   3.749  0.3288  0.0309 -0.1431
31978W        W47109  13.247  10.996   3.241 -0.1414  0.1521  0.0917
31979W        W47110   7.342   2.308  10.039 -0.0991  0.3280 -0.2015
31980W        W47111  13.767   0.588  11.797  0.2056  0.2334  0.0230
31981W        W47112  15.981   4.224   5.467 -0.0066  0.0264 -0.0830
31982W        W47113   2.959  15.314   4.573  0.2539 -0.1449 -0.3505
31983W        W47114  15.734   4.842   0.814 -0.2015 -0.3889 -0.0658
31984W        W47115   6.448   8.540  13.110  0.1930  0.1206 -0.0688
31985W        W47116  16.499  17.295  13.988  0.1154  0.2082 -0.1141
31986W        W47117  15.902   2.607   3.806 -0.3106  0.2772 -0.0092
31987W        W47118   1.339   5.494  16.084 -0.1530 -0.0645 -0.1326
31988W        W47119  13.223  16.446   0.090 -0.4820 -0.1356 -0.4489
31989W        W47120   9.348  17.135   1.291  0.3195 -0.0871  0.1504
31990W        W47121   0.838  16.685   3.227  0.0214 -0.1916  0.2253
31991W        W47122   2.518   8.956  13.317 -0.0434  0.0416 -0.0683
31992W        W47123  13.669   7.253  13.197 -0.1016  0.1747  0.1128
31993W        W47124   7.209   1.421  12.465 -0.0067 -0.0455 -0.2901
31994W        W47125  13.969   8.038  15.525 -0.1679 -0.0055  0.0129
31995W        W47126   3.591   6.232  13.900  0.1825 -0.1052 -0.0206
31996W        W47127   1.445   1.740  12.517 -0.0146  0.3647  0.0389
31997W        W47128  10.398   7.735   4.712  0.0280 -0.0879  0.3897
31998W        W47129   7.018   0.006  13.618  0.0809  0.0628 -0.0280
31999W        W47130  14.454   0.793  12.575  0.3941 -0.0033 -0.0548
32000W        W47131   3.176   6.229   4.102 -0.0405  0.0064  0.0309
32001W        W47132   7.001  10.045   3.591 -0.3323  0.0580  0.0859
32002W        W47133  14.520  12.070   1.965 -0.1117  0.0676 -0.1284
32003W        W47134  12.456   4.626   1.959 -0.0359  0.0182 -0.3433
32004W        W47135  13.305   6.490  15.047  0.2014  0.0890  0.0689
32005W        W47136  15.420  15.623  11.487  0.0733 -0.0009 -0.0813
32006W        W47137  17.232  10.445  15.552 -0.0657 -0.2118 -0.0640
32007W        W47138   7.329  17.402  15.046 -0.1624 -0.1908  0.2678
32008W        W47139  17.672   0.451   0.640  0.0225  0.2858  0.3754
32009W        W47140   2.646  16.925  11.527  0.4251 -0.2748  0.0918
32010W        W47141   6.615  15.661  14.770  0.3423 -0.3362  0.1530
32011W        W47142  18.267   0.124   2.177  0.2787  0.2968 -0.0424
32012W        W47143   9.650  17.388   2.599  0.1038 -0.0790 -0.1223
32013W        W47144   2.238   4.562  12.781  0.0149  0.1200  0.2523
32014W        W47145   8.778  15.045   4.776  0.1339 -0.0246  0.0665
32015W        W47146   8.492   9.087  12.810  0.0506  0.1275 -0.4793
32016W        W47147   6.763   2.139   4.105 -0.1150  0.3384  0.1648
32017W        W47148  14.361  12.097   2.389 -0.0653  0.2068 -0.4574
32018W        W47149   9.073  11.838   3.400 -0.2507 -0.0747  0.0029
32019W        W47150  17.847   7.561  11.580  0.1333  0.2668 -0.3691
32020W        W47151   8.629   0.271   4.038 -0.0926 -0.0513 -0.0317
32021W        W47152  12.723   5.595  14.943 -0.0659 -0.4124  0.2717
32022W        W47153  18.360  15.581  11.759 -0.0685 -0.2271 -0.1732
32023W        W47154   8.140   9.979   4.439  0.1622 -0.0286  0.1565
32024W        W47155   7.881  12.740   5.953 -0.0117 -0.2014 -0.0091
32025W        W47156  13.211   6.953   2.742 -0.0367 -0.1907 -0.3356
32026W        W47157   5.880  12.709   3.652  0.2016 -0.0669 -0.4236
32027W        W47158   1.196  15.460   4.417 -0.1894  0.1889 -0.0997
32028W        W47159   2.073  13.240  14.572  0.1289 -0.0451  0.3107
32029W        W47160   2.164   4.950  15.332  0.2413  0.2801 -0.3396
32030W        W47161   0.902  14.831   1.316 -0.0887  0.1232 -0.2599
32031W        W47162   0.359  11.558  12.875  0.2708 -0.2010  0.5916
32032W        W47163  14.960  10.750  13.298 -0.1702  0.0166  0.2425
32033W        W47164  17.790   9.151  15.698  0.3938  0.1485 -0.0673
32034W        W47165   3.031   9.616   1.887 -0.2243  0.0354  0.3591
32035W        W47166  17.856  18.118  10.645  0.2063 -0.0352  0.0172
32036W        W47167  13.621   1.854   4.699  0.1084 -0.0375  0.1819
32037W        W47168  10.445   4.283   2.694 -0.0747  0.2922 -0.2396
32038W        W47169   9.530   0.987  14.508 -0.0536  0.1947 -0.2422
32039W        W47170  10.543   5.595   6.028 -0.1737  0.1055 -0.0667
32040W        W47171  18.164   1.619  12.345  0.0174 -0.2983  0.0821
32041W        W47172   7.528   7.167   2.394  0.1457  0.0547 -0.5033
32042W        W47173  18.076   2.459   0.555  0.2037  0.0726  0.1195
32043W        W47174   4.437   7.987  15.558  0.1230  0.0731 -0.0225
32044W        W47175   0.542   1.036  13.934  0.1453  0.0197  0.2854
32045W        W47176   2.129  16.334  14.539 -0.3338 -0.0417 -0.0538
32046W        W47177   5.975   0.160   3.801  0.0851 -0.1333  0.3901
32047W        W47178   2.443   9.631  12.504 -0.0679  0.2278  0.2275
32048W        W47179  18.144  10.850   3.263  0.0315  0.0667  0.1812
32049W        W47180   3.059   2.285  15.590 -0.2186 -0.0885  0.0488
32050W        W47181   4.089  12.380  13.501  0.2964  0.1394 -0.0663
32051W        W47182   2.589   6.954   4.593 -0.3578 -0.1077 -0.0852
32052W        W47183  11.663   6.849  10.523 -0.1400 -0.1003  0.1884
32053W        W47184   4.115  16.750  15.143  0.3209 -0.0665 -0.0561
32054W        W47185  12.672  13.034   2.464 -0.2728 -0.0575 -0.3096
32055W        W47186  16.581  13.111  15.064  0.1048 -0.1588 -0.0224
32056W        W47187   5.047   6.778  11.720 -0.1141  0.0390 -0.0378
32057W        W47188   0.772   9.263  15.417 -0.0741  0.3279 -0.0761
32058W        W47189   3.928  12.674   4.114 -0.3340  0.2545 -0.1415
32059W        W47190  17.569  13.065   5.191  0.1594  0.0860  0.0003
32060W        W47191  13.598  12.207   3.753  0.0783 -0.2433 -0.3614
32061W        W47192   8.956  15.230   4.378  0.1880  0.0388 -0.0846
32062W        W47193   4.318   2.289   4.724  0.2502  0.4145 -0.0371
32063W        W47194  15.078  17.631  13.531  0.1541  0.2783 -0.1391
32064W        W47195   0.622   7.948   2.098  0.1537  0.0227 -0.0737
32065W        W47196   0.703  15.388   2.204  0.1901  0.2569 -0.1873
32066W        W47197   1.892  13.725  14.714  0.0212 -0.1510 -0.0562
32067W        W47198   4.269   7.959   1.612 -0.5934  0.0686  0.2220
32068W        W47199   7.897  13.848  16.103  0.2652 -0.1706 -0.1151
32069W        W47200   8.516  12.069   2.026  0.0211 -0.2969 -0.1427
32070W        W47201  11.009  17.196  15.898 -0.2891  0.0416  0.0664
32071W        W47202  14.959   5.505   5.954 -0.0065 -0.2223 -0.0270
32072W        W47203  12.475  10.567   1.732 -0.1662  0.1967 -0.3670
32073W        W47204   5.728   6.165  12.010 -0.5071 -0.1507 -0.3690
32074W        W47205   8.924   1.694  13.075  0.2233 -0.3666 -0.3533
32075W        W47206  12.359   2.115  14.426  0.1015  0.3632  0.0804
32076W        W47207   6.552  11.220  11.192  0.1474  0.2000 -0.0768
32077W        W47208  16.254  12.753  11.331 -0.3080  0.0390 -0.1363
32078W        W47209   7.387   6.635  11.200 -0.3099  0.2104  0.0020
32079W        W47210  13.083   1.947  13.966  0.2096 -0.2221  0.4173
32080W        W47211   4.589  15.033  13.550  0.0933 -0.1907 -0.0157
32081W        W47212   7.439   2.514  14.563  0.0862 -0.1258 -0.0964
32082W        W47213  14.350   8.237  16.055  0.0441  0.1278  0.1424
32083W        W47214  10.915  18.133   4.290 -0.0218  0.3175  0.0451
32084W        W47215  10.200   4.507  13.441 -0.0267 -0.2080 -0.1701
32085W        W47216   1.534   1.519   1.055  0.0128  0.1754  0.0903
32086W        W47217  11.987  16.612   2.994  0.2410 -0.0129  0.4803
32087W        W47218  13.499   4.445   2.874 -0.0095  0.0797  0.3357
32088W        W47219   3.975  13.241   2.198 -0.1641 -0.1258  0.0969
32089W        W47220   2.437  13.608  12.123  0.2069 -0.0861 -0.1721
32090W        W47221   7.868  10.317  14.443 -0.1414 -0.2631 -0.1354
32091W        W47222  11.632  13.664  15.119  0.1877  0.1234  0.1101
32092W        W47223  17.578   0.798  13.198  0.1116  0.0785  0.0670
32093W        W47224   0.792  16.695  12.915  0.4708  0.0226  0.1680
32094W        W47225  11.361  12.869   0.576 -0.2488 -0.1745 -0.1378
32095W        W47226   5.166  15.325   2.384 -0.4129  0.2952 -0.3235
32096W        W47227  17.130  11.878   2.208  0.2338  0.1945 -0.4243
32097W        W47228   9.016   6.456   1.341  0.0338  0.1230  0.2063
32098W        W47229   4.040  15.980   0.091  0.0840  0.2073 -0.3653
32099W        W47230   4.591   4.584   0.486 -0.1568 -0.2441 -0.0876
32100W        W47231  13.017   4.361  15.554  0.1195 -0.3160  0.3059
32101W        W47232   1.733   4.903  13.648 -0.0156 -0.1449 -0.2963
32102W        W47233   7.196   2.051  11.715 -0.0817 -0.1580 -0.1500
32103W        W47234   2.643  17.630  11.288 -0.1279 -0.0009  0.2200
32104W        W47235  16.202   3.155  14.326 -0.2707 -0.0214 -0.0399
32105W        W47236  11.477  13.420   4.159  0.2931  0.1925 -0.0915
32106W        W47237   7.263   3.208  13.428 -0.0583  0.2372 -0.0318
32107W        W47238   6.513  16.611  13.026  0.0417  0.0322  0.2693
32108W        W47239  17.942  12.884  13.380  0.0522  0.0740  0.4445
32109W        W47240   4.427  16.785   2.362  0.0703  0.1333 -0.1278
32110W        W47241  15.670   5.780   0.359 -0.1809  0.0965  0.2056
32111W        W47242   7.081   1.748  15.109  0.5153 -0.2245  0.0725
32112W        W47243  13.202   2.672  15.241 -0.1028  0.2612 -0.1116
32113W        W47244  13.863   4.221   5.530 -0.0142  0.0212 -0.1279
32114W        W47245   8.279   6.289  11.605  0.5018 -0.2223 -0.1709
32115W        W47246   3.410  16.518  13.792  0.0219  0.0416 -0.0155
32116W        W47247  18.202  17.865  11.407 -0.2524 -0.1931 -0.0108
32117W        W47248  16.750   3.909   2.879  0.2842  0.3401  0.1094
32118W        W47249   9.418   2.159  14.695 -0.3151  0.0911 -0.2213
32119W        W47250   1.441   2.298   0.211  0.2025 -0.0271  0.2132
32120W        W47251  11.385  14.238  11.942  0.0463 -0.0692 -0.1195
32121W        W47252   9.054   1.262   1.714 -0.2343 -0.5799  0.0563
32122W        W47253  12.216  10.146   1.540 -0.0669  0.0716 -0.0220
32123W        W47254  13.436   5.506  13.703 -0.2935 -0.3081  0.0734
32124W        W47255  15.586   7.650   5.037  0.2104  0.1863  0.3845
32125W        W47256  10.152  11.911  12.036 -0.2501 -0.1573 -0.1101
32126W        W47257  16.917   6.487   3.062  0.1411  0.0107  0.2521
32127W        W47258   4.787   8.205  14.715  0.1517 -0.0959 -0.2519
32128W        W47259  17.220  16.258  13.405  0.0937  0.1543  0.1203
32129W        W47260  17.247  14.241   2.172 -0.1687 -0.1030 -0.1373
32130W        W47261  11.230  16.165  11.110 -0.1703 -0.0912  0.2040
32131W        W47262   3.814   7.221  15.675  0.1829  0.3249  0.1016
32132W        W47263  13.532  11.320  15.842 -0.1283 -0.1931 -0.5134
32133W        W47264  11.637  15.155   3.018 -0.0470  0.1006  0.1237
32134W        W47265   7.992   6.903   6.663 -0.1371 -0.0753  0.1934
32135W        W47266  10.923   7.665  11.738  0.2893 -0.0573 -0.4537
32136W        W47267  16.921   7.737  14.436 -0.1855 -0.0273 -0.0722
32137W        W47268  11.335  17.672  14.644 -0.0694  0.0112  0.0185
32138W        W47269   1.695  12.859   5.661 -0.0374 -0.1001  0.0286
32139W        W47270   1.092  15.480  10.307  0.4147 -0.0803  0.0317
32140W        W47271  16.920  17.654  13.936  0.2055  0.4079  0.1215
32141W        W47272   5.860   7.281  14.476  0.0485  0.1111 -0.1373
32142W        W47273  12.731  18.477   1.508  0.3135 -0.0834 -0.1597
32143W        W47274   5.896   0.418  14.375 -0.0021  0.3853 -0.1669
32144W        W47275   7.514   5.921   1.266  0.0874 -0.2219 -0.0832
32145W        W47276   7.924   4.212  11.316  0.2884 -0.0874  0.0877
32146W        W47277   4.165   6.530  15.627  0.1760 -0.1452 -0.3306
32147W        W47278  10.327  12.252   2.936  0.0519 -0.0516 -0.1463
32148W        W47279  12.236   4.262   5.952  0.0320 -0.2249 -0.0479
32149W        W47280   5.983   8.354  15.922 -0.0847  0.0914 -0.2612
32150W        W47281   0.422   2.360   3.333  0.1142 -0.0269  0.2592
32151W        W47282   1.194   2.409  13.195  0.3148  0.1387 -0.1652
32152W        W47283  15.368   7.698  10.772  0.2029  0.1542  0.2564
32153W        W47284   2.271  15.894  12.209  0.0261 -0.1642 -0.1694
32154W        W47285   5.100   0.457  16.038  0.1592 -0.2512  0.1921
32155W        W47286   4.709   8.308   1.042  0.3156 -0.1939  0.3071
32156W        W47287  14.519  17.753   3.915 -0.0404 -0.0856 -0.2116
32157W        W47288   9.997   2.755  14.389 -0.0057  0.2124  0.0678
32158W        W47289  16.218  18.285   3.402 -0.2491 -0.2507 -0.1721
32159W        W47290   2.329   2.987  15.418 -0.5689  0.2644  0.1496
32160W        W47291  14.321  11.220  11.089 -0.2600  0.1180  0.1893
32161W        W47292  10.896   5.407  15.913 -0.1250  0.1974 -0.2331
32162W        W47293  16.800   8.911  14.734  0.0429  0.5287 -0.2178
32163W        W47294   4.123  16.706  13.310 -0.2139  0.1888  0.1597
32164W        W47295  12.646  11.090  12.573 -0.0085  0.0028  0.0377
32165W        W47296   2.552  16.459  12.760 -0.0546 -0.0025  0.3395
32166W        W47297   1.448  14.745  10.945 -0.3967  0.2257  0.0238
32167W        W47298  13.549  14.782  13.564  0.2329  0.0027  0.0719
32168W        W47299  11.104  18.277  11.672 -0.1440  0.2212  0.3104
32169W        W47300   9.701   1.553  11.923 -0.1624 -0.2346 -0.1272
32170W        W47301   0.395  12.176   3.458  0.1548  0.1106 -0.1811
32171W        W47302   8.642   2.823  13.046  0.0794  0.0820  0.0259
32172W        W47303   2.872  10.536  14.984 -0.3076 -0.1822  0.3188
32173W        W47304  17.657  14.689  12.580  0.1552  0.4618  0.3425
32174W        W47305  16.082  13.483  12.045  0.1558 -0.0455  0.1714
32175W        W47306   7.588   4.223   2.086  0.0076 -0.1974  0.1150
32176W        W47307   6.993   1.634  15.608 -0.1924 -0.1929  0.2185
32177W        W47308   7.466   0.372   2.831  0.1622 -0.0654  0.1993
32178W        W47309  14.943  14.184   1.074 -0.3965  0.4127 -0.0861
32179W        W47310   4.322   6.225  11.742  0.0106 -0.3202  0.0615
32180W        W47311   1.888   7.485   2.244  0.4293 -0.2512  0.0518
32181W        W47312  18.452   1.967  15.982  0.2282 -0.2220  0.0570
32182W        W47313   6.463   4.434   6.045  0.0477  0.1179 -0.2259
32183W        W47314  12.317  16.415  12.212 -0.0732  0.1106 -0.1538
32184W        W47315   4.072   5.745  10.396 -0.0963  0.0132 -0.1345
32185W        W47316  15.954  12.690   3.108 -0.1795 -0.1467 -0.2708
32186W        W47317   3.855   1.613  13.256 -0.2712 -0.0205  0.1587
32187W        W47318  14.257  16.516   4.533 -0.0469 -0.0698  0.3218
32188W        W47319   3.381   2.198   4.614  0.3292 -0.0362 -0.3049
32189W        W47320   8.265   0.013   0.578  0.4058 -0.0685 -0.1334
32190W        W47321  18.292   9.404   5.715  0.1554  0.0398  0.0809
32191W        W47322   2.505   5.752  15.305  0.1790  0.1110 -0.2876
32192W        W47323   2.059   1.914  15.660 -0.0923  0.1923  0.1811
32193W        W47324  11.171  17.289   0.673 -0.0656 -0.0774  0.2579
32194W        W47325   3.801  18.380   3.679  0.2455 -0.1204  0.1905
32195W        W47326   7.416   1.208  13.640  0.1041  0.0620  0.1063
32196W        W47327   6.957  11.466   1.276 -0.0688 -0.0253 -0.0587
32197W        W47328  10.463  10.326   0.065  0.0748  0.2494  0.1106
32198W        W47329   5.691  11.612   4.301 -0.1523 -0.3670 -0.0272
32199W        W47330   0.144  12.081   2.900  0.1666 -0.2189  0.2065
32200W        W47331   1.551   1.890  14.235 -0.0795 -0.0445  0.0068
32201W        W47332  16.955   4.603   0.636  0.2800 -0.0772  0.2477
32202W        W47333   5.016  15.546  12.941  0.0439 -0.1786 -0.1703
32203W        W47334  17.199   4.333   3.481  0.2223 -0.0533  0.1496
32204W        W47335  12.495  13.275   6.205  0.1322 -0.2314 -0.0455
32205W        W47336  13.011  11.633  10.088 -0.3569  0.3587 -0.3249
32206W        W47337  18.366   9.305  11.015 -0.3180 -0.2265 -0.0591
32207W        W47338   9.491  14.655   4.511  0.1279  0.3837  0.1190
32208W        W47339  14.359  11.644  14.721  0.0004  0.1882 -0.0489
32209W        W47340   3.336   7.838   1.364  0.0042  0.0613  0.3030
32210W        W47341   3.004   8.838   1.187 -0.1720 -0.0732 -0.0681
32211W        W47342   6.552  14.851  15.213  0.0310  0.0588 -0.3321
32212W        W47343  15.383   6.335   4.968 -0.1039  0.1841 -0.4095
32213W        W47344   6.185   3.302   4.639  0.3638  0.2518 -0.2644
32214W        W47345   7.560  15.582  12.895 -0.1804  0.2150  0.0648
32215W        W47346   4.195   8.205   0.952 -0.2469 -0.0108 -0.0377
32216W        W47347   4.996   7.741   5.128  0.0135  0.3238  0.1835
32217W        W47348  15.499  10.172  11.626  0.1423 -0.0021 -0.0716
32218W        W47349  11.406  11.870   3.553  0.0081  0.1322 -0.0594
32219W        W47350   9.363  15.034   0.214 -0.0831  0.2123 -0.5130
32220W        W47351   7.373   2.070  13.782 -0.2851  0.0285 -0.1825
32221W        W47352  17.603  16.214   2.405  0.0095 -0.0400 -0.1068
32222W        W47353   9.259   3.041  12.284  0.2288  0.0686 -0.2931
32223W        W47354  17.369   2.768  14.961 -0.0640  0.0164 -0.1028
32224W        W47355  14.384   1.148  13.043 -0.1241  0.0193  0.0200
32225W        W47356  13.176  17.960  15.051 -0.2070  0.0075 -0.0745
32226W        W47357   8.377  10.827   2.706  0.2633  0.1856  0.0226
32227W        W47358   6.998   1.667   5.876 -0.1938 -0.1206 -0.2970
32228W        W47359   9.460  11.633   3.164  0.0053  0.1713  0.1113
32229W        W47360   3.699   2.517   0.221  0.1453 -0.2093 -0.2181
32230W        W47361  12.015  11.674   2.812  0.3240 -0.2098  0.0582
32231W        W47362  17.154   9.600  14.326  0.1946 -0.1315 -0.1712
32232W        W47363  16.146   6.068  14.549 -0.0576 -0.1884  0.0043
32233W        W47364   8.830  13.136  11.781  0.0823 -0.1827 -0.2074
32234W        W47365   7.989   2.792   4.642 -0.1821  0.2264 -0.2261
32235W        W47366   8.609  11.069  11.764  0.0275  0.2174  0.0105
32236W        W47367   2.605   9.726   0.530  0.2801 -0.0713 -0.0606
32237W        W47368  17.181  14.081   3.590  0.0981  0.0754 -0.0928
32238W        W47369  12.584   5.575   0.060  0.1911  0.0389 -0.0332
32239W        W47370  18.335   3.840   5.148 -0.1690  0.1529  0.0158
32240W        W47371   3.113   9.184  13.927  0.3662  0.0797 -0.1745
32241W        W47372   8.354  16.954  11.775 -0.1982  0.0489 -0.2283
32242W        W47373   5.680  17.985  12.624 -0.2730  0.0505 -0.0183
32243W        W47374  17.495  16.110   1.201  0.2528  0.0674 -0.3512
32244W        W47375   2.264   8.355  12.380 -0.1104  0.2354 -0.1971
32245W        W47376   9.059  18.339  15.250  0.4364 -0.0069 -0.0282
32246W        W47377  14.873   5.006   4.431  0.7214  0.0191 -0.2030
32247W        W47378  13.318   7.547  13.353  0.1923  0.2892 -0.0525
32248W        W47379   9.520  13.966   1.007 -0.0222  0.1069 -0.0730
32249W        W47380   2.934  16.137   2.051 -0.1685 -0.1798  0.0777
32250W        W47381   0.843   1.396   1.585 -0.0519  0.0745  0.1713
32251W        W47382   9.702  13.103  15.681 -0.0751 -0.0165  0.0743
32252W        W47383  14.848   6.268   1.834 -0.1043  0.0928  0.6478
32253W        W47384   9.599   8.260   3.592  0.3312  0.0115 -0.1536
32254W        W47385  10.520   6.086   3.234  0.0234  0.1447  0.1312
32255W        W47386   4.506  17.024  11.458  0.0573 -0.1099 -0.1016
32256W        W47387  16.203   2.358   1.282 -0.1739  0.1443 -0.0022
32257W        W47388   6.774   9.062  10.773  0.0425 -0.0155 -0.1049
32258W        W47389  16.155  13.697  11.527 -0.0419 -0.3045 -0.0517
32259W        W47390   7.577  11.538   5.443 -0.2186 -0.0984  0.2551
32260W        W47391  13.714   8.750   1.102 -0.1270 -0.1508  0.1048
32261W        W47392   6.517   6.971  12.846 -0.3095 -0.0611  0.1706
32262W        W47393  16.515   1.394  13.863 -0.0070  0.1216  0.0052
32263W        W47394  12.397  18.118   4.258  0.1244  0.1960 -0.0252
32264W        W47395   9.892   3.300  14.430 -0.1158 -0.0894 -0.0283
32265W        W47396  13.685  10.473  11.087 -0.0742 -0.0101  0.0129
32266W        W47397   0.990  12.697   2.531  0.1069  0.1397  0.1813
32267W        W47398   8.646   5.959  12.588  0.0415  0.0189  0.2498
32268W        W47399   1.446   0.522  10.381  0.1383  0.0346  0.2734
32269W        W47400   6.505   7.122   6.105 -0.1484 -0.1537 -0.0855
32270W        W47401  18.328   8.192   3.628 -0.1037  0.1771  0.1620
32271W        W47402   1.313  13.720   2.474 -0.0022 -0.0805  0.0945
32272W        W47403  14.647  13.201   2.661 -0.3399  0.4035  0.0805
32273W        W47404   1.787   1.307  14.646  0.1647  0.2057 -0.0428
32274W        W47405  13.429   5.966  15.122 -0.0273  0.1231 -0.0066
32275W        W47406  15.655   1.125  11.163 -0.1194  0.1640  0.0413
32276W        W47407   3.955   8.623   1.575 -0.3775  0.0503  0.0070
32277W        W47408  13.884   1.903  14.758  0.0359  0.2971  0.1204
32278W        W47409  10.945  16.580  14.977 -0.3820  0.0597 -0.0600
32279W        W47410  10.215  17.378   5.470 -0.0263 -0.1232  0.1476
32280W        W47411   1.137   6.442   4.125 -0.0158 -0.1718 -0.4796
32281W        W47412  16.144  12.005  16.029 -0.0294  0.0827 -0.2255
32282W        W47413   7.205   6.496  13.105  0.2330 -0.2595 -0.2039
32283W        W47414  15.912   3.318  12.618 -0.0249 -0.1109 -0.1099
32284W        W47415   6.236  16.456  12.686  0.1543 -0.0009  0.2471
32285W        W47416  15.249  10.554  13.681  0.2255  0.0213 -0.1743
32286W        W47417   2.275  16.249   0.263  0.3861 -0.4313  0.1411
32287W        W47418   7.293   1.635   0.366 -0.0172 -0.0043 -0.2086
32288W        W47419   2.803  11.558  15.834  0.0730 -0.0278 -0.1264
32289W        W47420   8.513  11.216   5.558 -0.1389 -0.3414  0.0073
32290W        W47421   2.973  12.785  14.237  0.2106 -0.1576  0.3259
32291W        W47422   0.234   7.969  13.088  0.1604 -0.0609 -0.1820
32292W        W47423  12.188  11.117  10.366  0.0461  0.1177 -0.0549
32293W        W47424  14.216   7.810  13.707  0.0212 -0.4005 -0.1301
32294W        W47425  17.939  16.240  14.588  0.1258  0.3783 -0.0167
32295W        W47426   7.787   3.999  14.078 -0.1500 -0.4122  0.0883
32296W        W47427   2.407  17.055   3.032 -0.0382  0.2793 -0.2540
32297W        W47428   7.121  10.973  12.118 -0.1118  0.0289  0.2129
32298W        W47429   3.015   8.884   3.488  0.1231 -0.2429 -0.0504
32299W        W47430  12.723   1.334  14.235 -0.0892  0.1796  0.0819
32300W        W47431   9.336  11.613  13.399  0.4499  0.0367  0.0808
32301W        W47432  16.953   9.367  12.524  0.0815 -0.2501 -0.1507
32302W        W47433  11.843   5.100   2.539 -0.0440  0.2686 -0.2398
32303W        W47434  12.080   6.096   4.935  0.1427  0.0731 -0.1820
32304W        W47435   7.301   7.252  13.774 -0.3015  0.1360 -0.3354
32305W        W47436  16.064  11.111  12.574  0.1253 -0.0274  0.1545
32306W        W47437  10.388   2.107   4.368  0.0720  0.1023 -0.0325
32307W        W47438   5.742   3.868   4.367  0.1853  0.2956  0.1417
32308W        W47439  16.419  12.695   5.579 -0.0211 -0.0110  0.0324
32309W        W47440  12.648  10.432  12.259 -0.0377 -0.4813 -0.5092
32310W        W47441  14.179  15.014  11.097  0.3336  0.5424  0.1196
32311W        W47442  13.232   2.150   4.553  0.1064  0.1831 -0.0292
32312W        W47443  17.761  16.823  15.645 -0.1066 -0.2422  0.1100
32313W        W47444   9.507  16.547  15.296  0.0484 -0.0639 -0.1935
32314W        W47445  16.134   8.135  13.651  0.1823  0.2287 -0.0604
32315W        W47446  16.800   4.932   1.477  0.3876  0.3632  0.2559
32316W        W47447   6.952   3.999   0.719 -0.0246 -0.2149 -0.0583
32317W        W47448   4.888   9.534   2.473 -0.2051 -0.1772  0.2477
32318W        W47449   9.225   5.724   2.540  0.2879  0.1440  0.0348
32319W        W47450   7.411   6.101   0.475  0.0684 -0.0375  0.2876
32320W        W47451   5.902  10.805  11.504  0.1278  0.0198  0.0240
32321W        W47452   4.479   5.402   4.612 -0.2748 -0.3453 -0.0770
32322W        W47453   4.825   4.424   0.905  0.1230  0.0162  0.0656
32323W        W47454  10.972   1.029  12.296  0.1955 -0.0304  0.2568
32324W        W47455  10.464  12.677  15.618  0.4871 -0.0851 -0.4327
32325W        W47456  18.068   6.597   6.003 -0.3349  0.1329  0.1269
32326W        W47457  16.744  16.140   5.346  0.1615  0.1926  0.1394
32327W        W47458   5.524  17.878   3.217  0.0388 -0.4230  0.0610
32328W        W47459   2.561  14.126  13.077 -0.0111  0.3224 -0.0912
32329W        W47460   7.767  13.366   4.864  0.1477  0.0989  0.4135
32330W        W47461   2.141  13.488   3.150 -0.3164 -0.4633  0.0291
32331W        W47462  13.702   3.699  12.673  0.0956 -0.1936 -0.1692
32332W        W47463  12.652   8.280   0.234 -0.1221 -0.4657  0.2514
32333W        W47464  10.582   9.145   0.194  0.0224 -0.2266  0.2794
32334W        W47465  14.603   7.801  13.256  0.1333 -0.0564 -0.1951
32335W        W47466  17.315  14.135  15.372 -0.1022 -0.1342  0.0302
32336W        W47467  13.961  13.225  13.088 -0.1033 -0.2051 -0.4478
32337W        W47468   5.841  13.677   5.502  0.2282 -0.0659  0.0280
32338W        W47469   9.234   5.132  15.403 -0.3761 -0.0549 -0.0086
32339W        W47470   0.373   3.756   1.929  0.0760  0.1659 -0.2628
32340W        W47471  12.358   5.765  15.757  0.2727  0.0614 -0.0204
32341W        W47472  11.674   5.599   2.353 -0.2307 -0.3557  0.2040
32342W        W47473   7.801  18.015   2.012  0.4214  0.2473  0.0675
32343W        W47474  15.640   8.826   2.277 -0.2333  0.1541  0.0618
32344W        W47475   7.529  15.185   4.235  0.0461  0.1630  0.0676
32345W        W47476  12.520  11.504  15.814  0.3747 -0.1125  0.1340
32346W        W47477   1.898  18.326   2.147 -0.3394 -0.0519  0.0586
32347W        W47478  17.794  15.387   1.967  0.1258 -0.4145  0.1510
32348W        W47479   2.058   9.428  12.278  0.0878 -0.0947 -0.1561
32349W        W47480   5.028   6.160   2.715 -0.0650  0.2344  0.1984
32350W        W47481  14.322   8.286  12.853 -0.0470 -0.0153 -0.0520
32351W        W47482   6.353   9.238   1.170  0.0273  0.1595  0.1267
32352W        W47483  12.029  11.003  12.024 -0.2806 -0.0071 -0.0958
32353W        W47484  16.582   2.680   1.170  0.0045  0.1455 -0.0581
32354W        W47485  13.895   6.372   0.834  0.0398 -0.0232  0.1307
32355W        W47486  12.664  14.920   4.145  0.2502 -0.2783 -0.0100
32356W        W47487   2.217   4.461   5.006  0.0428 -0.4139 -0.3085
32357W        W47488   3.659  16.397   2.166  0.2156  0.1013 -0.2618
32358W        W47489   0.093  11.705  14.598 -0.1576  0.4621 -0.0950
32359W        W47490   1.467   3.799  14.875 -0.1608  0.5302  0.2490
32360W        W47491  17.808   3.630  13.793 -0.2896  0.0675 -0.3103
32361W        W47492  12.975  15.593   5.141 -0.1926 -0.1004 -0.0470
32362W        W47493  11.703  18.250  13.004 -0.6818 -0.1215  0.1284
32363W        W47494   1.923  12.391  13.368  0.2327  0.1945  0.1007
32364W        W47495   8.521   3.007   0.359  0.1950 -0.4031  0.0970
32365W        W47496   6.885  13.161   4.559 -0.0674  0.4300 -0.1636
32366W        W47497  15.579  13.932   5.590  0.0911  0.1582 -0.3804
32367W        W47498   8.210  17.112  14.908  0.0137 -0.1220 -0.1019
32368W        W47499   5.205   7.596  11.196 -0.1194  0.1223 -0.1902
32369W        W47500   5.654   0.356   2.036 -0.0561 -0.1581  0.0106
32370W        W47501   3.867   7.858  12.908 -0.2651  0.0032 -0.1608
32371W        W47502   7.111   8.711   4.153 -0.0743 -0.1299 -0.0193
32372W        W47503  12.269   9.521  14.236 -0.1298  0.1127  0.0046
32373W        W47504   8.837   1.331  14.343 -0.1871 -0.1373  0.1034
32374W        W47505   0.657  12.373  15.613 -0.0087 -0.0290  0.1060
32375W        W47506  16.535  14.423  15.633 -0.1555 -0.0199  0.0556
32376W        W47507  10.157   2.473  13.951  0.1428 -0.4532  0.1179
32377W        W47508   4.030  10.005   5.789  0.0450 -0.0330 -0.1277
32378W        W47509  17.760  10.175   2.013 -0.1921  0.1277  0.0166
32379W        W47510   2.519  16.910   9.611 -0.1779  0.1426 -0.0072
32380W        W47511   0.863  16.203  15.178 -0.0693 -0.4141 -0.1191
32381W        W47512  17.119   8.870  11.567  0.0548 -0.2480 -0.1916
32382W        W47513   6.838   2.521  15.388 -0.1279 -0.0129 -0.0519
32383W        W47514   5.327   7.315   3.035 -0.2396 -0.1780  0.0126
32384W        W47515  16.428   3.166   4.769 -0.0196 -0.2133 -0.0139
32385W        W47516  17.181   8.403   0.781 -0.1489 -0.1060 -0.0119
32386W        W47517  11.971  17.250   0.899  0.1377 -0.2369 -0.0262
32387W        W47518  14.318   1.286  15.763 -0.2734  0.3580 -0.3154
32388W        W47519   2.924   2.685   0.714 -0.0304 -0.2461  0.1155
32389W        W47520   2.170   7.019   4.299  0.3116  0.0069 -0.1172
32390W        W47521  10.785  12.717  10.927 -0.5661 -0.2310  0.2854
32391W        W47522   0.643  17.804  14.007  0.0377 -0.1709 -0.0978
32392W        W47523  13.955  16.215   5.308  0.0317  0.1003 -0.1154
32393W        W47524  14.330   4.286   4.956  0.3728  0.0841 -0.0073
32394W        W47525   1.318  12.472  13.606  0.0235  0.3137  0.1547
32395W        W47526  16.946   2.561  14.542  0.0571  0.3730  0.1960
32396W        W47527   3.887   9.005   0.276 -0.0307  0.0564  0.3439
32397W        W47528   8.966   0.681  13.759 -0.0936 -0.1701  0.2233
32398W        W47529  17.024  12.058  11.759  0.0585  0.2387  0.1536
32399W        W47530   1.973  12.793   1.332  0.0964 -0.0783 -0.1250
32400W        W47531  11.152  10.403   2.139 -0.0400  0.1307  0.0054
32401W        W47532   6.336   5.826   2.087  0.2498 -0.1498  0.1028
32402W        W47533  17.238   7.428  15.467  0.2019  0.1966 -0.6952
32403W        W47534   2.041  12.200   5.902  0.2961  0.1550 -0.0431
32404W        W47535  14.030   1.845  11.206 -0.0344 -0.4850 -0.1501
32405W        W47536   5.363  14.699  14.009 -0.1961 -0.4204  0.1435
32406W        W47537  11.770  12.895   0.274  0.0945  0.0365 -0.1352
32407W        W47538   7.697   1.040   3.129 -0.2182  0.0428 -0.1521
32408W        W47539  11.547  10.235   3.712  0.1030  0.0128  0.1099
32409W        W47540  15.473  13.919  15.048  0.3377 -0.0908 -0.1712
32410W        W47541  14.691   5.493  11.373 -0.3692 -0.0814 -0.0826
32411W        W47542  17.651   7.006   1.767  0.1151 -0.0604  0.0203
32412W        W47543   7.372  12.912  10.285  0.5722  0.2075 -0.0897
32413W        W47544  17.398   5.787  12.892 -0.0383  0.0603 -0.0000
32414W        W47545   8.192  12.799  11.741 -0.0497  0.0815  0.0164
32415W        W47546   1.803   6.704  11.560 -0.2821 -0.2675  0.2642
32416W        W47547  18.007   2.422   1.633 -0.2003  0.2106 -0.1455
32417W        W47548  18.372  17.452   9.782  0.0877 -0.3615  0.0316
32418W        W47549  10.502   9.576   0.618 -0.2105 -0.2376 -0.0369
32419W        W47550   9.754  14.132   4.279  0.4121  0.1273 -0.3395
32420W        W47551   9.837  16.022   3.859 -0.0621  0.0124 -0.1901
32421W        W47552   4.003   1.380  12.801 -0.2908  0.3076  0.0961
32422W        W47553  15.828   7.565  14.450  0.1238  0.1496 -0.0775
32423W        W47554  11.587  11.437   4.446 -0.1017  0.2242  0.1001
32424W        W47555   7.598  10.690  15.850  0.2728  0.2603  0.3751
32425W        W47556   1.755  15.582  14.216 -0.0409  0.3275  0.2956
32426W        W47557   5.002   1.947   3.031 -0.0047 -0.0312  0.0362
32427W        W47558   7.702   2.376   3.752 -0.1338  0.2912  0.0805
32428W        W47559   2.407   7.583   1.389  0.0531  0.2530 -0.0856
32429W        W47560  14.057   1.928   4.370 -0.2254  0.0816  0.2727
32430W        W47561  12.551   7.746   4.176 -0.0300 -0.2918  0.0006
32431W        W47562   5.600  13.884   3.048  0.4259  0.0736 -0.2792
32432W        W47563   1.932  11.877   3.737 -0.2108  0.1925 -0.1810
32433W        W47564   0.856   5.269   4.855 -0.3172 -0.0499 -0.1715
32434W        W47565  10.606  12.165  12.527  0.2751 -0.2404 -0.1473
32435W        W47566   7.226  15.015   0.876  0.1661 -0.0641  0.0004
32436W        W47567  14.023  16.398  14.630  0.2255 -0.0007  0.0287
32437W        W47568   4.510   2.007   3.129 -0.1192  0.0972 -0.0793
32438W        W47569   4.550   1.051   4.312 -0.0629  0.1562  0.1398
32439W        W47570   8.014   4.073   4.178 -0.0617 -0.4251 -0.1269
32440W        W47571   9.359   4.008  13.808  0.1093 -0.2127  0.3417
32441W        W47572  15.526  11.671   0.518  0.1833  0.1186 -0.1773
32442W        W47573  10.909   1.043   2.706 -0.2824 -0.1565 -0.0759
32443W        W47574   8.944   4.944   0.904  0.0518 -0.0301  0.1699
32444W        W47575   0.200  11.650   1.518 -0.1274  0.0510 -0.0488
32445W        W47576   9.633  11.346  14.854  0.0163  0.3713  0.2610
32446W        W47577  13.551  16.094  13.709  0.3183  0.0430  0.0079
32447W        W47578  10.458   4.578   0.677 -0.0384  0.1585  0.1257
32448W        W47579   2.222  15.352   2.733  0.1560  0.3347  0.1520
32449W        W47580  15.953   9.895   5.600  0.1105  0.0470 -0.1621
32450W        W47581   1.365   2.732   4.217 -0.2457 -0.2674 -0.1660
32451W        W47582  11.619  16.341  15.720 -0.2048  0.0465 -0.3209
32452W        W47583  12.940   7.096  11.814 -0.1903  0.2001  0.3254
32453W        W47584   4.628   0.569   9.577 -0.1653 -0.0734  0.1660
32454W        W47585   6.876  12.973  14.378  0.1033  0.0245  0.1200
32455W        W47586  15.392  10.798  15.269 -0.2151  0.2625  0.3212
32456W        W47587  14.741   1.023   0.653  0.2983  0.2233 -0.1432
32457W        W47588  10.831  16.089   1.663  0.2286  0.0365 -0.0589
32458W        W47589   4.221   4.681  10.103 -0.0377  0.1731  0.0329
32459W        W47590   7.926   4.034   1.281 -0.1461 -0.2730  0.2144
32460W        W47591  10.498   6.112   1.078  0.0434 -0.2555 -0.1073
32461W        W47592  16.853  13.766   1.377  0.1510 -0.0315 -0.2896
32462W        W47593   7.300   1.157  14.301 -0.0911  0.1647 -0.0734
32463W        W47594   4.101   7.372  14.263  0.0983 -0.1264  0.2223
32464W        W47595   9.448   6.610   0.671  0.1026 -0.1268  0.1494
32465W        W47596  15.436   4.216  11.029  0.0017  0.0357  0.1776
32466W        W47597   9.483  12.410  13.284  0.2418 -0.0734 -0.1934
32467W        W47598  14.233   1.324   2.262 -0.3134 -0.1389  0.3988
32468W        W47599   7.338   0.487  12.668 -0.1478 -0.0443  0.1335
32469W        W47600  14.173   4.390  15.686  0.1413  0.2945  0.2109
32470W        W47601  18.328  15.327   3.012 -0.2174  0.0636  0.2639
32471W        W47602   7.383   7.848  13.996  0.0168 -0.3721  0.0841
32472W        W47603   2.478   5.040   1.207 -0.2539 -0.4178 -0.1608
32473W        W47604  10.872  14.702  14.959 -0.3114  0.0224 -0.1133
32474W        W47605   3.181   2.574  11.133 -0.0510  0.0150 -0.0395
32475W        W47606  12.447   1.819   1.643 -0.3637  0.0750  0.3134
32476W        W47607   5.842   6.125   3.314  0.2221  0.1832  0.0002
32477W        W47608  10.431   6.524  12.605 -0.3174 -0.0131 -0.1405
32478W        W47609  14.001  15.541  12.495  0.0020  0.0951 -0.1708
32479W        W47610   7.564   7.413   2.813 -0.0625 -0.1160  0.3578
32480W        W47611   0.308  10.465   4.964 -0.2327 -0.0307  0.0270
32481W        W47612  12.710   7.283   4.128 -0.0801 -0.0788  0.0083
32482W        W47613  15.013  14.464   0.650  0.3337 -0.2004 -0.1235
32483W        W47614   8.558   8.481   1.250  0.1431  0.0580 -0.0187
32484W        W47615   3.637  13.465  14.497 -0.1325 -0.0685  0.2217
32485W        W47616   4.025   4.936   1.874 -0.0223  0.0673  0.1538
32486W        W47617   9.809  10.048  12.253 -0.0349  0.1551  0.3037
32487W        W47618   3.996   6.800  10.360 -0.1627  0.0936  0.5079
32488W        W47619   1.981  14.287  12.441 -0.1459 -0.0638  0.0392
32489W        W47620  14.911   9.157   1.692 -0.2152 -0.0743 -0.3077
32490W        W47621  17.070  13.780  14.635  0.1847 -0.2602  0.0052
32491W        W47622   7.564   5.713  12.074  0.1465  0.2073  0.0123
32492W        W47623  16.126   6.525   0.128 -0.1032 -0.1539 -0.2221
32493W        W47624  17.554  15.157   4.531 -0.1311 -0.2545 -0.0900
32494W        W47625  10.136  15.224   3.299  0.0947  0.2153 -0.3093
32495W        W47626   5.297  10.847   2.616  0.2726 -0.0273 -0.0341
32496W        W47627   1.045   4.966  11.996  0.1326 -0.1756  0.0295
32497W        W47628   8.032  17.879  10.785  0.1996 -0.1479  0.1000
32498W        W47629   8.387  18.298  13.451  0.0286  0.1693 -0.1189
32499W        W47630   2.696   5.747   4.103 -0.2004  0.0642  0.1073
32500W        W47631   0.097  18.361   3.975  0.0505  0.1687 -0.1142
32501W        W47632  15.536   5.964   4.415  0.1741 -0.2326  0.0360
32502W        W47633  14.575   7.970   2.123 -0.0181  0.2639  0.1320
32503W        W47634   2.522   6.408   1.888  0.4347 -0.0872  0.1182
32504W        W47635   9.443   4.790   2.827 -0.1424 -0.0986  0.0965
32505W        W47636  12.404   8.027   2.060 -0.4591  0.2145 -0.2205
32506W        W47637  11.634   9.884  15.414 -0.0757  0.1425 -0.2882
32507W        W47638   9.380   0.179  14.942 -0.0748  0.2861  0.3798
32508W        W47639   1.405   7.230   0.856 -0.1147 -0.1772  0.0408
32509W        W47640  15.991  16.899  15.124  0.0369 -0.3537  0.1819
32510W        W47641   7.907   2.511  11.199  0.2274  0.1989 -0.3175
32511W        W47642   7.641   7.778   2.434 -0.0760 -0.0244 -0.0432
32512W        W47643   2.918  12.062  12.128 -0.0691 -0.0403 -0.1086
32513W        W47644   0.569   3.639  11.427 -0.0024  0.0439 -0.3928
32514W        W47645  13.117  18.214  10.834 -0.0530  0.0549 -0.0463
32515W        W47646   9.987  13.849  12.237  0.1613  0.0245 -0.1130
32516W        W47647  16.179   4.336  11.772 -0.3433  0.0529 -0.1387
32517W        W47648   8.262   0.558   4.816 -0.1596  0.3014 -0.2226
32518W        W47649   3.161  18.289  12.034 -0.1205 -0.1708  0.0861
32519W        W47650  16.276  11.923  14.021 -0.4554  0.2575 -0.2210
32520W        W47651   1.263  10.050  11.272  0.0996  0.1127  0.1089
32521W        W47652  14.913   8.130   3.853  0.1102  0.0134 -0.0666
32522W        W47653  15.983   6.573   4.935  0.2371 -0.0093  0.0727
32523W        W47654  17.477   4.833  12.163 -0.1039 -0.1267  0.1003
32524W        W47655   3.842  12.012   9.833  0.0479  0.0041 -0.2434
32525W        W47656   5.072  11.876  14.158  0.1729  0.2176 -0.1513
32526W        W47657  18.421   0.257  15.634 -0.0082 -0.2502 -0.2079
32527W        W47658   1.647   7.639   2.617  0.1602  0.1220 -0.0455
32528W        W47659  16.697   6.396  12.511 -0.0549  0.1661  0.0638
32529W        W47660   4.738   6.161  13.421 -0.1893 -0.2501  0.0859
32530W        W47661  12.031   0.560   0.302  0.0567  0.3245  0.0596
32531W        W47662  14.362   2.113   2.351  0.0969  0.1905  0.1149
32532W        W47663  10.013   1.332  12.392  0.1462  0.2021 -0.1883
32533W        W47664   0.319  15.364  15.075 -0.1367 -0.1457 -0.0931
32534W        W47665  16.653   5.076   4.992 -0.1164 -0.0134 -0.0259
32535W        W47666   2.219  12.545  10.872 -0.4033 -0.2396  0.1037
32536W        W47667   3.563  12.160   1.825 -0.0078  0.0160  0.0724
32537W        W47668  13.499  15.855   0.784 -0.1313  0.0059  0.3296
32538W        W47669  15.395   4.590  15.266 -0.1211 -0.1034 -0.0414
32539W        W47670   7.501   1.549  15.598  0.0821  0.3431 -0.0890
32540W        W47671  13.544  16.878  13.069 -0.1971 -0.0823  0.2132
32541W        W47672  14.593   6.918  11.448  0.0288  0.0663  0.1184
32542W        W47673  12.155  16.976  15.504  0.0591  0.0005 -0.2739
32543W        W47674   2.333  18.109  14.008 -0.0159  0.1218 -0.0826
32544W        W47675  15.175   7.107   2.488  0.1580  0.4321 -0.0217
32545W        W47676   5.895  13.540   3.344  0.2027 -0.0141 -0.0710
32546W        W47677   0.954  18.294   4.690 -0.2151  0.1792 -0.0575
32547W        W47678   5.979  15.487   0.840 -0.1247 -0.0085  0.0961
32548W        W47679   2.717   2.982   3.119  0.0562 -0.0971  0.2338
32549W        W47680   7.336   3.189   5.374  0.1216 -0.0148  0.2225
32550W        W47681  14.499   4.686   0.948 -0.1535 -0.0989 -0.1625
32551W        W47682   0.519   4.655  11.578  0.0708 -0.0982 -0.2305
32552W        W47683   9.898   6.828  14.037  0.1256 -0.0161  0.2829
32553W        W47684   0.492   9.864   1.870  0.4589  0.0566 -0.1525
32554W        W47685  18.363  17.886  10.037 -0.0900 -0.1015 -0.0994
32555W        W47686   3.045  14.924  14.443  0.0410  0.0560 -0.1891
32556W        W47687   5.380  13.291   1.893  0.0281  0.1868 -0.1064
32557W        W47688  14.608   5.233  15.114  0.3699  0.1997  0.0814
32558W        W47689  14.368   9.032   3.894  0.0500 -0.0241  0.2706
32559W        W47690  17.920   4.268   0.438 -0.1378  0.0203 -0.0730
32560W        W47691   1.739  16.981  15.111  0.2432  0.1492 -0.1221
32561W        W47692  15.655   0.895  15.148 -0.0002 -0.0174 -0.1635
32562W        W47693   5.154   9.279   5.636 -0.2104 -0.3360  0.0130
32563W        W47694  16.554  14.444  10.276  0.0941 -0.0913 -0.0988
32564W        W47695   8.738  16.272   2.496  0.0571  0.2139  0.0157
32565W        W47696   3.629   3.803  15.212 -0.0170  0.2059 -0.0173
32566W        W47697   8.658  11.044  11.267 -0.0584  0.0141  0.0830
32567W        W47698  11.789  12.599  11.102 -0.2540 -0.3046 -0.0349
32568W        W47699   6.648  12.583  14.652  0.0492  0.0247 -0.0616
32569W        W47700   3.748   6.894   3.314 -0.0458  0.0011 -0.1489
32570W        W47701   6.520   8.953   0.260  0.2699  0.0265 -0.0536
32571W        W47702   4.175   5.925   3.820 -0.0288  0.0249  0.2589
32572W        W47703   5.998   1.587  11.658  0.1171 -0.0300 -0.0829
32573W        W47704  12.972   9.151   3.038 -0.1751  0.3126  0.1786
32574W        W47705  16.622   4.700  14.146 -0.1337 -0.0874  0.2753
32575W        W47706  12.235   5.170   1.300 -0.2475  0.1365  0.0366
32576W        W47707   1.509  15.952   5.732 -0.1737 -0.3028  0.2000
32577W        W47708  17.104  15.279   4.620  0.2088  0.0705  0.2526
32578W        W47709   6.483   4.748   3.785 -0.0389 -0.1258 -0.0641
32579W        W47710  15.033   2.980  14.520 -0.2936 -0.1031 -0.0904
32580W        W47711  16.252  15.002   4.348 -0.0728  0.1746  0.0287
32581W        W47712   3.131  13.042  14.975 -0.0824 -0.1972  0.3056
32582W        W47713   9.330   9.376   3.832  0.0614  0.0051 -0.1698
32583W        W47714   5.118  15.276  14.242 -0.4443  0.1633 -0.1564
32584W        W47715   7.769   1.434   0.479  0.0097 -0.2170 -0.4430
32585W        W47716   1.431   8.546  13.912 -0.1279 -0.4272 -0.0260
32586W        W47717   1.635  16.249  15.814  0.2075  0.0327  0.0237
32587W        W47718   8.832  11.559  11.530  0.1083  0.1415  0.0325
32588W        W47719  13.353  11.898   0.438  0.0747  0.3773  0.3152
32589W        W47720   7.678  13.552  12.908 -0.0074  0.1854  0.1076
32590W        W47721  14.015  17.721   5.656 -0.0203 -0.3889 -0.3099
32591W        W47722  12.631   1.512   1.286  0.3197  0.0455 -0.2834
32592W        W47723  11.314  12.143   4.850 -0.1896  0.0052  0.0605
32593W        W47724  12.863   7.983  14.295 -0.0118  0.3533 -0.0243
32594W        W47725  12.101   2.942  13.010  0.0091 -0.1287  0.1354
32595W        W47726  15.482  17.311  12.433 -0.2145  0.1164  0.0032
32596W        W47727  11.590   7.197   2.718 -0.4025  0.0581 -0.3842
32597W        W47728   6.351  12.742  12.142 -0.0660  0.2483 -0.0950
32598W        W47729  10.399  14.581  15.033  0.0854 -0.0336  0.0531
32599W        W47730   7.381   1.099   0.530  0.0932 -0.0153 -0.0774
32600W        W47731  15.044   1.127   2.363 -0.0836  0.0774 -0.0316
32601W        W47732   9.567  13.844  13.045 -0.0487 -0.1822 -0.0332
32602W        W47733  17.313   1.605   0.914 -0.3216  0.3052 -0.1934
32603W        W47734  11.016   3.170  15.900 -0.0377  0.2722  0.0487
32604W        W47735  10.180  16.431  11.983 -0.0220 -0.0435  0.1315
32605W        W47736  11.161   7.707   1.849  0.1005 -0.2354 -0.1434
32606W        W47737  17.931  12.432   1.169 -0.0402 -0.0467 -0.1316
32607W        W47738   5.033  16.321  11.951  0.1593 -0.1296 -0.0987
32608W        W47739   7.055   2.145  13.092 -0.0562 -0.0688 -0.1155
32609W        W47740   7.205   5.520   2.727 -0.3448  0.0652  0.4047
32610W        W47741   2.234   2.517   3.071  0.0130  0.2672 -0.1526
32611W        W47742  14.104   9.971  12.032 -0.0273  0.1343 -0.4060
32612W        W47743   5.170   8.857   3.457  0.4785 -0.0625 -0.2068
32613W        W47744   6.795   3.551  14.271 -0.0822  0.0165 -0.0253
32614W        W47745   3.210   5.349  11.924  0.4279  0.2280 -0.2326
32615W        W47746  18.200  10.094  12.279 -0.1771  0.1627 -0.2284
32616W        W47747  12.657  17.640  15.203  0.2619  0.1142 -0.2190
32617W        W47748   4.876  11.096  12.051 -0.0249 -0.1351 -0.0527
32618W        W47749   9.069  14.843   0.796  0.0351 -0.0659 -0.1259
32619W        W47750  10.344  11.636  15.979 -0.0396 -0.2842  0.0860
32620W        W47751  12.493  18.161  10.196  0.1386  0.2189 -0.0394
32621W        W47752   8.896   2.793  11.409 -0.1005 -0.0173  0.0591
32622W        W47753  18.097   6.135   3.944 -0.1479  0.3362  0.2586
32623W        W47754   1.225   6.936  12.085 -0.1597  0.0817  0.2752
32624W        W47755  12.666   5.202  13.920 -0.0287 -0.1060 -0.2133
32625W        W47756  11.761   1.187  13.790  0.2806  0.1053  0.2060
32626W        W47757   1.713   3.824   4.810  0.1190 -0.0427  0.1519
32627W        W47758  12.504   0.740  14.752  0.1246 -0.1832 -0.0424
32628W        W47759   8.524   5.022   4.657 -0.3232 -0.2126 -0.1100
32629W        W47760  12.645   0.917   3.912  0.2881  0.1139 -0.0921
32630W        W47761  12.812  12.215  14.296  0.1585 -0.2119  0.3686
32631W        W47762   5.089   1.359  12.129  0.0479 -0.1099  0.0206
32632W        W47763  17.189  15.514   3.466 -0.2008  0.0031 -0.1063
32633W        W47764  10.398  11.243  12.778 -0.1721 -0.1277 -0.0750
32634W        W47765  17.342  16.878  12.917 -0.0526  0.1393 -0.0418
32635W        W47766  15.294   6.198  11.824 -0.1647  0.1115 -0.1625
32636W        W47767  11.763   3.725  10.834 -0.0674  0.1974  0.1523
32637W        W47768   9.862  11.442   4.835  0.0993  0.3162 -0.2154
32638W        W47769   3.868  12.721  11.807  0.1637  0.1729 -0.1663
32639W        W47770  11.891   8.376   5.450  0.3095  0.0303  0.1068
32640W        W47771  13.731   0.984   4.959  0.0930  0.0112  0.1119
32641W        W47772   7.123   8.493  10.444 -0.3134 -0.1179  0.1476
32642W        W47773  12.601   1.557  13.109 -0.2688 -0.0135  0.0636
32643W        W47774  11.026  17.694   1.999  0.1861  0.1715 -0.2176
32644W        W47775   7.178   6.777   6.019 -0.1842  0.1109  0.0877
32645W        W47776   0.688   2.671   4.769  0.0043  0.0439 -0.1276
32646W        W47777   4.109  15.185   4.829 -0.1902 -0.1382  0.1426
32647W        W47778   7.596   7.451  14.938 -0.0632  0.0698  0.3907
32648W        W47779  14.434  10.519  12.364 -0.2717 -0.1888  0.0345
32649W        W47780  18.293  14.199  13.186  0.2391 -0.2076 -0.0426
32650W        W47781  17.886  15.065  15.076 -0.4227  0.0793  0.0307
32651W        W47782  10.693   3.581  12.989 -0.0412  0.0043 -0.0394
32652W        W47783   0.407   0.334   0.487  0.0651  0.0437 -0.2453
32653W        W47784   7.724   2.951   0.874  0.0260 -0.2384  0.1438
32654W        W47785  14.089   7.543   1.508  0.0540  0.0866  0.0255
32655W        W47786   5.093   3.894   2.826  0.0455 -0.3601  0.2113
32656W        W47787   5.569   0.168  10.832  0.0551  0.0835 -0.1740
32657W        W47788   5.687  14.233   2.746  0.0898 -0.1151  0.3376
32658W        W47789  15.608  15.706  11.939 -0.0079  0.2189  0.0471
32659W        W47790  14.956  15.185   5.047 -0.0319 -0.2816  0.2456
32660W        W47791   5.665   2.067  12.892  0.0814  0.0973 -0.2655
32661W        W47792   2.406   8.640  10.943  0.0818  0.2544  0.3042
32662W        W47793  11.136  18.479   5.517 -0.0411  0.1512 -0.1429
32663W        W47794   2.966   1.715  14.001  0.0061 -0.4023 -0.1894
32664W        W47795  13.237  17.161   2.380  0.1380  0.0819  0.2317
32665W        W47796  15.128  11.196  15.302  0.1854  0.0361  0.2673
32666W        W47797  14.033   2.426   3.764 -0.2695  0.0776  0.3606
32667W        W47798  11.969  13.503   4.484  0.0835  0.2928 -0.2990
32668W        W47799  10.814  11.510   2.278 -0.0255 -0.0253 -0.0505
32669W        W47800   0.307   8.522  13.373 -0.0207 -0.2539 -0.1303
32670W        W47801  15.379  16.897  13.568 -0.0213 -0.1029  0.2553
32671W        W47802   8.537   5.379  10.532 -0.0802  0.2669 -0.0376
32672W        W47803  15.158  12.982   1.236  0.0928  0.4626  0.0687
32673W        W47804   1.994   6.596   0.573  0.1539  0.3745  0.1306
32674W        W47805   4.765   1.450  13.771  0.0609  0.2018  0.0230
32675W        W47806  10.312  17.446  13.877  0.2025  0.0851  0.0531
32676W        W47807   3.123   1.710   3.801  0.0849 -0.5744  0.0694
32677W        W47808  10.524   0.613  14.381 -0.0304  0.1363  0.0893
32678W        W47809   9.875  14.750   3.266  0.0430 -0.0502  0.0615
32679W        W47810  11.715  12.127  13.383  0.2862 -0.4033  0.2948
32680W        W47811   0.139   3.089  15.120 -0.0657 -0.2755 -0.2632
32681W        W47812   2.592  11.584  13.374  0.1243  0.1155  0.0562
32682W        W47813   6.121  16.384   3.569  0.1602  0.1716  0.4298
32683W        W47814   3.002   4.918   5.315  0.0032  0.1487 -0.3440
32684W        W47815   1.261  14.874  10.431  0.1589  0.3141  0.1022
32685W        W47816   8.300   1.583   2.039  0.3389 -0.0611  0.1243
32686W        W47817  17.536   3.625   4.122 -0.2429  0.0957  0.1433
32687W        W47818  16.113   6.610  15.394 -0.1380 -0.2035  0.0535
32688W        W47819  10.685   0.368  13.079 -0.0112 -0.0608 -0.0465
32689W        W47820  11.919  10.689  13.292  0.2578  0.1955  0.2638
32690W        W47821  11.994   3.170  15.776  0.1020 -0.2954 -0.1812
32691W        W47822   7.732   3.497  11.507 -0.0790 -0.1744  0.0764
32692W        W47823   8.234  16.793   4.753  0.3017 -0.1197  0.0615
32693W        W47824   3.566  16.400  12.193 -0.0632  0.2954  0.3316
32694W        W47825  18.453   6.821  15.874 -0.2988  0.1394  0.1447
32695W        W47826   7.791  16.605   4.513  0.2471  0.1093 -0.2310
32696W        W47827  15.328   3.397  14.369  0.1196  0.2555  0.0455
32697W        W47828  14.487  12.453  11.703  0.0596  0.1012 -0.0394
32698W        W47829  11.173  16.918   2.329 -0.0833 -0.0862  0.0126
32699W        W47830  15.402   4.772   2.950  0.0443 -0.0253  0.2248
32700W        W47831   9.258  10.227   4.314  0.0147 -0.0272  0.0584
32701W        W47832  12.673   3.451  11.100  0.2150  0.0392 -0.1141
32702W        W47833   5.487   4.921   3.023 -0.0851  0.0373 -0.1460
32703W        W47834   8.201   2.814  13.457 -0.0581  0.1198  0.0740
32704W        W47835  15.703   8.835   0.540 -0.0781 -0.0144 -0.0378
32705W        W47836  13.563  10.530   1.428  0.1494 -0.5077  0.2002
32706W        W47837   9.604   7.439  12.166 -0.3047  0.2903  0.1768
32707W        W47838  10.973   2.609   0.461  0.1913 -0.3157  0.0848
32708W        W47839  15.207  13.615  12.425 -0.1431 -0.0500 -0.3805
32709W        W47840  16.440  11.700  12.497  0.0235  0.3573 -0.0135
32710W        W47841  16.235  16.315   4.294 -0.0112  0.0004 -0.1564
32711W        W47842   7.370  16.372   5.348  0.0989  0.3593  0.0932
32712W        W47843  15.937   2.265   3.367  0.1083 -0.3062 -0.1316
32713W        W47844  13.414   3.983   2.769 -0.0117 -0.1649 -0.0543
32714W        W47845  10.492  14.617   5.052 -0.0931  0.0324  0.1256
32715W        W47846   2.333   9.857   4.928 -0.2051  0.1861 -0.0531
32716W        W47847  15.557   9.426  10.654  0.0761  0.2869  0.0575
32717W        W47848  12.054   3.288  14.000 -0.0800 -0.3433  0.0762
32718W        W47849  14.632   1.061   1.997 -0.0530  0.1760 -0.2052
32719W        W47850   2.440   6.987  12.868 -0.1836 -0.1203 -0.0447
32720W        W47851   6.479   0.548   2.124 -0.0867 -0.0591 -0.0661
32721W        W47852  14.401  16.054   2.027  0.2802 -0.0219  0.2004
32722W        W47853   7.396  14.281  11.050 -0.1242 -0.3695  0.0359
32723W        W47854  14.982  10.997   1.112  0.1628  0.0767  0.0684
32724W        W47855   9.382   8.054   1.140  0.2794 -0.2546 -0.4928
32725W        W47856  11.788  12.482   4.278 -0.1475 -0.4858  0.1455
32726W        W47857  10.720   9.416  10.119  0.3582 -0.0881 -0.0406
32727W        W47858   6.314  13.341   4.627 -0.2613  0.2488 -0.0034
32728W        W47859   7.139   7.804  12.981 -0.1139  0.0555 -0.0237
32729W        W47860  12.140   4.927  13.098 -0.2397  0.1651  0.0319
32730W        W47861   0.228   9.182   2.200 -0.0153 -0.1312 -0.1162
32731W        W47862  15.551   2.565   2.345 -0.1416 -0.1795  0.1378
32732W        W47863  16.508  17.977  12.695 -0.0775  0.1669 -0.1221
32733W        W47864  13.578   3.913   4.915  0.1376  0.0873 -0.3741
32734W        W47865   9.645  12.409   4.201  0.2470 -0.2274  0.1074
32735W        W47866  12.817  11.733  15.256  0.0550 -0.1200 -0.0517
32736W        W47867   2.446   6.677   1.435  0.0484 -0.0587 -0.1297
32737W        W47868  13.516  16.353   3.824  0.1177  0.2266 -0.0212
32738W        W47869   5.646   2.214   3.972 -0.1501 -0.0009 -0.0451
32739W        W47870   6.529  13.365  14.973 -0.0739 -0.0620  0.0699
32740W        W47871  17.783   9.729   3.364  0.0239  0.0766  0.0720
32741W        W47872  12.116   5.762   3.640  0.2109  0.0093  0.2207
32742W        W47873   6.408   0.569  15.170 -0.2399  0.0415 -0.0835
32743W        W47874  11.568   7.247   0.505  0.0722 -0.4200  0.1975
32744W        W47875  17.290  11.735   2.648  0.0774  0.2462 -0.2541
32745W        W47876  16.196   0.292  12.505 -0.1259  0.0215  0.2485
32746W        W47877  14.302  10.512  14.603 -0.1753  0.1311 -0.2713
32747W        W47878  18.341   6.800   3.421  0.4328  0.1971  0.2144
32748W        W47879   0.719   7.365  12.929 -0.0931 -0.3723  0.4591
32749W        W47880  17.577  16.517   3.137  0.0212  0.3551 -0.0412
32750W        W47881  12.161   6.594   5.105  0.3120  0.0933 -0.1980
32751W        W47882   6.505   4.794   1.272  0.0449  0.2020  0.1217
32752W        W47883   2.092   1.009   4.038 -0.1231  0.4660  0.2028
32753W        W47884   2.206  12.609   2.006 -0.3755 -0.2155  0.0688
32754W        W47885   0.712   3.454   0.784  0.0575 -0.0283  0.4007
32755W        W47886   3.423   2.989  10.984  0.0316 -0.0065 -0.2766
32756W        W47887   2.258  17.809   4.230  0.0973 -0.4717  0.1565
32757W        W47888  16.232   8.664   1.804 -0.1206  0.2104 -0.3604
32758W        W47889  12.251   6.262  12.582 -0.3478  0.0917  0.2970
32759W        W47890   5.457   6.934  12.871 -0.0905 -0.1195 -0.0672
32760W        W47891   4.187   4.001   1.574 -0.2286 -0.0337  0.1353
32761W        W47892  14.081   0.622  12.863 -0.0240 -0.1904 -0.0320
32762W        W47893   7.980   8.428   0.027  0.1104  0.1929  0.0045
32763W        W47894   2.097  16.537  15.057 -0.0179  0.0235  0.2697
32764W        W47895  16.629   2.500   9.825 -0.0821 -0.1598  0.0285
32765W        W47896   4.543  18.433  13.287 -0.1937 -0.2380  0.0196
32766W        W47897   5.508  15.304   0.476 -0.1025 -0.4985 -0.2857
32767W        W47898   8.255   8.664  14.062 -0.0255  0.1529 -0.1913
32768W        W47899  14.864  18.160   3.394  0.3402 -0.0929 -0.1161
32769W        W47900  17.807   3.154   3.468 -0.0105  0.1378 -0.1314
32770W        W47901   6.434  11.796   4.058 -0.0760  0.0710 -0.1314
32771W        W47902   2.417   8.656   3.945 -0.1474 -0.1221 -0.3608
32772W        W47903  10.448   1.332   5.766  0.1512 -0.0978  0.0531
32773W        W47904   1.752  11.348   1.682  0.0572 -0.0142 -0.3816
32774W        W47905  16.080  12.202  14.582  0.0675  0.0003  0.1802
32775W        W47906   4.356   3.597  12.491 -0.0896 -0.2068  0.0735
32776W        W47907  11.013   0.280   5.069 -0.2050  0.1941  0.0924
32777W        W47908  10.592   9.536   1.125  0.2144 -0.1051 -0.0591
32778W        W47909   4.482   2.213  15.372  0.0340 -0.0694  0.0078
32779W        W47910   0.835  14.008   0.688 -0.2548 -0.1984 -0.2719
32780W        W47911  10.583   8.129   4.382 -0.0537  0.0332 -0.3291
32781W        W47912  13.822   3.488   0.044  0.0001  0.0557  0.3541
32782W        W47913  10.261   9.925   0.431  0.1661 -0.1199 -0.0873
32783W        W47914  15.702  10.680  10.159  0.0377  0.2341  0.2814
32784W        W47915   8.355   9.986   0.004  0.0770 -0.0145 -0.1807
32785W        W47916  16.563   2.474   2.352  0.1219  0.0162  0.1266
32786W        W47917   6.106  12.014   2.441  0.2893 -0.1918 -0.1147
32787W        W47918   7.403  18.010  11.381  0.1641 -0.3281  0.3607
32788W        W47919   8.978   4.962  14.078  0.0284  0.0394 -0.0868
32789W        W47920   8.337   2.205   3.246 -0.1507  0.3313 -0.0685
32790W        W47921   9.049   4.667   0.126  0.2920 -0.0258 -0.0320
32791W        W47922   3.315  17.944   2.922 -0.2519 -0.0960 -0.2471
32792W        W47923   5.532  18.192  10.579 -0.3684  0.3768  0.0662
32793W        W47924   5.934  13.714   1.415 -0.0310  0.1462  0.0550
32794W        W47925   0.131  12.276   2.363 -0.1444  0.2351 -0.1522
32795W        W47926   9.271   6.091  13.063 -0.0822  0.2415  0.1363
32796W        W47927   4.940   3.843  12.523 -0.0260  0.2005  0.0314
32797W        W47928   4.177  10.068  12.715 -0.1406 -0.2143 -0.0540
32798W        W47929   1.482  13.787  15.822 -0.2721  0.1163 -0.2586
32799W        W47930  13.088   0.378   4.588 -0.1507 -0.2031  0.1813
32800W        W47931   3.096  11.279   5.247  0.0826  0.1793  0.0815
32801W        W47932  14.104  10.794   1.886  0.1219 -0.0152  0.1805
32802W        W47933   5.668  10.389  11.000  0.1256 -0.0795  0.0970
32803W        W47934   4.057  12.186   0.255  0.0576  0.0723 -0.1086
32804W        W47935  17.190   7.208   1.514  0.3208 -0.1355 -0.1403
32805W        W47936   5.056   5.368   0.561 -0.0820 -0.3193  0.0842
32806W        W47937   7.484   8.980   4.373  0.0730  0.0101  0.2070
32807W        W47938   3.227  18.207   2.139 -0.4398 -0.0437  0.0227
32808W        W47939   4.182  16.801   5.446  0.1820 -0.0462 -0.1057
32809W        W47940   6.809   4.374  11.474 -0.1294 -0.0698 -0.1879
32810W        W47941  13.783   5.035  14.534 -0.4376  0.1094 -0.2702
32811W        W47942   4.544   0.026  14.694  0.2341 -0.3634 -0.0729
32812W        W47943  15.624   7.916   6.524  0.0989 -0.2872  0.0100
32813W        W47944   0.042   6.883   1.353 -0.0475  0.0830 -0.0738
32814W        W47945   4.434   2.729   3.817  0.0850  0.0335  0.0833
32815W        W47946   7.205   8.094   6.612  0.5339 -0.1341 -0.0822
32816W        W47947   2.265   4.333   2.286 -0.1798 -0.2467 -0.2864
32817W        W47948  10.796   8.758  10.841  0.0881  0.0730  0.0298
32818W        W47949  17.786  15.168   0.544 -0.0661 -0.2901  0.5397
32819W        W47950  10.663   0.111  14.541 -0.0858  0.4416 -0.1681
32820W        W47951  14.004  12.082   1.882  0.0448  0.2800  0.2529
32821W        W47952   9.398  12.291  11.753 -0.2347 -0.0384  0.1400
32822W        W47953   5.029   3.496   4.157 -0.1247 -0.3109  0.0569
32823W        W47954   0.705   9.124   5.626  0.2978  0.2375  0.3071
32824W        W47955  11.003   4.017   5.745  0.1277  0.1475 -0.0023
32825W        W47956  14.763   2.960   1.288  0.0379 -0.1879  0.0745
32826W        W47957  13.691  14.243  14.463 -0.0552 -0.3642 -0.0034
32827W        W47958   9.623   2.922  14.817  0.1225  0.1658 -0.1240
32828W        W47959   6.865   5.214  11.132 -0.1277  0.0914 -0.2664
32829W        W47960   2.771   3.183  15.132  0.1093 -0.1023  0.0838
32830W        W47961   5.857   9.327  13.295 -0.0950 -0.1035  0.0188
32831W        W47962   8.349  13.726  14.355  0.3522  0.1099 -0.0916
32832W        W47963   2.390   1.545  10.519  0.3123 -0.0051  0.4695
32833W        W47964   6.338   2.738  13.282  0.1937 -0.0062  0.3884
32834W        W47965   0.341   3.666   2.678  0.4962 -0.1986  0.2885
32835W        W47966   5.799   7.687   2.828 -0.0650 -0.1097 -0.0570
32836W        W47967  14.993  11.534  13.340 -0.0496  0.4420  0.1986
32837W        W47968   5.625  13.186   0.446  0.1126  0.1710 -0.1277
32838W        W47969   9.371  11.125   3.278 -0.2811  0.2740 -0.0850
32839W        W47970   9.122  17.438   2.919 -0.0308 -0.1329  0.0412
32840W        W47971  10.226  17.129  13.014 -0.0193 -0.1184 -0.0440
32841W        W47972  11.711   5.220   1.071  0.1204  0.1304 -0.2532
32842W        W47973   1.434  18.110   1.345  0.4550 -0.0631 -0.0704
32843W        W47974  15.662  13.012  11.169  0.0166  0.0028 -0.1318
32844W        W47975  10.361   3.745  12.228 -0.0377  0.2275  0.2168
32845W        W47976   7.614  12.446  14.557 -0.2593 -0.1473  0.0015
32846W        W47977  12.322   6.676   2.700 -0.0894  0.2180  0.1238
32847W        W47978   5.860  17.963  13.535 -0.2774  0.0742 -0.1907
32848W        W47979   7.688   8.819  11.465 -0.2604 -0.0476 -0.0232
32849W        W47980  16.555   6.950  15.582 -0.1166  0.0611 -0.0366
32850W        W47981   6.417   1.865  11.747  0.0599  0.0429  0.0569
32851W        W47982  18.328  10.702   1.629  0.2291 -0.1863 -0.0167
32852W        W47983  14.234   2.505  11.372 -0.0371 -0.1176  0.1971
32853W        W47984   9.315   6.452  12.599 -0.2373  0.0462  0.2202
32854W        W47985  13.660  14.321   3.835 -0.0263 -0.0534 -0.2146
32855W        W47986  17.909   7.128  14.975 -0.0065  0.1558  0.0481
32856W        W47987   9.775  16.841   4.723 -0.2900 -0.2319  0.1119
32857W        W47988   4.628   2.037  14.971  0.0803  0.2358 -0.2423
32858W        W47989   4.099  13.034   1.279  0.1314  0.3132  0.2337
32859W        W47990   7.137  13.966   1.481 -0.1265 -0.2553 -0.0474
32860W        W47991   0.418   0.889  14.472 -0.0604 -0.2444  0.3574
32861W        W47992  11.542   8.358   4.657  0.0561 -0.4074 -0.2933
32862W        W47993   9.509   5.690  11.342 -0.1859  0.1570 -0.3654
32863W        W47994   9.199   1.513  13.433 -0.0015  0.1686  0.2198
32864W        W47995  11.194   1.043   3.873  0.1461 -0.0592 -0.2320
32865W        W47996  18.392  15.656  15.939 -0.1646 -0.0457 -0.0650
32866W        W47997   9.821   2.217   4.451 -0.2183  0.2098  0.0280
32867W        W47998  17.383  14.714  13.008  0.2105  0.2672 -0.0799
32868W        W47999   1.619  12.780   5.101  0.2259 -0.1182 -0.0070
32869W        W48000   6.478  17.053   5.181  0.4855 -0.1282 -0.0067
32870W        W48001   0.851  18.243   5.226 -0.0962  0.1191  0.0736
32871W        W48002   0.545  13.959  13.622  0.1642 -0.0752  0.1777
32872W        W48003  10.292   0.181   1.245  0.1189  0.3081  0.0308
32873W        W48004   5.330  12.712   3.600 -0.0745  0.0940 -0.2040
32874W        W48005   7.078   3.628   3.812  0.3492 -0.2009  0.0680
32875W        W48006   7.523  14.494   6.027  0.2328  0.0107 -0.1238
32876W        W48007   5.823  18.401   0.128  0.1401  0.1245 -0.3885
32877W        W48008   1.884   2.985  14.910  0.1177 -0.2504  0.0984
32878W        W48009  10.427  14.851   1.625 -0.0836  0.3970 -0.0351
32879W        W48010   9.322  17.516   0.548 -0.1598 -0.0017 -0.4216
32880W        W48011   4.157   2.740   3.432 -0.0679 -0.1318 -0.2004
32881W        W48012  10.973   9.266   1.830 -0.2969  0.0227 -0.0642
32882W        W48013   6.525   6.908   4.093 -0.2059 -0.0241 -0.1786
32883W        W48014   6.001   1.179   2.233  0.0171  0.2182  0.0465
32884W        W48015  11.581  11.254   0.959 -0.1450  0.0204 -0.0590
32885W        W48016  12.480   4.579  13.305  0.0284  0.1500 -0.2391
32886W        W48017   4.645   0.036   0.061  0.0205  0.4178 -0.1051
32887W        W48018  11.818  11.971   2.420  0.1165  0.2418  0.1155
32888W        W48019   3.325   7.928   2.703  0.2883 -0.1924 -0.1971
32889W        W48020   9.422  14.912   2.144  0.0999  0.1400  0.0535
32890W        W48021  17.239  17.116  11.267 -0.0848  0.3096  0.0042
32891W        W48022  11.212   7.488  12.205  0.0578  0.2945  0.0006
32892W        W48023  12.802   1.398   2.755 -0.0729  0.1391  0.2759
32893W        W48024   4.583   7.271   3.866 -0.1856 -0.0489 -0.0600
32894W        W48025  17.101   3.734  12.195  0.0006 -0.1751 -0.0470
32895W        W48026   2.029   2.605  15.964 -0.1841  0.0123 -0.2368
32896W        W48027  16.840  16.329  15.664  0.0701 -0.0412 -0.1145
32897W        W48028  16.065   2.029  12.053  0.2054 -0.5380 -0.2831
32898W        W48029   4.032   2.292  10.840  0.0248 -0.1378  0.0103
32899W        W48030  12.270   9.695  11.819 -0.0718 -0.2108 -0.0231
32900W        W48031   9.174  14.453  12.958  0.2246 -0.1478  0.3134
32901W        W48032   5.984   5.463   0.085  0.2090  0.0202 -0.1138
32902W        W48033   8.673   8.581   2.420  0.2698 -0.0110  0.0144
32903W        W48034  16.796   9.186   0.252 -0.2043 -0.1416 -0.2660
32904W        W48035   5.214  15.419   4.524 -0.1428 -0.5616  0.1945
32905W        W48036   7.906  12.183  13.041 -0.1418 -0.0426  0.0531
32906W        W48037   8.963  18.434  12.262 -0.1244  0.0571  0.2083
32907W        W48038   1.232   9.123  11.106 -0.0545  0.2588 -0.2737
32908W        W48039   5.607  13.168  15.585  0.0462 -0.0575  0.0304
32909W        W48040  15.409   3.668  11.955 -0.0606  0.2009  0.3092
32910W        W48041   3.846  17.430  15.196 -0.0356 -0.2867 -0.2270
32911W        W48042  12.235   7.416  12.345 -0.2099 -0.0959 -0.1941
32912W        W48043  16.811  17.859  15.338  0.5437 -0.0293 -0.1373
32913W        W48044   1.025  10.430   1.545  0.1336 -0.0956 -0.0931
32914W        W48045  13.824  10.738  14.790 -0.0759  0.3024 -0.0428
32915W        W48046  14.991   6.196  14.778  0.0188 -0.0464  0.0984
32916W        W48047   1.700  15.814  15.494 -0.2028  0.0365  0.1478
32917W        W48048   3.011   8.505   5.781  0.0065  0.0202  0.0546
32918W        W48049  14.054  10.353  15.042  0.0605 -0.0477  0.2629
32919W        W48050   2.664  14.849   0.161  0.0249  0.1426  0.0888
32920W        W48051  16.541   1.199   5.926  0.1841 -0.1950 -0.2313
32921W        W48052  14.246  11.486   3.052  0.1027 -0.0250  0.2420
32922W        W48053   0.620   9.838   2.779 -0.0424  0.1824  0.3679
32923W        W48054  11.106   1.705   1.725 -0.1736  0.1357  0.0939
32924W        W48055  15.702  18.411   3.479 -0.4320 -0.1299  0.1298
32925W        W48056   8.065  17.432  11.130  0.1875  0.1206  0.2356
32926W        W48057  12.822  12.494  12.568 -0.2071  0.2317  0.2089
32927W        W48058   5.698   0.257   5.206  0.1183 -0.1248  0.0703
32928W        W48059  12.600  10.864  14.446 -0.3386  0.0445  0.2210
32929W        W48060  10.034  17.835   5.383  0.3576 -0.1368  0.0639
32930W        W48061   4.664   9.347   5.894 -0.0206  0.2470  0.0331
32931W        W48062   5.796   4.874  12.507  0.1481 -0.2163  0.2778
32932W        W48063  13.415  11.756   2.815 -0.1460 -0.1397 -0.2383
32933W        W48064   3.811   5.925  11.616 -0.0976 -0.0303  0.1123
32934W        W48065   8.853  12.014  13.371 -0.0851 -0.0199  0.2685
32935W        W48066  13.391   1.791  14.718  0.2587  0.3393  0.0120
32936W        W48067   8.480   6.427   1.980  0.1446 -0.2433 -0.4042
32937W        W48068   5.875   0.784  10.845 -0.1153  0.1022  0.0223
32938W        W48069  16.385  18.443  13.968 -0.0644 -0.1831 -0.1067
32939W        W48070   1.635   8.223  13.591  0.1553 -0.1795 -0.1241
32940W        W48071  14.352   2.258  12.623  0.0111 -0.0655 -0.0074
32941W        W48072  12.122   0.903  13.087 -0.1255  0.2877 -0.0105
32942W        W48073   0.509  12.720   1.007 -0.3135  0.2593  0.1265
32943W        W48074  16.338   1.495   4.165 -0.0860 -0.0249 -0.0802
32944W        W48075  13.107   2.981  11.949 -0.0633 -0.0956 -0.0933
32945W        W48076   8.716  14.710  12.450  0.1649  0.0687 -0.2792
32946W        W48077   3.227   3.652   5.193 -0.1605 -0.2846 -0.1960
32947W        W48078  16.281   6.335  13.800  0.1456 -0.0930  0.1044
32948W        W48079  11.219   5.561   5.339  0.2260  0.1332  0.3665
32949W        W48080   0.184   3.427   0.573 -0.2015 -0.1142 -0.3414
32950W        W48081   9.985  14.012   1.300 -0.2131 -0.2625 -0.0794
32951W        W48082   2.176   2.177  11.324 -0.0692  0.0868  0.1243
32952W        W48083  14.172  14.401  15.821  0.1266  0.2813 -0.1774
32953W        W48084   9.642   5.054   5.748  0.4919  0.1407  0.1048
32954W        W48085  11.541   1.498  11.538 -0.1579  0.0407  0.2348
32955W        W48086  11.834   3.251  13.468 -0.0207 -0.1223  0.1314
32956W        W48087  15.141  12.585  15.821 -0.2782 -0.1753  0.0012
32957W        W48088   9.760   3.305  13.880  0.1062 -0.0743  0.0739
32958W        W48089   0.248   3.142   2.579 -0.0036 -0.1910 -0.0465
32959W        W48090  15.928   4.487  12.817 -0.0610 -0.4154  0.0121
32960W        W48091   1.737  12.282  15.094  0.0374 -0.1377 -0.0839
32961W        W48092   8.494   2.602   4.453 -0.1136 -0.1566  0.1025
32962W        W48093  13.632   3.666  13.521 -0.0618 -0.4518 -0.1657
32963W        W48094   6.471  14.677   0.902 -0.0499  0.1254  0.0974
32964W        W48095   9.948   5.569   2.694 -0.2270 -0.4245  0.3978
32965W        W48096   4.374  15.629   0.383  0.1868  0.3067  0.1885
32966W        W48097   2.057   4.129  15.889 -0.2503  0.0936  0.1341
32967W        W48098   4.254   4.520   1.813  0.1180  0.1819 -0.3818
32968W        W48099  14.101   4.580  14.656  0.0222 -0.1304 -0.1103
32969W        W48100  14.424  13.206  13.250  0.1384  0.1787  0.1197
32970W        W48101  16.663  11.904  14.518 -0.0284  0.1595  0.1259
32971W        W48102   2.843   0.074   3.552  0.1950 -0.1655  0.3142
32972W        W48103   3.272  17.368  15.273  0.5107  0.1191  0.2419
32973W        W48104  15.022   7.634   3.874 -0.2159 -0.2290 -0.0628
32974W        W48105   2.752  13.983  15.691  0.2596  0.1094  0.4131
32975W        W48106   7.760  11.610   3.640 -0.0495  0.2036 -0.1245
32976W        W48107  13.376   0.757   4.682  0.3900 -0.3005 -0.5796
32977W        W48108   9.557   4.401   5.094  0.1127 -0.2616 -0.2788
32978W        W48109  15.008  14.089  12.509 -0.1649 -0.0430  0.1311
32979W        W48110  15.042  14.947   0.794 -0.2708 -0.1062 -0.1592
32980W        W48111   9.248  13.362  15.424  0.3053 -0.1790 -0.0121
32981W        W48112   1.998   3.431   4.993 -0.2251  0.0504  0.0924
32982W        W48113  13.441  18.080  11.180 -0.0845  0.1715  0.0764
32983W        W48114   8.319   6.447   4.531  0.1136  0.0157 -0.0348
32984W        W48115   5.972  16.742  11.741 -0.1593  0.0031  0.2703
32985W        W48116  14.742   2.404  14.686  0.0323  0.0004  0.0788
32986W        W48117  16.153  18.467   5.184 -0.0926 -0.4995  0.2545
32987W        W48118   7.136  11.279  12.795  0.0085 -0.1095  0.2675
32988W        W48119   1.247  15.246  12.157  0.0440 -0.1931 -0.3309
32989W        W48120  10.765  13.542  11.386 -0.3212  0.2077 -0.0697
32990W        W48121   5.703  17.074  13.959  0.2103 -0.2226  0.3234
32991W        W48122   9.240   4.761   5.468  0.2244 -0.3368 -0.0425
32992W        W48123  16.024  13.481   1.026 -0.1005  0.1131  0.3453
32993W        W48124  15.292   2.612   5.527  0.0018  0.0783  0.5490
32994W        W48125  14.505  14.232   0.275 -0.1101  0.0593 -0.1476
32995W        W48126  10.202   6.171  15.547  0.1647 -0.1922 -0.0780
32996W        W48127  11.961  10.411  12.600 -0.4044  0.1693 -0.3194
32997W        W48128   2.350   0.291   0.649 -0.0143  0.2508  0.1296
32998W        W48129  10.924   4.571   4.020  0.1738 -0.1638  0.0234
32999W        W48130   7.112  13.265  11.095  0.0902  0.2181 -0.2996
33000W        W48131   3.881  15.731  12.471 -0.0084  0.4588 -0.1175
33001W        W48132  14.931   3.478  15.185 -0.0133 -0.0394 -0.0805
33002W        W48133   6.038   9.801  15.523 -0.3387 -0.2795 -0.0963
33003W        W48134  16.800  13.796   0.766 -0.0539 -0.1891  0.1335
33004W        W48135   8.057   6.491   3.716  0.0979  0.2621 -0.2447
33005W        W48136  11.029  18.025  11.263 -0.2420  0.2297  0.0326
33006W        W48137  16.871  11.152  15.520 -0.0589  0.3275 -0.1667
33007W        W48138  15.051  10.545  10.897 -0.1921  0.2244  0.1694
33008W        W48139   7.211  12.275  10.852  0.0293 -0.3438 -0.2756
33009W        W48140   2.239   5.980   4.747  0.1267  0.2200  0.3043
33010W        W48141   2.465   0.917   3.661  0.2649  0.2939  0.2123
33011W        W48142  18.239   1.010  10.491  0.1797  0.2633 -0.1736
33012W        W48143   3.263   4.909   4.297 -0.0581  0.0363  0.0941
33013W        W48144  12.400  12.574  14.093  0.0723 -0.0369  0.1740
33014W        W48145  11.563   7.756   2.220 -0.1144 -0.1889  0.2914
33015W        W48146  17.816  11.119   5.339 -0.1674  0.1165  0.0516
33016W        W48147  16.805   5.784   1.258  0.1971  0.2369  0.2464
33017W        W48148  12.341  13.240  14.850 -0.1807  0.3190 -0.1026
33018W        W48149   0.480  11.449   0.588  0.1665 -0.1707 -0.3734
33019W        W48150  16.575  10.945   0.915  0.3802  0.0856  0.0442
33020W        W48151  14.010  14.349   1.568 -0.1814 -0.4647  0.1462
33021W        W48152   7.440   3.332  15.278 -0.0546  0.0390  0.1999
33022W        W48153   7.507   3.862  11.205 -0.1275  0.0909 -0.1454
33023W        W48154   9.569   7.691   1.969 -0.0452 -0.3794  0.2297
33024W        W48155  11.840  16.435   2.003  0.1477 -0.0212  0.1133
33025W        W48156   4.008  13.916   3.354  0.0806 -0.2153 -0.1502
33026W        W48157   6.955   4.555  15.556 -0.0062 -0.0115 -0.1789
33027W        W48158   8.162   8.281   0.504 -0.1710  0.1367  0.1749
33028W        W48159   9.298  17.539  13.749 -0.0444 -0.1337 -0.0807
33029W        W48160   0.934   8.144  15.241  0.0710 -0.0142 -0.2398
33030W        W48161  11.522   1.058  14.678  0.2830 -0.0287 -0.0327
33031W        W48162   6.214   4.133  14.965  0.0921 -0.1012  0.0611
33032W        W48163  12.948   5.319   5.609  0.0525 -0.1715 -0.0240
33033W        W48164   2.085  16.458  15.900 -0.0749 -0.0974 -0.0148
33034W        W48165   3.599   8.693   0.531 -0.0134  0.1281 -0.0211
33035W        W48166   5.881   1.792   0.344  0.0293 -0.1226  0.1021
33036W        W48167  16.379  15.916  12.923  0.1204 -0.0898 -0.2927
33037W        W48168   1.350   6.350  15.630 -0.0680  0.2424 -0.2080
33038W        W48169   2.403  10.509  15.901  0.0127 -0.0420 -0.0968
33039W        W48170  10.572   7.113  15.285  0.1616 -0.0367 -0.0387
33040W        W48171  17.123  15.502  12.447  0.2703  0.0704  0.0901
33041W        W48172  15.510  12.501   0.006 -0.3965  0.0079  0.1864
33042W        W48173   3.781  11.358   4.306  0.0730 -0.1850 -0.0543
33043W        W48174   4.183   0.567  14.659  0.4868  0.0298  0.0137
33044W        W48175  10.204  10.791   5.149 -0.0219  0.1989 -0.1494
33045W        W48176  11.023  17.147   2.796  0.0290  0.1449 -0.0221
33046W        W48177   7.680   5.039  15.061  0.0430  0.1626  0.1114
33047W        W48178   3.896   8.471   5.185  0.3916  0.2467 -0.2203
33048W        W48179   5.065   0.058   0.294  0.1639 -0.2526  0.1014
33049W        W48180   3.292  16.131   2.460 -0.1698  0.2097  0.1143
33050W        W48181   6.681   9.312  15.154 -0.0014  0.2841 -0.1131
33051W        W48182   9.698  11.883  11.680  0.3358  0.0521 -0.0308
33052W        W48183   5.241   2.778   4.558 -0.0049 -0.1123  0.1129
33053W        W48184   7.562   0.354   2.290 -0.1896  0.2744 -0.2902
33054W        W48185   2.360   6.635  10.778 -0.3853  0.1482 -0.0601
33055W        W48186  12.405  15.892   0.728 -0.3629  0.1094 -0.1542
33056W        W48187  10.259   3.516   1.122  0.0198 -0.0852  0.4374
33057W        W48188  15.429   6.073   1.497  0.1765  0.1375  0.3033
33058W        W48189   8.632  14.463   2.618 -0.0043  0.0663  0.2164
33059W        W48190   0.472   5.786   0.848  0.2184  0.0412 -0.0610
33060W        W48191   1.489   3.261   4.044  0.0175  0.0284 -0.2571
33061W        W48192  11.501   3.070  15.527 -0.0594 -0.1517  0.1399
33062W        W48193  10.115  13.459   5.888  0.3847  0.1725  0.0285
33063W        W48194  10.504  17.260  10.016  0.1751 -0.1606  0.0602
33064W        W48195   6.298   1.326   1.318 -0.1383  0.1562  0.1055
33065W        W48196  15.667  16.129  10.867 -0.1592 -0.0709  0.0915
33066W        W48197  15.351   7.416  13.680 -0.0529 -0.2543  0.2795
33067W        W48198   9.644   4.606  12.005 -0.4240 -0.1501 -0.3624
33068W        W48199   7.710   0.733  11.839 -0.2824 -0.0659 -0.3102
33069W        W48200  14.316   1.136   1.637  0.1454 -0.1730 -0.1203
33070W        W48201  17.058   3.957   1.485 -0.2016  0.3047 -0.1945
33071W        W48202  14.074   7.596  14.535 -0.0581  0.0470 -0.1923
33072W        W48203   5.409  17.613  13.816  0.3122  0.4058  0.0374
33073W        W48204   0.971  17.702  12.933 -0.2019 -0.2064  0.3659
33074W        W48205   3.339  13.685  13.171  0.2081  0.1037 -0.0492
33075W        W48206   1.591  18.149  11.642 -0.0206 -0.0826 -0.4268
33076W        W48207  13.636   2.312  11.900  0.1182 -0.1110  0.0508
33077W        W48208  12.936   4.542  12.709 -0.2943  0.0969  0.2514
33078W        W48209   0.200  16.997  11.741 -0.2232 -0.2753 -0.1543
33079W        W48210  16.710   3.432  12.089  0.3850  0.3502 -0.2496
33080W        W48211  11.374  16.335   0.468 -0.0714 -0.2098 -0.0477
33081W        W48212   1.312  17.634   4.319  0.2542  0.0865 -0.1236
33082W        W48213   6.652  12.860  11.624 -0.1542 -0.1384 -0.0109
33083W        W48214  10.840  16.946  14.656 -0.0754 -0.0609  0.1310
33084W        W48215   8.749   6.412   2.870 -0.0677 -0.3594 -0.3535
33085W        W48216   1.479  17.741  12.914  0.0198 -0.0545  0.1121
33086W        W48217   1.201   0.433   2.059 -0.3913  0.3585 -0.1281
33087W        W48218  11.851   1.442  13.124 -0.1503  0.3029  0.0534
33088W        W48219   6.234  16.621   0.613  0.0602  0.0152 -0.2838
33089W        W48220  11.189   5.800   4.116 -0.3008  0.1167 -0.2109
33090W        W48221   7.051   2.519  11.693  0.3723 -0.1285 -0.0382
33091W        W48222  10.414  15.326  10.605  0.2060  0.3905  0.1451
33092W        W48223  10.125  12.082  12.503  0.0794 -0.1269  0.0675
33093W        W48224  13.612  10.018   4.852 -0.4092  0.0849 -0.0340
33094W        W48225   2.877  15.918  10.569 -0.2615  0.0963  0.0599
33095W        W48226   7.385  14.530   3.246 -0.0834  0.4923 -0.0007
33096W        W48227   8.563  16.902  13.001 -0.5047 -0.0826 -0.2759
33097W        W48228  10.735   8.139   3.606  0.0507  0.0218 -0.0088
33098W        W48229   5.530   2.678  12.759 -0.1880 -0.0207 -0.1525
33099W        W48230   2.602  12.535  15.895  0.1971  0.3456 -0.1497
33100W        W48231   3.968  11.436   2.556  0.1602 -0.0437  0.0995
33101W        W48232   3.115   9.253  16.064  0.1906  0.3424  0.3388
33102W        W48233  14.238  16.088   2.941  0.0479 -0.2000  0.1092
33103W        W48234  13.927   3.403   0.506  0.1905  0.0651  0.2278
33104W        W48235   0.122  17.839   4.670  0.1261  0.5481  0.2442
33105W        W48236   6.901  11.227   3.250 -0.1888 -0.2013 -0.1244
33106W        W48237   4.985   3.440   2.345 -0.4009 -0.0495  0.1238
33107W        W48238  10.006  16.616  15.043 -0.1656  0.1307 -0.1339
33108W        W48239   8.985   4.687  15.315 -0.0761  0.1456 -0.1076
33109W        W48240  14.765   2.809   3.589 -0.1411  0.1867  0.2922
33110W        W48241  10.017  11.511  11.597  0.1635  0.4105 -0.1343
33111W        W48242   0.284  14.568  14.778 -0.0807 -0.3570 -0.0959
33112W        W48243   1.974   8.679  11.206  0.2560 -0.0099  0.1233
33113W        W48244   5.950  17.508   2.879  0.0729  0.1200  0.0734
33114W        W48245  13.214  17.934   5.431  0.2380 -0.1172  0.0658
33115W        W48246  15.988   5.453  14.968 -0.2776 -0.0243  0.1844
33116W        W48247  13.965   0.752   1.502 -0.2017  0.0917  0.1280
33117ION     NA48248   6.504   4.542  10.717 -0.1204 -0.3430  0.3294
33118ION     NA48249  15.045   1.514  10.528  0.1086 -0.0466  0.3511
33119ION     NA48250  13.526  17.338  12.799 -0.2053 -0.1103 -0.2169
33120ION     NA48251  14.391  11.510   5.860  0.3123  0.1536 -0.0098
33121ION     NA48252   7.704  10.114  12.062 -0.0742 -0.1822  0.0928
33122ION     NA48253  10.642  14.362   9.968 -0.2193  0.3455 -0.0782
33123ION     NA48254  11.815  18.211   6.042 -0.0983 -0.3405  0.0859
33124ION     NA48255   4.271   9.449  10.393 -0.0152 -0.2743 -0.1733
33125ION     NA48256  18.183  15.813  15.365 -0.2019  0.1879 -0.1641
33126ION     NA48257   1.184   3.027   9.886 -0.0577  0.1084  0.1023
33127ION     NA48258  14.489  14.974  10.089  0.0896  0.1414 -0.0110
33128ION     NA48259  10.876   9.369  10.568 -0.1036  0.3315 -0.0400
33129ION     NA48260  17.016   4.424  14.299  0.4466 -0.1686  0.3052
33130ION     NA48261  13.908  16.777   9.906  0.0101 -0.0080 -0.0213
33131ION     NA48262  12.164   9.822  10.472  0.1223  0.1310  0.1149
33132ION     NA48263  13.350  14.238  14.885 -0.1090 -0.2597  0.0853
33133ION     NA48264   2.807   3.607   9.764  0.0410 -0.1221  0.1201
33134ION     NA48265  12.262  16.120  15.039  0.4365 -0.2416 -0.1837
33135ION     NA48266  14.842   9.220  15.360  0.1623 -0.0904 -0.0031
33136ION     NA48267   0.409  14.638   9.909  0.1309  0.0339  0.1823
33137ION     NA48268  16.182  18.428   9.591  0.3102 -0.2263  0.4172
33138ION     NA48269   5.074   2.086  10.036  0.0264 -0.1947  0.1110
33139ION     NA48270  10.743   5.130  15.517  0.3331 -0.1764 -0.1361
33140ION     NA48271   0.638  17.184  11.465 -0.1126  0.1990  0.6784
33141ION     NA48272   9.732  16.079   5.846 -0.1442 -0.0254  0.3615
33142ION     NA48273   8.634   8.749   1.719 -0.0636  0.1894 -0.2975
33143ION     NA48274   1.440  14.406  10.573 -0.1136 -0.0221  0.2029
33144ION     NA48275   5.066  16.047   9.755 -0.1142 -0.2368 -0.0208
33145ION     NA48276  10.614  11.689   4.093 -0.0496 -0.0622 -0.0732
33146ION     NA48277  16.012   1.180   5.803 -0.1329  0.1446  0.0059
33147ION     NA48278   8.514   4.465  10.721  0.1794 -0.1410 -0.2705
33148ION     NA48279   7.309  15.748  10.061 -0.2085 -0.1391 -0.2300
33149ION     NA48280   6.920   9.832   6.219  0.3221 -0.2703  0.0600
33150ION     NA48281   3.905  10.245  10.437 -0.1669 -0.2359  0.1463
33151ION     NA48282   8.522  14.262   9.944  0.1419 -0.0748 -0.2593
33152ION     NA48283  13.185  15.083   5.062 -0.0389  0.2660 -0.0384
33153ION     NA48284  15.279   4.566   6.412  0.2402  0.0508 -0.0599
33154ION     NA48285   3.221  15.169   5.383 -0.2485 -0.1669  0.0708
33155ION     NA48286  17.228   8.065   5.816 -0.0465  0.2196  0.0835
33156ION     NA48287  15.256   8.462  15.069  0.0335  0.3267 -0.1529
33157ION     NA48288   1.724  15.599   9.999  0.2430  0.1244  0.2496
33158ION     NA48289  15.009   0.642   0.456  0.1156  0.4473  0.3481
33159ION     NA48290   7.425  17.811   5.433  0.1432 -0.1612  0.1283
33160ION     NA48291   7.934  16.885   2.697 -0.0550  0.0192  0.0690
33161ION     NA48292   5.960   5.901  10.998 -0.3027 -0.1207  0.1729
33162ION     NA48293  14.675  12.087  10.758 -0.1627  0.2572  0.0824
33163ION     NA48294  17.542   6.111  10.687  0.0031  0.0306 -0.0739
33164ION     NA48295  16.728   4.356   3.132  0.0565  0.1524 -0.0364
33165ION     NA48296   9.126  14.113  13.791  0.3385  0.0320  0.0376
33166ION     NA48297   1.238   8.691   3.539  0.2411  0.0226 -0.5128
33167ION     NA48298   0.529   1.101   9.461  0.2568 -0.0260 -0.0324
33168ION     NA48299   6.210   0.691  13.953  0.0201  0.2156  0.0513
33169ION     NA48300  16.175  16.979   9.886 -0.0720  0.2680 -0.1612
33170ION     NA48301  17.539   3.622  12.518  0.1380 -0.0639 -0.2956
33171ION     NA48302  17.971   1.232   9.874 -0.0360  0.0583 -0.1905
33172ION     NA48303   2.913   5.182   2.450 -0.1295  0.2043  0.2557
33173ION     NA48304  13.898   8.888   3.797  0.2691 -0.1747  0.0951
33174ION     NA48305  17.331   8.947  10.679  0.4888  0.1621 -0.0079
33175ION     NA48306   8.281  17.479  13.991  0.4102 -0.0292 -0.1661
33176ION     NA48307   6.087  14.772   9.916  0.0096  0.0478  0.0548
33177ION     NA48308  15.013   8.677   6.212 -0.3579  0.4891  0.0660
33178ION     NA48309  14.772  14.062  11.870  0.1227 -0.1126 -0.1837
33179ION     NA48310  12.182  17.677   4.308 -0.1007  0.0344  0.3445
33180ION     NA48311   9.173  10.846  10.829 -0.2796  0.0174 -0.1016
33181ION     NA48312   2.692  14.800  10.047 -0.1104 -0.3207 -0.0790
33182ION     NA48313   7.782   9.615   3.028 -0.2745  0.1796  0.1425
33183ION     NA48314   2.362   0.033   9.444 -0.0346  0.2089 -0.1130
33184ION     NA48315  13.890   9.258  13.563 -0.0459 -0.0802  0.0823
33185ION     NA48316  14.511   9.903   6.318  0.0885 -0.0706 -0.1754
33186ION     NA48317  14.902   0.402   9.986  0.0291 -0.1602  0.2046
33187ION     NA48318  16.865   3.025   3.850 -0.2578 -0.1366  0.2194
33188ION     NA48319  11.745   1.529  10.408  0.0107  0.0271 -0.4063
33189ION     NA48320  16.085   3.397   6.063  0.1658  0.2634 -0.1724
33190ION     NA48321   2.279   4.346   9.681 -0.4119 -0.0076 -0.1048
33191ION     NA48322  14.546   5.939  10.515 -0.2979  0.1688  0.0978
33192ION     NA48323   4.574   7.990  10.631  0.0309  0.0056  0.1324
33193ION     NA48324   8.401  10.806   3.320  0.0676 -0.1898  0.0047
33194ION     NA48325   4.869   0.771   9.934  0.1482  0.1336 -0.0766
33195ION     NA48326   9.716  10.203  10.476 -0.1927 -0.2554 -0.2147
33196ION     NA48327   4.340  11.059  10.055 -0.0698  0.1848  0.0758
33197ION     NA48328   9.961  10.552  11.132  0.1962  0.1316  0.5662
33198ION     NA48329   0.789   4.222  12.814 -0.0557 -0.0315  0.1683
33199ION     NA48330   3.824   4.581  10.530 -0.1605 -0.1534  0.1789
33200ION     NA48331   1.199  13.017   5.604 -0.0894 -0.4279  0.0524
33201ION     NA48332   2.651  11.781  10.172 -0.6623 -0.1325 -0.1552
33202ION     NA48333  17.029  16.724   9.976  0.2292 -0.0532 -0.1223
33203ION     NA48334   6.507   0.457  15.901  0.3591  0.1404 -0.0887
33204ION     NA48335  10.807  12.607  11.435 -0.1204  0.2189 -0.0869
33205ION     NA48336  13.369  12.707   5.897 -0.0256  0.0325 -0.1702
33206ION     NA48337   9.457   6.555  10.928  0.3884 -0.0422  0.2185
33207ION     NA48338   1.539   2.415  14.298 -0.2228  0.4948 -0.0420
33208ION     NA48339  12.879  15.844   9.945 -0.1752  0.0485 -0.0576
33209ION     NA48340   8.069  15.088  10.081 -0.0319  0.2604 -0.1651
33210ION     NA48341  12.604  13.317  12.900 -0.0820  0.0327  0.1849
33211ION     NA48342   2.830   4.309  14.108  0.4677 -0.0653  0.4380
33212ION     NA48343   5.258   0.015   9.839 -0.0371  0.3216 -0.0543
33213ION     NA48344   8.404   9.144   4.084 -0.1014  0.0038  0.4039
33214ION     NA48345   2.770   2.766   9.502 -0.2060  0.0456 -0.1261
33215ION     NA48346   9.558   9.670  11.124 -0.3029  0.0036  0.1992
33216ION     NA48347  18.390  12.077   5.690  0.0552 -0.1276  0.0876
33217ION     NA48348  10.140  16.946  16.040 -0.0346  0.0503 -0.2651
33218ION     NA48349   0.296   8.072   5.762 -0.3614  0.1591 -0.1757
33219ION     NA48350   6.470   2.661  10.381  0.1242 -0.2686  0.3229
33220ION     NA48351  10.562  15.727  10.065 -0.0894 -0.0019  0.0762
33221ION     NA48352   8.212  12.513  10.074  0.1712  0.1871  0.2466
33222ION     NA48353  17.349   7.242   5.767  0.0576  0.0001 -0.1709
33223ION     NA48354  16.106   0.802   9.929  0.3142  0.0772  0.2329
33224ION     NA48355   9.080   1.174  10.129 -0.2233  0.1313  0.0851
33225ION     NA48356   9.127   4.197  15.257  0.2870  0.1261  0.2417
33226ION     NA48357  11.734   2.624   0.914 -0.0589 -0.1051  0.1995
33227ION     NA48358  17.176   0.749  10.128  0.2294  0.0243 -0.0983
33228ION     NA48359  10.735   4.865   2.305  0.2677 -0.1070  0.2740
33229ION     NA48360   0.849  13.134   3.780 -0.2917 -0.1871  0.2139
33230ION     NA48361  12.375   2.818  10.731 -0.2123  0.0202  0.0032
33231ION     NA48362  14.949  14.551   2.770 -0.0185  0.1100  0.2867
33232ION     NA48363   6.127  10.212  10.303 -0.0577 -0.2241  0.0733
33233ION     NA48364  10.497  11.892   2.439 -0.4548 -0.2743  0.3197
33234ION     NA48365   2.483   0.707   4.700  0.0648  0.1191  0.0395
33235ION     NA48366  13.358  17.687  10.818  0.2425 -0.1558 -0.0358
33236ION     NA48367   1.979   7.380  11.435  0.1666  0.0030 -0.1295
33237ION     NA48368   5.836   1.852   3.160  0.1857 -0.0359 -0.0418
33238ION     NA48369   7.359   4.997  14.052 -0.1767  0.0162 -0.0314
33239ION     NA48370   6.762  17.255   9.883 -0.0350 -0.0459 -0.1911
33240ION     NA48371  13.578  10.469  11.980 -0.0318 -0.2188 -0.0880
33241ION     NA48372   4.945  13.475  10.196 -0.1165  0.2132  0.0969
33242ION     NA48373  17.711  10.699   5.778  0.2483  0.1528  0.0114
33243ION     NA48374   0.828  14.588  14.816  0.1266  0.0715  0.0823
33244ION     NA48375  12.033   8.012  10.646 -0.0019 -0.0205  0.0278
33245ION     NA48376  11.249  17.683   5.856 -0.3190  0.1123  0.0507
33246ION     NA48377  11.040   7.210  11.033  0.0171  0.1035 -0.3431
33247ION     NA48378   7.565   2.921  13.693  0.2421  0.2759  0.1940
33248ION     NA48379   2.085  11.850  12.120 -0.0510 -0.1472 -0.1160
33249ION     NA48380   5.427   7.400   0.574 -0.0790 -0.2895  0.0031
33250ION     NA48381  16.496   5.802  10.578 -0.0857 -0.2293 -0.0414
33251ION     NA48382   5.624  17.781   9.742 -0.1493  0.1837  0.1635
33252ION     NA48383  16.280   8.651  10.480 -0.3873 -0.4998  0.0928
33253ION     NA48384   3.454   8.768   3.734  0.3947  0.1309  0.1732
33254ION     NA48385   6.468  12.874  15.110  0.0913  0.0792  0.2109
33255ION     NA48386   1.226  15.927   9.385 -0.2249 -0.1060 -0.1379
33256ION     NA48387  14.016  11.430  10.415  0.2871 -0.3120  0.2514
33257ION     NA48388   6.139  16.213  10.425 -0.0174  0.2293  0.1685
33258ION     NA48389  16.166  11.151   5.516 -0.0722  0.1326 -0.2151
33259ION     NA48390  10.193   6.514   2.482  0.0199  0.0803 -0.1392
33260ION     NA48391  11.668   2.379  10.799  0.1880  0.1721  0.1706
33261ION     NA48392   1.130  11.397  10.289  0.0947  0.1287 -0.2564
33262ION     NA48393  11.032  13.446   2.511 -0.0413  0.2229  0.1158
33263ION     NA48394   8.980   9.493   1.033  0.2199  0.0262 -0.1548
33264ION     NA48395  11.453  16.899   5.939  0.1793 -0.2146  0.3038
33265ION     NA48396  10.023   3.289  10.376 -0.0903  0.1130 -0.0597
33266ION     NA48397  14.024  17.420  16.030 -0.0318  0.1485  0.3813
33267ION     NA48398   7.684   0.846   2.605 -0.1492  0.0494 -0.1818
33268ION     NA48399  16.240  16.728   0.592  0.1429 -0.0544  0.0746
33269ION     NA48400  16.318   9.374  14.275  0.1217 -0.2966 -0.1817
33270ION     NA48401  11.008   3.203  10.665 -0.2739  0.0304  0.1224
33271ION     NA48402   7.130  18.231   9.873  0.0064  0.4458  0.1341
33272ION     NA48403   0.983   7.176   1.071 -0.1913 -0.2133 -0.0440
33273ION     NA48404  17.540  14.121   1.278 -0.2975  0.1901 -0.0972
33274ION     NA48405  17.356  18.318   9.556 -0.1121 -0.0526 -0.1709
33275ION     NA48406  16.618   8.789   5.966 -0.1026 -0.2379  0.1420
33276ION     NA48407   6.004   6.828  10.242 -0.0691 -0.0451 -0.0910
33277ION     NA48408   6.810  14.908  10.084 -0.1568  0.2662  0.2149
33278ION     NA48409  17.784   9.663  14.410  0.0346 -0.0148 -0.0093
33279ION     NA48410  14.740   1.309  10.177 -0.0891  0.0898 -0.0826
33280ION     NA48411  12.798   1.294   5.519  0.0454 -0.0997  0.0095
33281ION     NA48412   4.360   6.023  10.115 -0.2996 -0.1803  0.1555
33282ION     NA48413   5.503   2.591   9.885 -0.1868 -0.0035 -0.1573
33283ION     NA48414   1.494   7.308   5.976 -0.0022 -0.0835 -0.2629
33284ION     NA48415   1.505   6.844  10.246 -0.2173 -0.3884 -0.1306
33285ION     NA48416   1.814  16.078   1.011  0.0217 -0.2039  0.0133
33286ION     NA48417  16.990  13.129  11.038  0.1565  0.0991 -0.1256
33287ION     NA48418   1.480   2.820   5.189  0.0578  0.2588 -0.2228
33288ION     NA48419  17.899  16.747  10.128  0.0119  0.2590 -0.1010
33289ION     NA48420   9.352   5.725  10.733 -0.3355  0.3980  0.0513
33290ION     NA48421  18.355  11.085   5.749 -0.0095 -0.1805  0.1278
33291ION     NA48422   2.537   1.054   9.357 -0.2345  0.1385  0.1062
33292ION     NA48423  11.700  14.648   9.872 -0.2378  0.2757  0.1577
33293ION     NA48424  12.134  15.440   9.824 -0.0618  0.4304 -0.3481
33294ION     NA48425  13.260   0.475   0.792  0.1386  0.1860 -0.0490
33295ION     NA48426  12.304   1.104  11.155 -0.2155 -0.2100 -0.1142
33296ION     NA48427   9.978   1.441  10.522 -0.3558  0.1181 -0.0523
33297ION     NA48428  14.481   7.619  10.925 -0.0478  0.1266 -0.0276
33298ION     NA48429   0.655  15.424   9.433  0.0165 -0.0080  0.1477
33299ION     NA48430   1.172   1.199   9.507 -0.0191  0.0691 -0.4101
33300ION     NA48431   8.995   4.321   5.893  0.2840  0.2221 -0.0964
33301ION     NA48432  13.038  10.105  10.321  0.1901 -0.1492  0.2124
33302ION     NA48433   5.901   5.165  10.415  0.4980  0.2778  0.1467
33303ION     NA48434   3.706   7.735  10.595 -0.2962 -0.2779 -0.1014
33304ION     NA48435   0.071   8.766   2.049 -0.2690  0.2277 -0.3619
33305ION     NA48436   6.693  11.975   5.818 -0.0345 -0.0233 -0.1724
33306ION     NA48437  18.290  11.029  10.119 -0.6160  0.0498 -0.0305
33307ION     NA48438   6.310   3.432  10.942  0.3035  0.3234 -0.1747
33308ION     NA48439  14.066   5.947  10.496 -0.2292  0.1464  0.1085
33309ION     NA48440  13.530  14.523  10.436 -0.2011  0.2090 -0.1671
33310ION     NA48441  15.405   8.386  10.728 -0.1745 -0.2119 -0.3385
33311ION     NA48442   4.156   5.862  10.876  0.0659  0.0971  0.0143
33312ION     NA48443  13.614  15.317   9.867 -0.0796  0.0199  0.2700
33313ION     NA48444   3.425  11.080  10.110  0.2357  0.3131  0.1751
33314ION     NA48445   2.296   1.859   9.277 -0.1639  0.0552  0.3994
33315ION     NA48446   0.665   8.932  10.572 -0.1179  0.0852  0.0391
33316ION     NA48447  16.725   2.586   0.103  0.2612 -0.2007  0.2786
33317ION     NA48448   3.994  18.074   0.559  0.0300 -0.0788  0.0193
33318ION     NA48449  17.310  12.708   3.880 -0.2370  0.1477  0.0032
33319ION     NA48450  13.608   6.152  10.329 -0.3013 -0.0067 -0.4523
33320ION     NA48451   5.953   4.366   5.972  0.1991 -0.0818  0.0391
33321ION     NA48452  11.774   5.058   4.903 -0.1028 -0.2943  0.3821
33322ION     NA48453   5.263   9.478  10.353  0.2888  0.3479  0.0875
33323ION     NA48454  14.217   3.451   5.458 -0.0505  0.1017  0.0526
33324ION     NA48455  16.407  14.378   9.752 -0.1931 -0.2241 -0.0839
33325ION     NA48456   9.498  17.420  10.272 -0.0789 -0.1434  0.1238
33326ION     NA48457  11.519   5.460   6.368  0.0815 -0.1597  0.1618
33327ION     NA48458   0.237   1.177  10.455  0.0739 -0.3118  0.3904
33328ION     NA48459   2.241  18.334  15.758  0.0023 -0.1457 -0.0519
33329ION     NA48460  15.483  10.448  11.208 -0.2681 -0.1255 -0.0997
33330ION     NA48461  11.744  11.144  10.183  0.0132  0.1171  0.0164
33331ION     NA48462   0.082  12.602   9.971 -0.1061  0.1760  0.1035
33332ION     NA48463   3.104  10.077  10.620 -0.2269 -0.1044  0.0626
33333ION     NA48464   5.926  17.209   9.633  0.2390 -0.2605 -0.2588
33334ION     NA48465  14.706   3.937  13.518 -0.0276 -0.1532 -0.1873
33335ION     NA48466   2.487   9.160   5.794 -0.1852  0.2316 -0.0769
33336ION     NA48467   4.756  12.086  10.048 -0.3080 -0.0111 -0.0859
33337ION     NA48468   1.528  14.619   9.626  0.3075  0.0464 -0.2648
33338ION     NA48469   1.404   7.806  10.578 -0.4930 -0.0497  0.1162
33339ION     NA48470   9.338   6.576   6.004  0.0321 -0.0350 -0.2423
33340ION     NA48471  10.028  15.492  15.930  0.0022  0.0570  0.0313
33341ION     NA48472  13.256   8.378  14.508  0.1252 -0.0457 -0.2010
33342ION     NA48473  16.321   8.465  15.499 -0.0190 -0.1078  0.1346
33343ION     NA48474  15.786   6.671  10.711 -0.3403  0.1263  0.1604
33344ION     NA48475   0.869   0.672   5.178 -0.1343 -0.1314 -0.5090
33345ION     NA48476   9.233   2.144   5.902  0.0817 -0.0727 -0.0961
33346ION     NA48477   8.935  18.288  13.298  0.0705  0.0329  0.4511
33347ION     NA48478   0.603  17.857   9.351 -0.1126 -0.2086  0.0236
33348ION     NA48479  15.288  15.214   9.947  0.1471 -0.0414 -0.3106
33349ION     NA48480  15.543   3.587  12.422  0.3899  0.0182 -0.1773
33350ION     NA48481  18.266  16.032   0.237  0.0487 -0.2186 -0.1881
33351ION     NA48482   6.121   6.177   6.040 -0.1894  0.3158 -0.0814
33352ION     NA48483   0.400   0.281   9.638  0.3308 -0.3601 -0.0163
33353ION     NA48484  14.694  17.253   3.865 -0.2262 -0.0769  0.1406
33354ION     NA48485  16.649  11.831  10.610  0.0714  0.1933 -0.0129
33355ION     NA48486   4.261  13.668   5.423 -0.0189 -0.1926 -0.1547
33356ION     NA48487  11.631   7.089   6.385 -0.0689 -0.0527  0.2759
33357ION     NA48488   0.371   0.825   3.696  0.0674 -0.2766 -0.2399
33358ION     NA48489  11.273   4.393   6.034 -0.2016  0.2698  0.2903
33359ION     NA48490   8.159  13.537   5.707 -0.0790 -0.0657 -0.3221
33360ION     NA48491  10.044  16.973  10.082  0.2413 -0.1811  0.0732
33361ION     NA48492  15.373  17.203   9.942  0.1210  0.1149  0.1742
33362ION     NA48493   2.122   0.738   3.174  0.2955  0.2654 -0.0882
33363ION     NA48494  17.486   1.310  13.367 -0.2027 -0.2344 -0.2843
33364ION     NA48495  13.770   1.990  10.380 -0.1669 -0.1818  0.2989
33365ION     NA48496  15.567   3.101  10.250  0.2027  0.2009 -0.1189
33366ION     NA48497  15.978  13.015  10.249 -0.4438 -0.0904 -0.0914
33367ION     NA48498   1.020  11.017   0.936  0.2031  0.0745  0.0326
33368ION     NA48499  12.999  13.505  10.639 -0.1017 -0.3463  0.0846
33369ION     NA48500   0.117  16.155   9.414  0.0778  0.1520  0.0331
33370ION     NA48501   2.416  16.883   9.121 -0.1512  0.1347 -0.0935
33371ION     NA48502   5.034   5.498  10.387  0.1248 -0.1634  0.3558
33372ION     NA48503   6.010  13.731   2.857 -0.0203 -0.2256  0.4340
33373ION     NA48504   7.521  14.748   3.712  0.1195  0.2982 -0.0372
33374ION     NA48505  11.158  13.714  10.032  0.1500 -0.2820  0.0639
33375ION     NA48506   4.957  12.306   0.619  0.0389  0.1509  0.1543
33376ION     NA48507  14.731   5.592  15.963 -0.0228 -0.1702  0.2048
33377ION     NA48508  17.573  11.019  12.923  0.0515 -0.1745 -0.1978
33378ION     NA48509  17.384  15.947   9.690  0.3628  0.2098  0.0823
33379ION     NA48510  10.096  11.090  10.383 -0.2749  0.2346 -0.0080
33380ION     NA48511  11.113  17.490   0.186 -0.2819 -0.1737 -0.3993
33381ION     NA48512   8.575   7.804   5.910  0.1237 -0.1658 -0.0694
33382ION     NA48513   2.754  13.939   9.745  0.0279 -0.2490  0.1789
33383ION     NA48514  12.862  14.011   5.858 -0.3664  0.1967 -0.2089
33384ION     NA48515  16.740   1.640   3.502  0.2419  0.2072  0.4988
33385ION     NA48516   6.637   6.204   5.578 -0.2936 -0.1354 -0.1451
33386ION     NA48517   8.853  15.168   5.547 -0.0294  0.2337 -0.0117
33387ION     NA48518   8.792  15.842   5.732 -0.1800 -0.2058  0.0598
33388ION     NA48519   8.851   6.421  15.054 -0.0751 -0.0121  0.0661
33389ION     NA48520  12.344   5.911  15.204 -0.0944 -0.1210  0.0636
33390ION     NA48521   7.350  16.668  10.283 -0.0847  0.1000  0.2121
33391ION     NA48522   9.432  18.337  10.304 -0.0653 -0.1007  0.2398
33392ION     NA48523   8.221   9.809   5.361  0.3695 -0.2963  0.1575
33393ION     NA48524  11.599  12.007  10.449 -0.1560 -0.0348  0.0878
33394ION     NA48525  11.230   0.284  10.562  0.0154  0.2909  0.4003
33395ION     NA48526  18.212   1.601  15.742  0.3367 -0.1608 -0.0485
33396ION     NA48527   9.178  13.837   5.241  0.0904  0.1048 -0.1414
33397ION     NA48528  11.583   1.152   6.320 -0.0743  0.0766 -0.2674
33398ION     NA48529  13.620  10.645   3.248  0.0033 -0.0314 -0.0798
33399ION     NA48530   4.064  16.593   4.987 -0.0885  0.2532  0.1899
33400ION     NA48531   5.374  10.358   5.899 -0.0645 -0.0039  0.1859
33401ION     NA48532  15.715   1.859  12.391 -0.3000 -0.1048  0.0665
33402ION     NA48533   0.688  16.492   9.511  0.2715 -0.1267  0.1517
33403ION     NA48534  15.801  11.078  10.564 -0.3230  0.5071  0.0226
33404ION     NA48535  18.117   7.657   0.462 -0.1572 -0.0758  0.1312
33405ION     NA48536  18.337   0.345   9.558 -0.0185  0.3472 -0.0372
33406ION     NA48537  14.003  16.986   5.778  0.0000  0.0555 -0.2048
33407ION     NA48538  16.664   0.668  11.967  0.1836  0.0218 -0.1538
33408ION     NA48539   1.033   2.725   0.497 -0.0461 -0.0413 -0.3294
33409ION     NA48540   3.392   6.455   1.907  0.0865  0.2629 -0.2052
33410ION     NA48541  10.321   1.579  10.888 -0.0794  0.0777 -0.0170
33411ION     NA48542   1.749  18.137   9.300  0.2769  0.4950 -0.0079
33412ION     NA48543   6.905  14.656  12.293 -0.0249 -0.0966  0.2257
33413ION     NA48544  12.630  14.256   4.968 -0.1344 -0.4107  0.2551
33414ION     NA48545  17.990   4.430  10.527  0.1431 -0.0263 -0.2471
33415ION     NA48546   0.925  12.216  10.194 -0.2648 -0.1624  0.1292
33416ION     NA48547  14.004   4.767  10.576  0.1183  0.3098  0.0960
33417ION     NA48548   2.916  14.373   5.079 -0.1133  0.1703 -0.1767
33418ION     NA48549  16.320  13.494  15.258 -0.0487  0.2278  0.2766
33419ION     NA48550   6.963   5.543  10.574  0.0413  0.1768  0.2385
33420ION     NA48551  10.128   5.289  11.100 -0.2343  0.0778 -0.0968
33421ION     NA48552  18.361   0.816  14.831 -0.0661 -0.2435  0.2179
33422ION     NA48553   8.272   3.429  10.171 -0.3331 -0.1257  0.2818
33423ION     NA48554  15.689  16.341   9.818  0.1327  0.0771 -0.0896
33424ION     NA48555  17.541   6.365  14.490  0.2659  0.3458 -0.0154
33425ION     NA48556  11.894  12.903  10.249 -0.0732 -0.3041  0.1283
33426ION     NA48557   1.853   6.168  10.118  0.4506  0.0570  0.2037
33427ION     NA48558   4.524  14.078   9.876 -0.3893  0.0387  0.2519
33428ION     NA48559  12.755   2.326  13.916  0.0934 -0.1604  0.2128
33429ION     NA48560   4.856  15.681   4.254 -0.2445  0.0364  0.0460
33430ION     NA48561  10.069   7.441  10.745  0.0526  0.2992 -0.2728
33431ION     NA48562  18.164  17.637  15.710  0.0878  0.0959 -0.0233
33432ION     NA48563   8.000   7.001   4.244 -0.0186  0.0560  0.4180
33433ION     NA48564  18.284   1.353   2.323  0.2305  0.0830  0.4078
33434ION     NA48565  12.128  15.537  10.329  0.0189  0.4257 -0.4557
33435ION     NA48566  11.489  18.070  10.386  0.0012 -0.2384  0.1012
33436ION     NA48567   9.783  16.521  10.144 -0.0075 -0.1292  0.0669
33437ION     NA48568  18.339  15.436   9.613 -0.0290  0.0389 -0.3048
33438ION     NA48569   1.230  16.075   2.251  0.2224  0.2761  0.1689
33439ION     NA48570  13.171   6.393   6.414  0.0914  0.1730  0.1526
33440ION     NA48571   8.052   8.927  12.632  0.1615  0.1838  0.0684
33441ION     NA48572   4.222  14.126  14.146  0.1914  0.0901 -0.0332
33442ION     NA48573   0.102   2.133   9.995  0.3462  0.0385  0.0513
33443ION     NA48574   4.141   5.196  10.436  0.1890  0.3172  0.4084
33444ION     NA48575   2.928   9.999   2.278  0.1378  0.1426 -0.2027
33445ION     NA48576   3.383   0.000   9.431  0.0869 -0.0262  0.0267
33446ION     NA48577   0.333   6.074   0.419  0.2019 -0.0710  0.3010
33447ION     NA48578   3.118   0.525   9.392  0.0594  0.3630 -0.0068
33448ION     NA48579   4.078   8.092  11.164  0.2056 -0.0241  0.1192
33449ION     NA48580   9.824  10.143   4.565 -0.2871  0.3653  0.1341
33450ION     NA48581   8.987   1.845   4.364 -0.2757 -0.1325  0.0420
33451ION     NA48582  18.295   2.104  12.512 -0.0135 -0.2360 -0.0764
33452ION     NA48583   0.108   2.986   9.749 -0.1008 -0.0306 -0.0469
33453ION     NA48584   0.821   5.224   9.985 -0.0879  0.1197 -0.1245
33454ION     NA48585  12.936  18.377  10.381 -0.2041 -0.2277  0.3225
33455ION     NA48586   7.125   5.728   0.652 -0.1754  0.0500  0.1862
33456ION     NA48587   9.523   3.978  10.916  0.1434  0.1433 -0.1002
33457ION     NA48588   1.782  12.477   9.881 -0.1719 -0.0330  0.0747
33458ION     NA48589   8.533   7.621  10.952 -0.1806 -0.2891  0.0963
33459ION     NA48590  14.241   6.807  10.547  0.0997  0.1238  0.1086
33460ION     NA48591  13.288  10.967  10.307 -0.0038  0.4193  0.0562
33461ION     NA48592   5.367  15.148   9.723  0.5634 -0.0158  0.1111
33462ION     NA48593  13.502   7.830  10.989 -0.0614 -0.1645  0.0089
33463ION     NA48594   9.977  10.935  14.153  0.1305  0.0036 -0.5060
33464ION     NA48595   7.842  13.456  14.123  0.2649 -0.1904  0.1432
33465ION     NA48596   9.543  13.032  10.041  0.3322 -0.1872  0.0450
33466ION     NA48597  10.551   0.853  10.312 -0.1864 -0.0480  0.1835
33467ION     NA48598  10.677   9.874  10.325 -0.1020 -0.0266  0.2511
33468ION     NA48599   3.959  16.624   9.228 -0.0285 -0.1015  0.1747
33469ION     NA48600  10.686   9.649  11.275 -0.0608 -0.0248 -0.0820
33470ION     NA48601   7.427   1.337  10.126  0.2511 -0.2449  0.0770
33471ION     NA48602  11.833  15.837   5.828  0.2326 -0.1444  0.1510
33472ION     NA48603  16.800  17.679   9.901 -0.1027 -0.1614  0.2698
33473ION     NA48604  12.800  14.799   3.716 -0.1815 -0.0578 -0.3204
33474ION     NA48605   8.389  16.021  11.104 -0.0500 -0.3046 -0.2486
33475ION     NA48606  12.912  14.324   9.915  0.0394 -0.0715  0.0947
33476ION     NA48607   5.792  11.722   9.949 -0.0706 -0.2558 -0.3444
33477ION     NA48608   9.785  10.969   2.489  0.1020  0.0336  0.3211
33478ION     NA48609  14.388   4.593  12.954  0.0474 -0.0203  0.4011
33479ION     NA48610  14.537   5.704   1.150 -0.0012  0.2260  0.2722
33480ION     NA48611  16.966   4.023   6.177  0.0400 -0.5881 -0.1880
33481ION     NA48612  13.954  10.348  10.247  0.1956  0.1922 -0.1012
33482ION     NA48613  15.680  10.216  10.418 -0.2189  0.1062 -0.0927
33483ION     NA48614   7.500  17.234   3.697 -0.0627  0.2468 -0.1382
33484ION     NA48615   0.658   5.251  10.761  0.0585 -0.3831 -0.2099
33485ION     NA48616   0.354  10.428  13.486 -0.0428 -0.0968  0.1062
33486ION     NA48617   5.783   0.963   9.727 -0.3374 -0.1527  0.1104
33487ION     NA48618   4.730  17.268   9.419  0.4088 -0.0189 -0.1264
33488ION     NA48619  16.294  12.127  10.228 -0.0102 -0.1465 -0.1158
33489ION     NA48620  14.753  15.555   5.350  0.1468  0.0707  0.2988
33490ION     NA48621  15.074  17.145  16.065  0.0299 -0.1227  0.2372
33491ION     NA48622  14.081  13.427   0.048  0.0744  0.2923 -0.0243
33492ION     NA48623   1.506   0.399   9.510 -0.1946 -0.1810  0.0700
33493ION     NA48624  10.968  18.344   2.218 -0.4754 -0.3395  0.0727
33494ION     NA48625  17.821  10.065  13.122  0.0669  0.0437 -0.0755
33495ION     NA48626  13.571  13.883   9.951  0.1730  0.0721  0.0722
33496ION     NA48627  10.817  16.743  10.313 -0.0637  0.0216 -0.1874
33497ION     NA48628  17.843  14.037   9.728 -0.0302  0.2301 -0.0763
33498ION     NA48629   2.005  10.267  12.492 -0.3007  0.1357 -0.0645
33499ION     NA48630   4.474  16.107   0.345 -0.0742  0.1000  0.1894
33500ION     NA48631  16.350  15.275   9.821 -0.1504  0.0209 -0.0654
33501ION     NA48632  14.978  17.373   5.930 -0.0743 -0.0133  0.0791
33502ION     NA48633   0.812  14.339  13.931  0.3428 -0.0137 -0.2323
33503ION     NA48634   4.161   6.673   5.007 -0.0786 -0.3479 -0.1579
33504ION     NA48635   7.897  15.392   5.608 -0.1362 -0.1444  0.2430
33505ION     NA48636   3.022   6.262  11.854 -0.1972  0.0201  0.0360
33506ION     NA48637  10.959   4.892  10.661  0.1812 -0.2978 -0.2914
33507ION     NA48638  12.663  11.188  10.195 -0.4160  0.0335  0.2359
33508ION     NA48639   6.379  12.281  10.285  0.3994  0.2268 -0.2897
33509ION     NA48640  11.113   1.002  15.041 -0.3427  0.2102 -0.2445
33510ION     NA48641   7.977   9.592  10.380  0.2722  0.0077 -0.2295
33511ION     NA48642  13.204   2.907  10.523 -0.1609  0.0945 -0.3866
33512ION     NA48643  14.600  15.952   9.981  0.2853 -0.0295 -0.3085
33513ION     NA48644   5.965  15.725   9.647  0.0053  0.0368  0.1206
33514ION     NA48645   2.440  12.251   2.736  0.4439 -0.1188  0.0582
33515ION     NA48646  13.671   2.973   6.371 -0.1121 -0.0612  0.0813
33516ION     NA48647   0.259   7.563  10.377  0.1176 -0.1359  0.0441
33517ION     NA48648   0.097   5.735   5.320  0.1967  0.1326  0.3486
33518ION     NA48649  15.837   7.598  11.016  0.1495  0.0146 -0.0225
33519ION     NA48650  16.277  18.314   5.645 -0.0669  0.1214 -0.0130
33520ION     NA48651   2.246   5.320   9.881  0.0594 -0.0829 -0.0265
33521ION     NA48652  14.627   3.063  12.071 -0.0420 -0.1144  0.2320
33522ION     NA48653   3.516   6.982  10.328 -0.1336  0.1573 -0.0592
33523ION     NA48654  13.291   5.360  10.358  0.2032 -0.1671  0.2147
33524ION     NA48655  16.212   7.834   5.307 -0.2188  0.1952 -0.0208
33525ION     NA48656  14.597  17.804  10.216 -0.0969 -0.3327 -0.1285
33526ION     NA48657  14.766  10.587  10.403  0.2068  0.2048 -0.1890
33527ION     NA48658   2.917  11.063  10.171 -0.0027  0.2604 -0.0818
33528ION     NA48659   2.690   2.231  11.586  0.1893  0.2563 -0.5068
33529ION     NA48660  17.067  13.819   9.886  0.0225  0.1991  0.1265
33530ION     NA48661   6.634  16.467   9.898 -0.0029 -0.0825  0.4467
33531ION     NA48662   2.972  16.288  10.138 -0.1533  0.0282 -0.3517
33532ION     NA48663   7.845   8.988  10.405  0.2409  0.1714 -0.1610
33533ION     NA48664   4.296   2.714  10.764 -0.0773 -0.2542 -0.0307
33534ION     NA48665  16.198  13.505  10.155 -0.2683  0.1834  0.0869
33535ION     NA48666   9.602  12.550  10.212 -0.2451 -0.2938  0.0773
33536ION     NA48667  10.255   0.907  13.387  0.1666  0.1985  0.0731
33537ION     NA48668  18.333   9.658  10.298  0.0800 -0.0166  0.1365
33538ION     NA48669  11.552   6.937  14.680 -0.0572  0.1197  0.1199
33539ION     NA48670  11.592  12.880  14.131  0.2692  0.2548 -0.0205
33540ION     NA48671   8.714   2.097  10.261  0.0958 -0.0825  0.1550
33541ION     NA48672   9.536   1.611   5.491  0.0208 -0.1983  0.2210
33542ION     NA48673  12.877   0.224  10.847 -0.1416  0.1231 -0.0682
33543ION     NA48674  16.489   5.460   4.679  0.1160  0.2453  0.0840
33544ION     NA48675  12.111  11.158  15.814  0.2447  0.2044 -0.1100
33545ION     NA48676  14.640  14.226  13.704 -0.3418  0.1917  0.4008
33546ION     NA48677   8.959   7.072   4.827  0.1330 -0.0545 -0.2263
33547ION     NA48678   1.160   9.029  10.534 -0.1607 -0.1141  0.0779
33548ION     NA48679  18.265   6.767  10.359 -0.1609  0.1366  0.5748
33549ION     NA48680  15.868   5.196  10.651 -0.1886 -0.0528 -0.0701
33550ION     NA48681   6.594   4.329  12.395 -0.3360  0.0226 -0.0214
33551ION     NA48682  12.789  18.475   0.032 -0.0855 -0.0332 -0.3579
33552ION     NA48683  15.024   2.670  10.946 -0.2708 -0.1716 -0.3485
33553ION     NA48684   4.462   7.029  10.366  0.0730  0.2006  0.1597
33554ION     NA48685  14.319  18.033   6.080  0.3785  0.0565  0.0542
33555ION     NA48686   8.481   2.812  10.492  0.0526  0.1863  0.2754
33556ION     NA48687   8.830  12.331   9.945 -0.0541  0.0041  0.0604
33557ION     NA48688   9.189   8.531  10.638 -0.1576  0.0037  0.1244
33558ION     NA48689   1.702   3.639   9.619  0.1523 -0.0493  0.0490
33559ION     NA48690   4.573  10.274  15.645 -0.1975  0.1007  0.0728
33560ION     NA48691  15.497  17.051   4.614  0.2009 -0.2505 -0.1228
33561ION     NA48692   7.526  13.291   3.216 -0.2521  0.3369 -0.2283
33562ION     NA48693   7.970  16.940   5.686 -0.1558  0.0632 -0.0077
33563ION     NA48694   8.313   1.867  10.040  0.4399 -0.1635  0.2671
33564ION     NA48695   5.732  13.319  11.862  0.1938 -0.0888  0.1504
33565ION     NA48696  15.333  14.728  14.346 -0.1313  0.0225  0.1933
33566ION     NA48697   7.480   3.461  11.977  0.1932 -0.1099 -0.0656
33567ION     NA48698   1.260  13.993   9.769 -0.1051  0.0929 -0.0001
33568ION     NA48699   8.090  15.719   2.276 -0.0693  0.2127 -0.0029
33569ION     NA48700   9.683   4.132  10.458  0.0634 -0.4377 -0.0947
33570ION     NA48701  18.405   4.679   4.198 -0.1115 -0.0526 -0.4086
33571ION     NA48702  14.511   8.126   4.916  0.0436  0.2459 -0.0672
33572ION     NA48703   6.806   8.256   6.315 -0.0037 -0.2503 -0.1609
33573ION     NA48704   4.785  10.248  10.409 -0.2071 -0.2199  0.0517
33574ION     NA48705   4.684  11.167  12.608  0.0051 -0.0213  0.1459
33575ION     NA48706   9.557  14.064   9.864  0.0681 -0.1800  0.1367
33576ION     NA48707  18.148   7.491  12.629 -0.0569  0.1080 -0.2678
33577ION     NA48708  17.040  10.287  10.438  0.0252 -0.2489  0.2670
33578ION     NA48709  10.156  15.419   1.580 -0.1050  0.3792  0.0317
33579ION     NA48710   2.002   2.795   9.447 -0.2373  0.1890 -0.0690
33580ION     NA48711   2.629   5.589   9.998 -0.0388  0.1232  0.3182
33581ION     NA48712   1.942  11.038  10.336 -0.2400 -0.0589  0.0800
33582ION     NA48713   5.275  14.168   0.592 -0.0216 -0.0004  0.1947
33583ION     NA48714   5.472  15.024   4.347 -0.1320  0.0199 -0.0529
33584ION     NA48715  11.797  17.039  10.465 -0.1047 -0.0675  0.1105
33585ION     NA48716   8.144  11.595  10.638  0.1051 -0.2699  0.2009
33586ION     NA48717   9.118   3.385  10.485 -0.0956  0.1242  0.1021
33587ION     NA48718   2.462   5.622  14.100  0.0022  0.0202  0.2358
33588ION     NA48719   6.141   3.942  15.565 -0.0199  0.0295  0.1883
33589ION     NA48720  15.270   8.862   1.919 -0.1711 -0.0382 -0.0477
33590ION     NA48721  14.914   5.458  10.701 -0.5066  0.2073  0.0008
33591ION     NA48722   8.785   8.978  10.604  0.2724  0.0357 -0.0889
33592ION     NA48723  17.079   4.704  10.655  0.1752 -0.0840  0.1294
33593ION     NA48724  14.577   8.610  11.028 -0.0225 -0.2814  0.3363
33594ION     NA48725  15.957   0.476   5.187 -0.1986 -0.0156 -0.1276
33595ION     NA48726   6.394   8.021   1.231  0.3872  0.2637  0.1469
33596ION     NA48727   0.382  13.833   9.460  0.1393 -0.0411 -0.0397
33597ION     NA48728   2.919  16.051   9.190  0.3169  0.1059 -0.2836
33598ION     NA48729  10.343   8.552  10.617  0.2790  0.0412  0.0071
33599ION     NA48730  15.430  13.330   0.282 -0.1729  0.2281  0.0072
33600ION     NA48731   7.084   0.669  10.179 -0.0525  0.2917 -0.0165
33601ION     NA48732   0.436  13.551  13.232 -0.2703  0.1118 -0.0910
33602ION     NA48733   9.383  11.572  10.458 -0.0994  0.0381  0.1188
33603ION     NA48734   1.424   9.502  10.671 -0.0074 -0.1343  0.2854
33604ION     NA48735  15.001   3.689   6.331 -0.0060 -0.0070  0.2844
33605ION     NA48736  17.595  17.318   5.479 -0.0573  0.1148  0.3058
33606ION     NA48737   1.685  15.486   9.464 -0.1260  0.3875  0.1268
33607ION     NA48738   3.859  13.906   2.873  0.3102  0.2773 -0.0663
33608ION     NA48739   7.373   2.921  10.266 -0.0029  0.1297  0.2990
33609ION     NA48740   3.748   2.542   9.544  0.3985  0.0248  0.0692
33610ION     NA48741   5.592   9.682   6.424  0.1217 -0.1186 -0.0747
33611ION     NA48742  12.619  12.020  10.161 -0.3048  0.0643  0.0697
33612ION     NA48743  12.431   7.100  10.607  0.1401 -0.0113 -0.2127
33613ION     NA48744   0.078  10.441  10.156  0.0322 -0.1295  0.3174
33614ION     NA48745   7.092   9.836  10.358  0.0452  0.1130  0.1084
33615ION     NA48746   4.148   1.854   9.727  0.0392 -0.2235  0.1993
33616ION     NA48747  12.278   0.166  12.281 -0.2929  0.0932 -0.0650
33617ION     NA48748   8.505  13.215   9.992 -0.1149  0.4962  0.0940
33618ION     NA48749   5.496   8.446   2.382  0.0583  0.0653 -0.2365
33619ION     NA48750   0.171  17.301   4.824  0.2649 -0.3070  0.1941
33620ION     NA48751  15.210   8.482   3.932 -0.2201  0.0053 -0.1341
33621ION     NA48752   0.642  13.313  14.134  0.3165 -0.1145 -0.2978
33622ION     NA48753   8.626   0.303  10.328 -0.1753  0.1607  0.1447
33623ION     NA48754  13.689  17.704   9.899 -0.0544 -0.2433 -0.0146
33624ION     NA48755  16.103  10.532   6.090 -0.3119 -0.0438 -0.0300
33625ION     NA48756   5.338   6.170  10.345  0.1336 -0.2915  0.0799
33626ION     NA48757  12.715   6.064  10.506 -0.0859 -0.0662  0.0569
33627ION     NA48758  18.347  17.906   9.545 -0.3602  0.0405  0.0907
33628ION     NA48759  16.199  16.036   5.501 -0.1294 -0.2506  0.1650
33629ION     NA48760   7.681   8.235   6.491 -0.1448  0.0115  0.1964
33630ION     NA48761   7.881  16.478  10.397  0.2801 -0.0372 -0.0283
33631ION     NA48762  13.636  12.268  10.124 -0.0387  0.0630  0.0122
33632ION     NA48763   5.592   4.591  10.430 -0.0217 -0.1232  0.1176
33633ION     NA48764  11.868   6.592  16.019 -0.0775 -0.0896  0.2178
33634ION     NA48765   3.151  10.460  11.644  0.2573  0.0591 -0.1152
33635ION     NA48766   8.547  11.131   2.335  0.2094  0.1797 -0.0731
33636ION     NA48767   0.595   6.796  10.590 -0.1329 -0.0758  0.2421
33637ION     NA48768  14.953   3.723  10.473  0.2376  0.0655  0.2942
33638ION     NA48769   4.337   8.932   5.714  0.0981  0.1094  0.0436
33639ION     NA48770   9.480   2.553  10.497  0.1134 -0.1505  0.0976
33640ION     NA48771   2.906   3.761  11.753 -0.3856  0.0411 -0.0559
33641ION     NA48772   4.547   8.762  10.494  0.0342 -0.1574 -0.3032
33642ION     NA48773  14.095   3.776  10.839  0.1949 -0.1676 -0.1448
33643ION     NA48774   7.686   4.929  10.517 -0.2532 -0.1788  0.0303
33644ION     NA48775   5.125  16.781   5.129  0.0027  0.1497 -0.2509
33645ION     NA48776   9.217  15.831  15.325  0.0130  0.0973 -0.1768
33646ION     NA48777   7.906  11.776  10.154  0.0880 -0.1080  0.2838
33647ION     NA48778  11.447  10.273  10.347 -0.0236  0.0076  0.1341
33648ION     NA48779   3.372   1.069   5.067  0.1805  0.0679  0.0593
33649ION     NA48780   2.510  12.633   9.713  0.1120 -0.2048  0.0812
33650ION     NA48781   7.683   6.439  10.765  0.2127 -0.2075  0.0103
33651ION     NA48782  17.999   8.486   5.968  0.0312  0.1991  0.0901
33652ION     NA48783  14.213   2.176   1.576 -0.0163  0.0380 -0.2460
33653ION     NA48784   4.769   0.578   1.636  0.2650  0.1163 -0.0288
33654ION     NA48785  16.856  13.008  10.037  0.0087 -0.1501  0.1944
33655ION     NA48786   6.596  13.917  10.114 -0.0236 -0.1910 -0.0245
33656ION     NA48787  14.793   8.540   0.728  0.4979 -0.0093 -0.0978
33657ION     NA48788   2.157   0.605   9.511  0.1160 -0.3145 -0.3365
33658ION     NA48789   7.703  12.110   4.788 -0.1985 -0.2550 -0.0495
33659ION     NA48790   0.151  12.738  11.281  0.1016  0.2061  0.2343
33660ION     NA48791   5.496   7.812  10.471  0.1433  0.0454  0.0184
33661ION     NA48792  12.776   6.480  11.340 -0.0490  0.0050 -0.1862
33662ION     NA48793  12.928   9.263   4.726 -0.0795 -0.3239 -0.0568
33663ION     NA48794   0.993   1.394  11.679 -0.0067 -0.1013 -0.0613
33664ION     NA48795  14.274   2.923  10.525  0.1205 -0.0141 -0.1978
33665ION     NA48796  18.199   5.734   6.160  0.0503 -0.2361  0.0938
33666ION     NA48797  15.954   9.483   2.528  0.1558 -0.1416  0.0300
33667ION     NA48798  17.276   7.229   4.194  0.1318  0.2614 -0.1226
33668ION     NA48799  16.302   4.216  10.770 -0.2663 -0.0476 -0.1200
33669ION     NA48800   9.883   6.153   6.697  0.0829 -0.0739  0.1188
33670ION     NA48801   7.817  10.449  10.394 -0.0020 -0.0727  0.0941
33671ION     NA48802  11.876   2.032  10.434  0.2575 -0.1183  0.0162
33672ION     NA48803   5.598   3.847   2.977 -0.1227  0.2628 -0.1910
33673ION     NA48804  12.759   4.031  10.479  0.2834  0.0071  0.2456
33674ION     NA48805   9.802   0.475   4.320 -0.1294 -0.2623  0.3256
33675ION     NA48806  14.737   6.591  10.693  0.1405  0.0083 -0.2078
33676ION     NA48807   8.840   5.832  10.397  0.4103  0.0315  0.0490
33677ION     NA48808   0.349   4.529  10.000 -0.0839 -0.2370  0.4804
33678ION     NA48809   0.379  13.528   9.918  0.1520 -0.0434 -0.2153
33679ION     NA48810   9.745  10.731   5.786 -0.0702 -0.0021  0.0496
33680ION     NA48811  11.682   6.394  10.846 -0.2446  0.1545 -0.2478
33681ION     NA48812  17.287  14.827   9.806 -0.1441  0.2383 -0.3590
33682ION     NA48813   8.005  17.969  10.254  0.1741  0.0814  0.3117
33683ION     NA48814   5.259  10.959  10.060 -0.3536 -0.0244 -0.0953
33684ION     NA48815   5.543  11.333  11.481 -0.4185  0.3521  0.1812
33685ION     NA48816   4.515   2.792   9.646  0.2116 -0.0383  0.0562
33686ION     NA48817  12.416   1.216   2.406  0.1476 -0.0247  0.0884
33687ION     NA48818   2.439   9.364  10.375 -0.0518 -0.0039 -0.1167
33688ION     NA48819   8.747  17.629   5.783 -0.3265  0.0424  0.1062
33689ION     NA48820   1.007  17.904   4.007  0.0457  0.0373 -0.2999
33690ION     NA48821  12.073  13.706  10.286 -0.0011 -0.1098  0.2486
33691ION     NA48822  16.606  14.656  12.620 -0.0006 -0.0093 -0.2182
33692ION     NA48823  16.459  11.617  15.100  0.2845 -0.0456 -0.0979
33693ION     NA48824  11.758   8.963  10.621  0.1754  0.1698  0.1478
33694ION     NA48825   4.557   5.220   2.691  0.3550  0.3407  0.1638
33695ION     NA48826  10.250  14.109  13.731  0.2933  0.0385  0.1817
33696ION     NA48827  15.607   7.436   0.491 -0.0844  0.1829  0.0218
33697ION     NA48828   3.383  15.483  12.554  0.2791 -0.2665  0.0528
33698ION     NA48829   8.383   2.174   4.165 -0.0845 -0.0114  0.1804
33699ION     NA48830   5.896   2.484   5.709  0.2727 -0.0344  0.3420
33700ION     NA48831  12.691   9.142  10.336 -0.0763 -0.5075 -0.0975
33701ION     NA48832   2.294  12.085   1.781  0.2530 -0.2712  0.0363
33702ION     NA48833  13.846  18.156  10.156 -0.0782 -0.1558 -0.1245
33703ION     NA48834   9.429   0.722  10.204  0.0022  0.2099 -0.0144
33704ION     NA48835  18.292  11.543  12.463  0.0200 -0.0782 -0.0947
33705ION     NA48836   2.838   3.460  14.740  0.1806 -0.5015 -0.2475
33706ION     NA48837  15.333  18.235   9.864  0.0792  0.1662 -0.0987
33707ION     NA48838  14.350  12.986   5.775  0.2395 -0.2613 -0.1280
33708ION     NA48839   1.420   5.443  12.692  0.1369  0.0370  0.0469
33709ION     NA48840  17.795   6.986  10.436  0.0534 -0.2401  0.0898
33710ION     NA48841  17.085   2.593  11.103 -0.2410  0.1467  0.0905
33711ION     NA48842   6.087   1.829   4.079 -0.0539  0.3322 -0.3708
33712ION     NA48843  13.422   4.054   5.354  0.0221 -0.1652  0.0528
33713ION     NA48844  17.249   7.577   0.545 -0.1187  0.0501  0.0466
33714ION     NA48845   0.330  11.914  10.113  0.1261 -0.2855  0.0544
33715ION     NA48846  13.749  16.300   9.887  0.4875  0.1230 -0.0146
33716ION     NA48847   2.435   7.501   5.049  0.0707 -0.2320  0.2497
33717ION     NA48848  17.936   3.575  10.207  0.0673  0.2296  0.0968
33718ION     NA48849   8.132   8.087  10.652 -0.0888  0.1074 -0.1625
33719ION     NA48850  12.383   4.646  10.546 -0.0466  0.1359  0.2488
33720ION     NA48851   5.443  14.341  10.413 -0.0489 -0.3555 -0.1797
33721ION     NA48852  16.933   4.707  11.909  0.2093 -0.1299  0.0666
33722ION     NA48853   3.144  13.025   5.780 -0.0932 -0.3388 -0.4757
33723ION     NA48854  12.149   7.231   2.748 -0.0962 -0.0746 -0.0031
33724ION     NA48855   0.397   1.203   1.426 -0.4180 -0.3876 -0.1617
33725ION     NA48856  11.070  12.528  10.511 -0.1092 -0.0157  0.3283
33726ION     NA48857   9.922   9.201  10.594  0.2999  0.3211  0.0792
33727ION     NA48858  11.953   2.429   5.825  0.0874 -0.1655 -0.1854
33728ION     NA48859  15.941  11.626  12.442 -0.2140  0.0696  0.2966
33729ION     NA48860  16.605  11.068   5.900 -0.0999 -0.1239  0.1054
33730ION     NA48861   7.452   2.322   4.201  0.0445 -0.0752 -0.2240
33731ION     NA48862   3.804   3.378   9.730  0.4462 -0.0617  0.1942
33732ION     NA48863  16.874   1.569   9.894 -0.1216  0.1353  0.2186
33733ION     NA48864  14.684  13.447  10.515  0.0752  0.1187  0.2682
33734ION     NA48865  18.245   8.762  10.481  0.0426  0.2987  0.0104
33735ION     NA48866  14.160  18.297  12.567  0.1795 -0.1539 -0.3258
33736ION     NA48867   0.696   2.871   5.291  0.3435 -0.4646  0.1347
33737ION     NA48868  13.110  17.111   9.873 -0.0666 -0.4189  0.0210
33738ION     NA48869   4.240   8.223   6.187 -0.2390  0.1954  0.0017
33739ION     NA48870  16.822  14.352   0.690 -0.1380  0.1730  0.3442
33740ION     NA48871   3.977  15.750   9.131 -0.4253  0.3139  0.0554
33741ION     NA48872   8.464   4.153   1.352  0.0240 -0.2672  0.3406
33742ION     NA48873  15.253   4.527  10.730 -0.2158  0.2438  0.0530
33743ION     NA48874  11.436  16.035  10.139 -0.0147 -0.1625 -0.0136
33744ION     NA48875  16.725   1.561   1.020  0.0475 -0.3223  0.0789
33745ION     NA48876   3.018  15.855  11.065 -0.0144 -0.1970  0.2653
33746ION     NA48877  15.256   5.671  11.649  0.0745  0.0783 -0.2658
33747ION     NA48878   5.954  11.944  12.597 -0.2182 -0.1273  0.4585
33748ION     NA48879  18.405  17.047   9.427  0.1256 -0.2824 -0.0948
33749ION     NA48880  13.988   1.366  10.224 -0.2733  0.0158 -0.2253
33750ION     NA48881   3.021  17.989   9.510  0.1031 -0.2202 -0.0814
33751ION     NA48882   4.038  17.884   9.546 -0.0897  0.0307 -0.0243
33752ION     NA48883   2.592  12.045  14.087 -0.2522  0.3258 -0.2990
33753ION     NA48884   9.918   0.119   5.922  0.0994  0.3729 -0.0048
33754ION     NA48885  14.402  14.194  14.985  0.0518 -0.1422 -0.2917
33755ION     NA48886   9.976   2.578   1.310 -0.1969 -0.2204  0.0375
33756ION     NA48887   4.982   3.478   9.822 -0.0639 -0.1365 -0.2732
33757ION     NA48888  15.818   1.464  10.358  0.2037  0.3134 -0.0760
33758ION     NA48889  12.179   6.173  10.499  0.2459 -0.2491 -0.0691
33759ION     NA48890   1.257  10.476  10.489  0.0192  0.2745  0.2133
33760ION     NA48891  13.231   5.569   4.605 -0.1027 -0.0073  0.1724
33761ION     NA48892  13.783   5.765   6.611  0.0718 -0.2769 -0.0914
33762ION     NA48893  15.529   4.224   6.136 -0.1177  0.3394 -0.6382
33763ION     NA48894   5.581  16.080   5.337  0.0329  0.0763 -0.0546
33764ION     NA48895   5.614   8.774  10.373  0.1059  0.1118 -0.0006
33765ION     NA48896   2.112   7.143  10.491 -0.4244  0.3864 -0.1120
33766ION     NA48897   2.699   7.369  10.403  0.0224 -0.0506  0.0802
33767ION     NA48898  14.522  16.676  11.484  0.0574 -0.0804 -0.0616
33768ION     NA48899  17.676  12.514  10.051  0.1596  0.1355 -0.1443
33769ION     NA48900  11.563   3.060   3.228  0.1076 -0.0649  0.0509
33770ION     NA48901   3.949  16.573   0.606  0.0906  0.0838 -0.0917
33771ION     NA48902  13.598  11.171  12.974 -0.1868  0.2079 -0.2011
33772ION     NA48903   4.813  17.600  15.456  0.2809 -0.0895 -0.2320
33773ION     NA48904   8.382  14.785  14.987 -0.2104  0.2174 -0.1156
33774ION     NA48905   8.004  13.916  15.488  0.0825 -0.0967 -0.0643
33775ION     NA48906  13.475   6.862  10.700 -0.0665 -0.2412 -0.0372
33776ION     NA48907   3.442  13.983   5.613 -0.0067  0.0539 -0.0686
33777ION     NA48908   6.751  11.403  10.342  0.0995 -0.0080 -0.0719
33778ION     NA48909  17.734   2.216  10.040 -0.0153 -0.1059  0.1577
33779ION     NA48910  16.023   4.808   4.125 -0.1431 -0.3129  0.0653
33780ION     NA48911   4.765  15.932   9.373 -0.0560  0.4205 -0.0157
33781ION     NA48912  13.992   2.940   3.781  0.2264 -0.0163  0.1557
33782ION     NA48913  18.457   6.827   5.641  0.0977 -0.1216  0.1138
33783ION     NA48914   2.299   4.695   3.999  0.0418 -0.2601 -0.1637
33784ION     NA48915   7.811  17.395  10.005 -0.1157 -0.2493  0.1637
33785ION     NA48916  12.636   1.244  10.500 -0.0146  0.3609  0.1447
33786ION     NA48917   5.991   1.857   9.910  0.1740 -0.1098 -0.2528
33787ION     NA48918   8.822  16.073  10.194 -0.2961 -0.2312  0.6671
33788ION     NA48919  15.831  13.879   9.962  0.1137 -0.0797 -0.0012
33789ION     NA48920  12.054  14.300   5.909 -0.0319 -0.0491 -0.6113
33790ION     NA48921   6.530   1.203   3.288  0.1028  0.1171 -0.0071
33791ION     NA48922  15.391   2.733   6.098  0.0716  0.0453  0.2065
33792ION     NA48923   8.310   6.113   5.449 -0.1703 -0.1852 -0.0170
33793ION     NA48924  16.470  13.857   5.325 -0.1654 -0.4610 -0.0294
33794ION     NA48925   9.223   4.647   3.545 -0.0971  0.2244  0.0350
33795ION     NA48926   3.741  13.541   9.846  0.0651  0.0588 -0.0046
33796ION     NA48927   6.263   9.199  10.473 -0.1815 -0.0807  0.2143
33797ION     NA48928   6.822   0.367   4.860 -0.0210  0.0681  0.1145
33798ION     NA48929   2.788  13.091   9.554  0.0237  0.2279  0.0546
33799ION     NA48930   6.685   6.473  10.511  0.3608  0.1726  0.0952
33800ION     NA48931   0.958   2.080   9.743 -0.4633  0.0779 -0.1005
33801ION     NA48932   7.818  15.199   1.443 -0.0411  0.3224 -0.2962
33802ION     NA48933  11.778   9.236   5.615  0.1137 -0.0906 -0.1708
33803ION     CL48934   4.263   7.731  10.915 -0.0366 -0.4299 -0.0240
33804ION     CL48935   2.773   3.907  14.472 -0.0643  0.3051 -0.2806
33805ION     CL48936  14.619  12.016   4.975 -0.0078  0.0903 -0.1064
33806ION     CL48937   4.263   0.602   1.458  0.0275 -0.0630 -0.2738
33807ION     CL48938  11.858   2.979   3.985  0.2765 -0.2146 -0.1344
33808ION     CL48939   8.473   6.930   4.400  0.0322  0.2123 -0.1250
33809ION     CL48940   9.023   9.889  12.861 -0.1006  0.3848  0.0806
33810ION     CL48941   9.648  13.392   1.436  0.1799 -0.0248  0.0983
33811ION     CL48942  17.898   9.749  13.455  0.2328 -0.1076 -0.0390
33812ION     CL48943  13.458  15.474   5.248 -0.1012 -0.0800 -0.1478
33813ION     CL48944   8.993   6.251   0.905  0.2491 -0.2255  0.0353
33814ION     CL48945   2.971  18.009  15.836  0.0847 -0.3627 -0.0585
33815ION     CL48946   0.280   5.048   4.309  0.1253 -0.0163 -0.0184
33816ION     CL48947  16.037  18.091  14.011  0.4235  0.0275 -0.3597
  18.48914  18.48914  16.10815
