INSANE! Membrane UpperLeaflet>loPI:POPI:DPPI:PYPI:ERGO=20.0:5.0:3.0:2.0:10.0 LowerLeaflet>PSPI:POPI:POPS:YOPS:POPE:YOPE:POPC:YOPC:ERGO=6.0:14.0:21.0:9.0:9.0:21.0:12.0:48.0:60.0
48947
    1loPI    C1    1   4.457   7.008  10.457  0.0212 -0.0424  0.0086
    1loPI    C2    2   4.420   7.041  10.854 -0.0293  0.1490 -0.0114
    1loPI    C3    3   4.766   6.920  10.695 -0.0257  0.0197  0.0932
    1loPI   PO4    4   4.370   7.354  10.330 -0.0858  0.2409 -0.0476
    1loPI   GL1    5   4.605   7.424   9.879  0.2786 -0.1439 -0.1569
    1loPI   GL2    6   4.712   7.755   9.778 -0.3609 -0.2373 -0.2499
    1loPI   C1A    7   4.750   7.083   9.524  0.2071  0.2791  0.2257
    1loPI   C2A    8   4.710   6.632   9.506 -0.0009  0.0961 -0.0542
    1loPI   C3A    9   4.507   6.317   9.371  0.1172 -0.1197 -0.2765
    1loPI   C4A   10   4.224   6.129   9.155 -0.0860  0.0469 -0.0946
    1loPI   C5A   11   4.150   6.065   8.785  0.4290 -0.4125  0.1600
    1loPI   C6A   12   4.022   5.936   8.357 -0.2059 -0.2797 -0.1232
    1loPI   C1B   13   4.534   7.574   9.386  0.1405  0.0925  0.1023
    1loPI   C2B   14   4.549   7.420   8.986 -0.0351 -0.1137  0.3048
    1loPI   C3B   15   4.593   7.203   8.587 -0.1618 -0.2060 -0.0501
    1loPI   C4B   16   4.846   6.801   8.570 -0.0616 -0.0596  0.2146
    2loPI    C1   17   0.914   2.095  10.583  0.2009  0.0375 -0.1486
    2loPI    C2   18   0.876   2.402  10.837 -0.1969  0.0109 -0.1700
    2loPI    C3   19   0.917   2.030  10.978  0.0033  0.0411 -0.1457
    2loPI   PO4   20   1.160   2.104  10.502  0.1426  0.2204  0.0906
    2loPI   GL1   21   1.180   2.101  10.038 -0.3949  0.1805 -0.2359
    2loPI   GL2   22   1.330   2.363  10.036  0.4572  0.2751  0.2240
    2loPI   C1A   23   0.938   2.235   9.757  0.4452  0.0219 -0.2875
    2loPI   C2A   24   0.904   2.206   9.424  0.1692  0.1109 -0.0135
    2loPI   C3A   25   0.732   2.108   9.058  0.0195 -0.3226  0.0910
    2loPI   C4A   26   0.582   1.838   8.776  0.1718 -0.0711 -0.1758
    2loPI   C5A   27   0.429   1.869   8.376  0.1257 -0.3942  0.2019
    2loPI   C6A   28   0.142   2.135   8.234 -0.2157 -0.0635  0.0047
    2loPI   C1B   29   1.469   2.272   9.689 -0.0647  0.1495  0.2009
    2loPI   C2B   30   1.443   2.285   9.267 -0.0422  0.0458  0.0389
    2loPI   C3B   31   1.192   2.238   8.853  0.0500  0.3791  0.1170
    2loPI   C4B   32   1.154   2.452   8.359  0.3529  0.3038  0.0623
    3loPI    C1   33  13.687   8.713  10.498  0.1149  0.3496  0.1575
    3loPI    C2   34  13.529   8.884  10.823  0.0166  0.0682  0.2608
    3loPI    C3   35  13.406   8.522  10.708 -0.1065  0.2536 -0.2169
    3loPI   PO4   36  13.628   8.877  10.309 -0.1220  0.0367 -0.1016
    3loPI   GL1   37  13.311   9.003  10.006  0.5599  0.2302  0.0092
    3loPI   GL2   38  13.099   9.173  10.155  0.2239 -0.3557 -0.1373
    3loPI   C1A   39  13.224   8.960   9.586 -0.1645 -0.2626  0.2809
    3loPI   C2A   40  13.216   9.079   9.204 -0.0107  0.0974  0.1323
    3loPI   C3A   41  13.270   9.157   8.800  0.4330  0.2420 -0.0234
    3loPI   C4A   42  13.117   9.175   8.394 -0.2079 -0.1898  0.4203
    3loPI   C5A   43  13.114   8.907   8.029  0.2241  0.1489  0.0246
    3loPI   C6A   44  12.967   8.849   7.573  0.1279  0.0606 -0.0427
    3loPI   C1B   45  12.964   9.463   9.878  0.0877  0.0746 -0.3180
    3loPI   C2B   46  12.866   9.524   9.506 -0.0472  0.1587 -0.0777
    3loPI   C3B   47  12.935   9.472   9.064  0.1552  0.0659  0.1220
    3loPI   C4B   48  12.636   9.479   8.608  0.1122  0.0849  0.0573
    4loPI    C1   49   9.020   3.058  10.260  0.1639  0.0509  0.0151
    4loPI    C2   50   8.700   3.184  10.464  0.3003 -0.0220  0.2784
    4loPI    C3   51   8.769   2.792  10.421  0.2138 -0.0082 -0.0040
    4loPI   PO4   52   9.072   3.102  10.085  0.0801 -0.0405  0.1912
    4loPI   GL1   53   9.186   3.209   9.661  0.1718  0.1791  0.2205
    4loPI   GL2   54   8.924   3.320   9.470 -0.0497  0.2068 -0.0453
    4loPI   C1A   55   9.253   2.926   9.264 -0.1404 -0.0444 -0.0784
    4loPI   C2A   56   9.183   2.881   8.837  0.1983 -0.0726  0.4222
    4loPI   C3A   57   9.148   2.828   8.398 -0.1096  0.0346  0.2396
    4loPI   C4A   58   8.833   2.781   8.140  0.2414 -0.1129 -0.0673
    4loPI   C5A   59   8.799   2.890   7.769 -0.1274  0.0283  0.2999
    4loPI   C6A   60   8.845   3.304   7.601 -0.2485  0.0050  0.1622
    4loPI   C1B   61   8.717   2.991   9.082 -0.2087  0.1986 -0.1567
    4loPI   C2B   62   8.662   2.797   8.707 -0.1099  0.2290 -0.0856
    4loPI   C3B   63   8.494   3.077   8.347  0.1188  0.0680  0.1506
    4loPI   C4B   64   8.471   3.370   8.043 -0.0305 -0.2050  0.1349
    5loPI    C1   65   4.661   9.500  10.053 -0.0608 -0.1794  0.1952
    5loPI    C2   66   4.593   9.831  10.267 -0.1087  0.0688 -0.1937
    5loPI    C3   67   4.446   9.480  10.390  0.0487  0.1642  0.2900
    5loPI   PO4   68   4.817   9.520   9.924 -0.3005 -0.0946 -0.0306
    5loPI   GL1   69   5.188   9.346   9.711  0.1466  0.1292 -0.0332
    5loPI   GL2   70   5.420   9.157   9.653 -0.0358 -0.2186  0.0864
    5loPI   C1A   71   4.974   9.425   9.288  0.0455  0.0153 -0.1863
    5loPI   C2A   72   4.742   9.828   9.091  0.2188 -0.3121 -0.0442
    5loPI   C3A   73   4.778   9.824   8.675 -0.2061 -0.0384 -0.1909
    5loPI   C4A   74   4.670  10.228   8.286 -0.4180 -0.3508 -0.3369
    5loPI   C5A   75   4.775  10.663   8.229  0.1794 -0.0012 -0.0923
    5loPI   C6A   76   4.784  10.958   7.825  0.2331  0.2553 -0.1067
    5loPI   C1B   77   5.460   9.201   9.264  0.2574 -0.0590  0.0571
    5loPI   C2B   78   5.527   9.174   8.851 -0.2294 -0.3110  0.4185
    5loPI   C3B   79   5.486   9.187   8.478  0.3950  0.3661  0.2181
    5loPI   C4B   80   5.135   9.248   8.082  0.1908  0.3615  0.2097
    6loPI    C1   81  13.877  13.844  10.553  0.0169 -0.2819  0.0463
    6loPI    C2   82  14.068  13.802  10.204 -0.1928 -0.2249 -0.0765
    6loPI    C3   83  14.269  13.762  10.547  0.0074 -0.3173 -0.2027
    6loPI   PO4   84  13.793  14.134  10.554  0.1740 -0.2035 -0.0858
    6loPI   GL1   85  13.780  14.281  10.115 -0.3120 -0.5725 -0.0254
    6loPI   GL2   86  14.041  14.279   9.875 -0.3021 -0.0801  0.0721
    6loPI   C1A   87  13.393  14.428   9.874  0.3211  0.0367  0.0138
    6loPI   C2A   88  13.240  14.413   9.482 -0.0062 -0.0377  0.1485
    6loPI   C3A   89  13.327  14.364   9.023 -0.2092  0.3427  0.0918
    6loPI   C4A   90  13.236  14.425   8.635 -0.0737 -0.0134  0.1671
    6loPI   C5A   91  13.067  14.293   8.260 -0.0119  0.0544 -0.1367
    6loPI   C6A   92  12.921  13.868   8.164 -0.1208  0.1073  0.3081
    6loPI   C1B   93  14.129  14.173   9.388  0.2507 -0.2042  0.0173
    6loPI   C2B   94  14.234  14.103   8.925 -0.1623  0.2304  0.1641
    6loPI   C3B   95  14.305  14.052   8.427 -0.0218 -0.0116  0.0676
    6loPI   C4B   96  14.486  14.256   8.085  0.1157  0.0110  0.0771
    7loPI    C1   97  17.956   9.043  10.284  0.1343  0.1921 -0.1570
    7loPI    C2   98  17.996   8.645  10.293 -0.0404  0.1769  0.0387
    7loPI    C3   99  17.995   8.853  10.634 -0.0441  0.3362 -0.0576
    7loPI   PO4  100  17.679   9.051  10.135 -0.2717  0.2352  0.2685
    7loPI   GL1  101  17.680   8.901   9.692  0.1280 -0.0587 -0.0448
    7loPI   GL2  102  17.375   8.994   9.766 -0.0028 -0.2025 -0.1453
    7loPI   C1A  103  17.633   8.834   9.219  0.1275  0.0529  0.0303
    7loPI   C2A  104  17.552   8.944   8.716 -0.2004  0.1473 -0.1593
    7loPI   C3A  105  17.452   8.900   8.412 -0.0581 -0.2660 -0.2769
    7loPI   C4A  106  17.205   8.873   8.032 -0.3925 -0.0975  0.2604
    7loPI   C5A  107  17.212   8.641   7.658  0.2943  0.0804 -0.0803
    7loPI   C6A  108  17.554   8.371   7.416  0.0112 -0.0622 -0.1168
    7loPI   C1B  109  17.121   8.949   9.433  0.0503  0.1471  0.3839
    7loPI   C2B  110  17.096   8.892   9.130 -0.0014  0.1853 -0.1856
    7loPI   C3B  111  17.042   8.929   8.695 -0.1604 -0.2031 -0.1438
    7loPI   C4B  112  16.821   8.970   8.290  0.2731 -0.1592  0.1781
    8loPI    C1  113   7.675   2.674  10.661  0.1901  0.3176 -0.0461
    8loPI    C2  114   7.335   2.686  10.872  0.0480  0.1493 -0.2613
    8loPI    C3  115   7.673   2.560  11.044 -0.0624  0.0321 -0.1277
    8loPI   PO4  116   7.529   2.571  10.419  0.2039  0.1125  0.2466
    8loPI   GL1  117   7.434   2.708   9.947 -0.2746 -0.0209 -0.1727
    8loPI   GL2  118   7.248   2.501   9.943 -0.0299  0.0549  0.0615
    8loPI   C1A  119   7.316   2.986   9.673  0.1099  0.1124  0.1453
    8loPI   C2A  120   7.251   3.127   9.218  0.0477 -0.1228 -0.0904
    8loPI   C3A  121   7.105   3.188   8.840  0.0151  0.0701 -0.0918
    8loPI   C4A  122   6.990   3.072   8.461 -0.3426 -0.1711  0.3395
    8loPI   C5A  123   7.027   3.179   8.019 -0.2469 -0.1878 -0.1297
    8loPI   C6A  124   6.853   3.585   7.854 -0.1504  0.0783 -0.4471
    8loPI   C1B  125   7.064   2.574   9.554 -0.0878 -0.1820 -0.1989
    8loPI   C2B  126   7.019   2.676   9.169  0.3825 -0.0346  0.0932
    8loPI   C3B  127   6.857   2.711   8.739 -0.0096  0.0374  0.0561
    8loPI   C4B  128   6.977   2.550   8.283 -0.1055  0.0750  0.0555
    9loPI    C1  129   6.718  18.041  11.106 -0.0464 -0.0080  0.2315
    9loPI    C2  130   6.425  17.938  11.358  0.0373 -0.1529  0.2709
    9loPI    C3  131   6.685  17.662  11.231  0.1527 -0.0266  0.2302
    9loPI   PO4  132   6.555  18.191  10.852  0.0044  0.0038  0.1623
    9loPI   GL1  133   6.569  18.117  10.448  0.0309  0.2128  0.2704
    9loPI   GL2  134   6.271  18.415  10.359  0.2659  0.5639 -0.1181
    9loPI   C1A  135   6.449  18.058   9.995 -0.0060  0.1217  0.3121
    9loPI   C2A  136   6.328  18.217   9.572 -0.0416 -0.1065 -0.0014
    9loPI   C3A  137   6.282  18.267   9.168  0.1314 -0.1857  0.1288
    9loPI   C4A  138   6.215  18.384   8.854 -0.0982 -0.0452 -0.2364
    9loPI   C5A  139   6.000  18.158   8.521 -0.0161 -0.1462  0.2789
    9loPI   C6A  140   5.851  17.735   8.397 -0.1054  0.3288 -0.1113
    9loPI   C1B  141   6.147  18.575   9.986 -0.1626  0.4495  0.0642
    9loPI   C2B  142   6.299  18.831   9.654 -0.1473 -0.1823  0.1233
    9loPI   C3B  143   6.354  18.724   9.220  0.2281 -0.1907  0.0743
    9loPI   C4B  144   6.430  18.841   8.810  0.0727  0.1547  0.1516
   10loPI    C1  145  10.355   3.173  10.283 -0.1221 -0.0395  0.0566
   10loPI    C2  146  10.499   3.331  10.621 -0.0822 -0.0571  0.0478
   10loPI    C3  147  10.548   2.941  10.545  0.1368 -0.0026 -0.0985
   10loPI   PO4  148  10.450   3.258  10.127 -0.3129  0.2945  0.0245
   10loPI   GL1  149  10.422   3.197   9.656 -0.0444 -0.1235 -0.3654
   10loPI   GL2  150  10.615   3.476   9.588 -0.1569  0.0428  0.0611
   10loPI   C1A  151  10.728   3.016   9.451 -0.3747  0.0446 -0.0849
   10loPI   C2A  152  10.922   2.937   9.147 -0.0382  0.0338 -0.0827
   10loPI   C3A  153  10.972   2.915   8.724 -0.1624 -0.0251 -0.1945
   10loPI   C4A  154  11.100   2.900   8.320  0.1239  0.0121  0.1069
   10loPI   C5A  155  11.350   2.584   8.057 -0.3739  0.2450 -0.3491
   10loPI   C6A  156  11.668   2.284   7.984  0.0106 -0.0194  0.0598
   10loPI   C1B  157  10.704   3.446   9.156  0.3428 -0.1719 -0.2713
   10loPI   C2B  158  10.851   3.473   8.697  0.3725  0.4089 -0.1374
   10loPI   C3B  159  10.897   3.318   8.288  0.1074 -0.0289 -0.1576
   10loPI   C4B  160  10.860   3.425   7.893 -0.1376 -0.0682 -0.0433
   11loPI    C1  161  14.358   2.699  11.030 -0.0256 -0.1522 -0.2361
   11loPI    C2  162  14.334   2.310  11.117  0.2199 -0.1242 -0.0327
   11loPI    C3  163  14.295   2.583  11.407 -0.2316  0.0158 -0.2166
   11loPI   PO4  164  14.174   2.774  10.847 -0.0296  0.1718 -0.1364
   11loPI   GL1  165  14.113   2.686  10.384 -0.0837  0.0317 -0.1147
   11loPI   GL2  166  13.848   2.535  10.242  0.0243 -0.0419 -0.0716
   11loPI   C1A  167  14.312   2.693   9.979 -0.0410  0.0492  0.1404
   11loPI   C2A  168  14.436   2.618   9.599  0.2616 -0.0014 -0.0241
   11loPI   C3A  169  14.551   2.482   9.208  0.2273  0.0392  0.0014
   11loPI   C4A  170  14.516   2.462   8.812 -0.1518 -0.1564  0.2027
   11loPI   C5A  171  14.430   2.265   8.484  0.1653 -0.0612  0.1047
   11loPI   C6A  172  14.299   1.874   8.406 -0.0477 -0.0500 -0.0303
   11loPI   C1B  173  13.845   2.368   9.821 -0.0213 -0.2635 -0.0599
   11loPI   C2B  174  13.901   2.353   9.349 -0.2964 -0.1506  0.1491
   11loPI   C3B  175  13.921   2.253   8.900  0.0667 -0.0196  0.3535
   11loPI   C4B  176  13.884   2.287   8.472  0.1389  0.1033  0.1881
   12loPI    C1  177  14.163  17.453  10.731  0.1787 -0.1107 -0.1848
   12loPI    C2  178  14.547  17.509  10.829  0.1562 -0.1498 -0.0735
   12loPI    C3  179  14.257  17.667  11.055  0.0983 -0.4707  0.0817
   12loPI   PO4  180  14.196  17.551  10.451  0.0083 -0.0376 -0.0637
   12loPI   GL1  181  14.478  17.560  10.111  0.0792 -0.0499  0.4933
   12loPI   GL2  182  14.798  17.577   9.879 -0.1623  0.0792 -0.2588
   12loPI   C1A  183  14.350  17.707   9.744 -0.0790  0.0567  0.0049
   12loPI   C2A  184  14.415  17.720   9.344  0.0154 -0.0371  0.0831
   12loPI   C3A  185  14.317  17.700   8.857 -0.1649  0.3618  0.3830
   12loPI   C4A  186  14.397  17.570   8.524 -0.3180 -0.0416  0.1156
   12loPI   C5A  187  14.323  17.309   8.160  0.0376  0.0235 -0.4575
   12loPI   C6A  188  14.034  17.206   7.958 -0.2132 -0.2054  0.0177
   12loPI   C1B  189  14.794  17.487   9.557 -0.1190 -0.3778 -0.0893
   12loPI   C2B  190  14.728  17.430   9.143  0.1017  0.0752  0.2773
   12loPI   C3B  191  14.739  17.334   8.778  0.1739  0.0590  0.0810
   12loPI   C4B  192  14.811  17.222   8.279 -0.1305 -0.3094  0.0108
   13loPI    C1  193   3.023  16.228  10.524 -0.3445 -0.0242  0.2612
   13loPI    C2  194   2.787  16.551  10.531 -0.0210  0.2248 -0.0016
   13loPI    C3  195   3.149  16.563  10.702 -0.0606 -0.0445  0.1053
   13loPI   PO4  196   2.836  16.065  10.300  0.0917  0.2454 -0.1332
   13loPI   GL1  197   2.897  15.917   9.839 -0.3884 -0.2357  0.2780
   13loPI   GL2  198   3.008  15.627   9.811  0.3614 -0.1187  0.2173
   13loPI   C1A  199   2.925  16.225   9.407  0.1167  0.2592  0.2206
   13loPI   C2A  200   2.941  16.198   8.959  0.1885  0.2861 -0.4214
   13loPI   C3A  201   3.101  16.052   8.668 -0.3671 -0.0978 -0.1605
   13loPI   C4A  202   3.152  15.963   8.265 -0.0811 -0.1561 -0.3782
   13loPI   C5A  203   3.327  16.010   7.903  0.2460  0.0258 -0.0334
   13loPI   C6A  204   3.567  16.105   7.564  0.0178  0.1737 -0.1563
   13loPI   C1B  205   3.113  15.518   9.416 -0.1885 -0.0345  0.0861
   13loPI   C2B  206   3.074  15.647   8.931  0.0472 -0.0609  0.1733
   13loPI   C3B  207   3.022  15.427   8.491  0.0211  0.2141 -0.1399
   13loPI   C4B  208   3.121  15.465   8.066 -0.0489  0.0863 -0.6840
   14loPI    C1  209   9.438  15.742  10.716 -0.1095 -0.1153  0.1403
   14loPI    C2  210   9.498  15.835  11.101 -0.3136  0.1346  0.1145
   14loPI    C3  211   9.367  15.470  11.001  0.2586 -0.1161  0.2368
   14loPI   PO4  212   9.573  15.908  10.584  0.1913  0.1300 -0.2117
   14loPI   GL1  213   9.633  15.857  10.149 -0.2879  0.2911  0.0682
   14loPI   GL2  214   9.356  15.573  10.172  0.0134 -0.0221 -0.1407
   14loPI   C1A  215   9.866  15.913   9.732 -0.0989 -0.0276 -0.2292
   14loPI   C2A  216  10.096  16.100   9.468 -0.0848 -0.0645  0.0326
   14loPI   C3A  217  10.278  16.059   9.131 -0.3407  0.1125  0.2603
   14loPI   C4A  218  10.368  16.039   8.658  0.0283 -0.0062 -0.1269
   14loPI   C5A  219  10.589  16.096   8.275 -0.1830 -0.0953 -0.1982
   14loPI   C6A  220  11.017  16.141   8.276 -0.1040 -0.4970  0.0129
   14loPI   C1B  221   9.366  15.685   9.748 -0.0198 -0.2896  0.3144
   14loPI   C2B  222   9.450  15.682   9.357  0.0093 -0.1142 -0.1872
   14loPI   C3B  223   9.789  15.783   9.133 -0.0108  0.5058  0.0737
   14loPI   C4B  224  10.122  15.523   8.991 -0.0653 -0.2706 -0.2202
   15loPI    C1  225  12.718   3.186  10.648 -0.0238  0.1038 -0.1772
   15loPI    C2  226  12.530   3.303  10.981  0.0010  0.2525 -0.2145
   15loPI    C3  227  12.923   3.367  10.941  0.0590 -0.0419 -0.1436
   15loPI   PO4  228  12.551   3.317  10.430 -0.4244 -0.0120 -0.0964
   15loPI   GL1  229  12.602   3.352   9.996 -0.0557 -0.2860 -0.1224
   15loPI   GL2  230  12.659   3.410   9.733 -0.3252  0.0888  0.0184
   15loPI   C1A  231  12.915   2.996   9.775 -0.0128 -0.1589 -0.0130
   15loPI   C2A  232  12.953   2.935   9.370 -0.0206 -0.0047 -0.1350
   15loPI   C3A  233  13.169   2.942   9.045  0.1823  0.1043 -0.1683
   15loPI   C4A  234  13.295   3.001   8.656  0.0762 -0.2501  0.1156
   15loPI   C5A  235  13.286   3.144   8.217  0.1415  0.3037 -0.2142
   15loPI   C6A  236  13.432   3.272   7.938 -0.0905  0.3917 -0.1317
   15loPI   C1B  237  12.772   3.426   9.262 -0.0350  0.0165  0.1726
   15loPI   C2B  238  12.933   3.403   8.862  0.1923  0.1135 -0.0896
   15loPI   C3B  239  13.019   3.447   8.487 -0.0730  0.1455  0.1503
   15loPI   C4B  240  13.052   3.581   8.024  0.1477  0.3691 -0.2117
   16loPI    C1  241   3.752   3.841  10.352  0.2016  0.1585 -0.1299
   16loPI    C2  242   3.832   3.672  10.705  0.2566  0.1164 -0.1624
   16loPI    C3  243   3.578   3.980  10.684 -0.0284 -0.1125 -0.1336
   16loPI   PO4  244   3.991   3.833  10.213  0.2465 -0.0823 -0.3200
   16loPI   GL1  245   4.080   3.709   9.811 -0.1454 -0.2879  0.1662
   16loPI   GL2  246   3.889   3.415   9.718 -0.1567  0.0683  0.1944
   16loPI   C1A  247   4.188   3.995   9.530  0.0158  0.3020 -0.0174
   16loPI   C2A  248   4.248   4.105   9.037 -0.0195  0.2003  0.0982
   16loPI   C3A  249   4.089   4.032   8.602  0.0228  0.0008 -0.1123
   16loPI   C4A  250   3.725   3.858   8.326  0.0546 -0.0171  0.0515
   16loPI   C5A  251   3.486   3.590   8.100 -0.0034  0.1446 -0.0031
   16loPI   C6A  252   3.468   3.558   7.734  0.0287 -0.0474 -0.2351
   16loPI   C1B  253   3.800   3.595   9.338  0.1856  0.4108 -0.0715
   16loPI   C2B  254   3.865   3.738   8.929 -0.3843 -0.1420 -0.1473
   16loPI   C3B  255   4.016   3.504   8.633  0.2089  0.0173  0.0458
   16loPI   C4B  256   3.920   3.228   8.329  0.0878 -0.2860  0.2601
   17loPI    C1  257   8.834   4.613  10.022 -0.1602  0.2194  0.0037
   17loPI    C2  258   8.753   4.474  10.388  0.3660 -0.0949  0.0110
   17loPI    C3  259   8.980   4.800  10.344  0.1504  0.0511 -0.0356
   17loPI   PO4  260   8.610   4.664   9.922  0.2035 -0.4665  0.2199
   17loPI   GL1  261   8.567   4.628   9.457 -0.1699 -0.1449 -0.1721
   17loPI   GL2  262   8.871   4.863   9.263  0.0543  0.1011 -0.0021
   17loPI   C1A  263   8.433   4.582   9.055  0.0274 -0.2672 -0.0937
   17loPI   C2A  264   8.348   4.586   8.688 -0.0983  0.2404  0.1797
   17loPI   C3A  265   8.150   4.635   8.329 -0.0356 -0.0465  0.1353
   17loPI   C4A  266   8.158   4.592   7.854 -0.0683  0.2068 -0.0667
   17loPI   C5A  267   8.455   4.355   7.538 -0.1061  0.2197  0.0772
   17loPI   C6A  268   8.867   4.112   7.556  0.0339  0.3587 -0.3163
   17loPI   C1B  269   8.792   4.813   8.768 -0.0345 -0.1283  0.1467
   17loPI   C2B  270   8.851   4.761   8.342  0.0729 -0.2032  0.2935
   17loPI   C3B  271   8.650   4.746   7.895  0.0287  0.0888 -0.3392
   17loPI   C4B  272   8.324   4.875   7.534 -0.0187  0.0627 -0.1348
   18loPI    C1  273   9.030   4.105   9.957  0.0482  0.1214 -0.0027
   18loPI    C2  274   9.209   4.317  10.246  0.1635  0.0353 -0.0101
   18loPI    C3  275   9.009   3.983  10.338  0.2465 -0.0218 -0.0361
   18loPI   PO4  276   9.264   4.221   9.770  0.0783  0.1580  0.0053
   18loPI   GL1  277   9.451   4.059   9.347  0.0551  0.0080 -0.1214
   18loPI   GL2  278   9.258   3.888   9.229 -0.0236 -0.1261  0.3619
   18loPI   C1A  279   9.586   4.231   8.968 -0.0908 -0.0815  0.2185
   18loPI   C2A  280   9.516   4.266   8.513 -0.1176 -0.0857 -0.1857
   18loPI   C3A  281   9.280   3.996   8.265 -0.0325  0.1831  0.1019
   18loPI   C4A  282   8.940   3.791   7.977  0.0793 -0.2695 -0.0061
   18loPI   C5A  283   8.632   3.728   7.730  0.3554 -0.2891  0.1209
   18loPI   C6A  284   8.565   3.528   7.255  0.1308 -0.0759  0.1911
   18loPI   C1B  285   9.163   3.859   8.752  0.2153 -0.0177  0.0145
   18loPI   C2B  286   8.851   3.758   8.477 -0.0125 -0.2606 -0.1164
   18loPI   C3B  287   8.469   3.535   8.529 -0.1393 -0.2632  0.2782
   18loPI   C4B  288   8.391   3.299   8.810 -0.2194 -0.1765 -0.0679
   19loPI    C1  289   0.099   5.337  10.953 -0.0202  0.1919  0.1909
   19loPI    C2  290   0.444   5.136  10.966  0.0584  0.3270  0.2195
   19loPI    C3  291   0.164   5.073  11.245 -0.0516  0.0211  0.0450
   19loPI   PO4  292  -0.013   5.239  10.672  0.1635 -0.1375 -0.1907
   19loPI   GL1  293  -0.062   5.431  10.433 -0.0201 -0.0549  0.2090
   19loPI   GL2  294   0.189   5.471  10.225 -0.2647  0.4165  0.4969
   19loPI   C1A  295  -0.305   5.307  10.079 -0.0240 -0.1309  0.2364
   19loPI   C2A  296  -0.344   5.284   9.566  0.5498  0.0223 -0.0352
   19loPI   C3A  297  -0.364   5.058   9.056 -0.1643 -0.1051  0.0896
   19loPI   C4A  298  -0.213   5.066   8.686  0.0352  0.2196  0.1237
   19loPI   C5A  299  -0.178   5.335   8.390 -0.4771  0.3425 -0.2063
   19loPI   C6A  300  -0.402   5.550   7.993 -0.2576  0.1072 -0.1995
   19loPI   C1B  301   0.181   5.287   9.774 -0.0122 -0.1572 -0.0704
   19loPI   C2B  302   0.069   5.064   9.467 -0.2023  0.2863  0.2621
   19loPI   C3B  303   0.157   5.105   9.088  0.2892 -0.0850 -0.1879
   19loPI   C4B  304   0.267   5.282   8.720 -0.0946  0.0341 -0.1189
   20loPI    C1  305  13.469   3.467  10.808 -0.1355  0.1935 -0.2010
   20loPI    C2  306  13.674   3.737  11.020  0.0158 -0.0826  0.0109
   20loPI    C3  307  13.274   3.734  11.033  0.0205 -0.0139  0.1898
   20loPI   PO4  308  13.686   3.313  10.668 -0.0093  0.1139  0.0665
   20loPI   GL1  309  13.736   3.104  10.302 -0.1365  0.0745  0.2715
   20loPI   GL2  310  13.410   3.233  10.198 -0.2297 -0.1085  0.3015
   20loPI   C1A  311  13.915   2.917   9.864 -0.1755  0.1932 -0.1154
   20loPI   C2A  312  13.956   2.805   9.522 -0.1161  0.0421  0.1766
   20loPI   C3A  313  14.117   2.743   9.050  0.1461  0.0678 -0.3985
   20loPI   C4A  314  14.148   2.777   8.606 -0.2473  0.0748 -0.0897
   20loPI   C5A  315  14.163   2.641   8.298  0.5223  0.2408  0.0413
   20loPI   C6A  316  14.360   2.486   8.015 -0.0303 -0.1257  0.1231
   20loPI   C1B  317  13.301   3.401   9.798 -0.2133  0.1051  0.0625
   20loPI   C2B  318  13.250   3.325   9.457  0.0824 -0.0473  0.4238
   20loPI   C3B  319  13.368   3.412   9.011  0.0197 -0.1601 -0.0054
   20loPI   C4B  320  13.534   3.443   8.520 -0.0819  0.1731  0.1679
   21loPI    C1  321   5.920  14.335  10.343  0.0751  0.1305 -0.1078
   21loPI    C2  322   6.115  14.401  10.686  0.2223  0.1295 -0.1904
   21loPI    C3  323   5.715  14.409  10.678  0.2122 -0.0709  0.0227
   21loPI   PO4  324   6.094  14.341  10.151  0.0629 -0.2146 -0.1941
   21loPI   GL1  325   6.074  14.040   9.880 -0.0968 -0.2289 -0.2661
   21loPI   GL2  326   6.034  13.803   9.658 -0.2839 -0.1092  0.0129
   21loPI   C1A  327   6.253  14.216   9.487  0.0835 -0.1728  0.1694
   21loPI   C2A  328   6.296  14.174   9.073 -0.3834 -0.0474 -0.1338
   21loPI   C3A  329   6.376  14.165   8.575  0.1786  0.3747 -0.0532
   21loPI   C4A  330   6.404  14.394   8.251 -0.3575  0.0887 -0.1743
   21loPI   C5A  331   6.596  14.246   7.963 -0.1236  0.0728 -0.2435
   21loPI   C6A  332   6.713  13.838   7.686 -0.1395  0.0651  0.0925
   21loPI   C1B  333   5.895  13.873   9.232 -0.1994  0.0411 -0.2531
   21loPI   C2B  334   5.941  13.887   8.887  0.0010  0.1309 -0.0020
   21loPI   C3B  335   5.912  14.059   8.472 -0.1972  0.1761  0.0393
   21loPI   C4B  336   5.804  14.052   8.003  0.1721  0.0376 -0.2124
   22loPI    C1  337  11.729  13.698  10.929 -0.3113  0.0997  0.2139
   22loPI    C2  338  11.562  14.060  10.901 -0.1227  0.1556 -0.2989
   22loPI    C3  339  11.885  14.007  11.130 -0.3311  0.2366  0.0216
   22loPI   PO4  340  11.628  13.628  10.707 -0.2028  0.0643  0.2701
   22loPI   GL1  341  11.593  13.507  10.250  0.3912 -0.1147  0.1604
   22loPI   GL2  342  11.577  13.839  10.146 -0.0590  0.1222  0.1509
   22loPI   C1A  343  11.302  13.467   9.870 -0.0451 -0.0428 -0.1193
   22loPI   C2A  344  11.493  13.697   9.521  0.1140 -0.1651 -0.0226
   22loPI   C3A  345  11.648  13.744   9.115  0.0993 -0.3785 -0.1366
   22loPI   C4A  346  11.862  13.559   8.807 -0.0357 -0.0242  0.2177
   22loPI   C5A  347  11.945  13.399   8.384  0.0561 -0.0265 -0.0671
   22loPI   C6A  348  12.314  13.177   8.251  0.4012 -0.3101 -0.2468
   22loPI   C1B  349  11.381  14.030   9.835  0.1022 -0.1371  0.3477
   22loPI   C2B  350  11.381  14.141   9.406 -0.0742 -0.2211 -0.4400
   22loPI   C3B  351  11.417  14.302   9.064  0.2418 -0.2012  0.0650
   22loPI   C4B  352  11.618  14.151   8.692 -0.0031  0.0812  0.1271
   23loPI    C1  353   9.087   5.969  10.014 -0.1327 -0.0460 -0.0110
   23loPI    C2  354   8.824   5.981  10.316 -0.0722  0.0344  0.0390
   23loPI    C3  355   8.989   5.633  10.207  0.2581  0.0696  0.4054
   23loPI   PO4  356   9.027   6.101   9.821 -0.0561 -0.0578  0.0941
   23loPI   GL1  357   9.099   6.283   9.466  0.1532 -0.1011  0.1706
   23loPI   GL2  358   8.844   6.297   9.338  0.2842  0.1924  0.1354
   23loPI   C1A  359   9.365   6.196   9.094 -0.0342  0.2286 -0.0988
   23loPI   C2A  360   9.340   6.185   8.757 -0.1811  0.3434 -0.1435
   23loPI   C3A  361   9.223   6.027   8.387  0.0855  0.0009  0.1518
   23loPI   C4A  362   9.292   6.111   8.003  0.3296  0.0195 -0.0798
   23loPI   C5A  363   9.388   5.910   7.677 -0.1525 -0.2796  0.0210
   23loPI   C6A  364   9.801   5.606   7.687 -0.1743 -0.2604  0.1521
   23loPI   C1B  365   8.959   6.467   8.960  0.2301 -0.2869 -0.0531
   23loPI   C2B  366   9.088   6.563   8.562  0.0326 -0.2286  0.3704
   23loPI   C3B  367   9.050   6.571   8.171  0.0938 -0.3149  0.1599
   23loPI   C4B  368   8.850   6.807   7.758 -0.0672  0.3089 -0.2987
   24loPI    C1  369   1.007   6.510  10.781 -0.1482  0.0699 -0.0133
   24loPI    C2  370   0.644   6.641  10.676 -0.1555  0.0953  0.0435
   24loPI    C3  371   0.810   6.764  11.018 -0.0698  0.1273 -0.0094
   24loPI   PO4  372   1.135   6.581  10.532  0.2431  0.0779  0.2716
   24loPI   GL1  373   1.241   6.356  10.093 -0.1243  0.0735 -0.0352
   24loPI   GL2  374   1.526   6.401  10.081  0.1290  0.0141 -0.3061
   24loPI   C1A  375   1.051   6.489   9.734 -0.0892 -0.1086 -0.0366
   24loPI   C2A  376   1.037   6.540   9.346  0.0735 -0.2481  0.1706
   24loPI   C3A  377   1.106   6.459   8.892  0.6181  0.2667 -0.1967
   24loPI   C4A  378   1.074   6.465   8.485 -0.0330 -0.0757  0.2559
   24loPI   C5A  379   1.196   6.284   8.059 -0.0645  0.1072 -0.2422
   24loPI   C6A  380   1.265   6.076   7.618 -0.4053 -0.0983  0.3434
   24loPI   C1B  381   1.442   6.222   9.684 -0.0655  0.0454 -0.0050
   24loPI   C2B  382   1.262   6.042   9.356 -0.1249 -0.3344  0.3533
   24loPI   C3B  383   1.332   5.963   8.928  0.1174  0.0045 -0.3746
   24loPI   C4B  384   1.307   5.988   8.479  0.0110  0.0879  0.1587
   25loPI    C1  385  11.570   0.652  10.796  0.3217 -0.0032 -0.1107
   25loPI    C2  386  11.681   0.923  11.069  0.0664  0.0195 -0.0264
   25loPI    C3  387  11.780   0.538  11.116 -0.3249 -0.0461  0.3165
   25loPI   PO4  388  11.630   0.867  10.587 -0.0285 -0.0607 -0.1348
   25loPI   GL1  389  11.504   0.852  10.129  0.0595 -0.0868  0.3563
   25loPI   GL2  390  11.560   0.562   9.883  0.2804  0.1158 -0.0109
   25loPI   C1A  391  11.701   1.023   9.711 -0.1049  0.0721 -0.0246
   25loPI   C2A  392  11.844   0.987   9.258  0.0691  0.1176  0.1631
   25loPI   C3A  393  11.749   0.970   8.841 -0.1734 -0.0789  0.0213
   25loPI   C4A  394  11.659   0.761   8.444 -0.0373 -0.4140  0.0439
   25loPI   C5A  395  11.702   0.450   8.189 -0.0122 -0.0171  0.0931
   25loPI   C6A  396  11.783   0.151   7.795 -0.2888  0.0712 -0.2022
   25loPI   C1B  397  11.707   0.510   9.525  0.0558 -0.1707 -0.0450
   25loPI   C2B  398  11.701   0.486   9.067  0.0598 -0.0109 -0.3447
   25loPI   C3B  399  11.458   0.409   8.762 -0.0776  0.3549  0.2365
   25loPI   C4B  400  11.248   0.506   8.364 -0.0127 -0.0566  0.2320
   26loPI    C1  401   9.841  17.350  10.641 -0.0881  0.2641  0.0037
   26loPI    C2  402  10.204  17.246  10.508 -0.0781  0.1662  0.1055
   26loPI    C3  403  10.062  17.087  10.847 -0.1733  0.2837  0.1214
   26loPI   PO4  404   9.881  17.618  10.519 -0.1085  0.1550 -0.0392
   26loPI   GL1  405   9.724  17.724  10.167 -0.3630 -0.1274  0.2270
   26loPI   GL2  406   9.432  17.603  10.107  0.2711  0.2776 -0.1229
   26loPI   C1A  407   9.686  17.804   9.748  0.0518 -0.0865 -0.3662
   26loPI   C2A  408   9.621  17.860   9.264 -0.0495 -0.2081  0.2971
   26loPI   C3A  409   9.521  17.866   8.822  0.0256  0.2968  0.1167
   26loPI   C4A  410   9.416  18.083   8.472  0.0445  0.2717 -0.1132
   26loPI   C5A  411   9.320  18.229   8.116 -0.2968 -0.3108  0.1820
   26loPI   C6A  412   8.909  18.200   8.038  0.0165 -0.1090 -0.3264
   26loPI   C1B  413   9.626  17.315   9.811 -0.2516 -0.0238  0.0687
   26loPI   C2B  414   9.409  17.436   9.484 -0.0797 -0.0785 -0.4058
   26loPI   C3B  415   9.223  17.398   9.047 -0.4608 -0.0998 -0.1541
   26loPI   C4B  416   9.244  17.359   8.621  0.2848  0.0601 -0.0967
   27loPI    C1  417  13.619   1.414  10.722  0.1355 -0.2172 -0.1400
   27loPI    C2  418  13.504   1.146  10.995  0.1374  0.0902  0.1690
   27loPI    C3  419  13.230   1.355  10.793  0.1369 -0.1074 -0.0391
   27loPI   PO4  420  13.757   1.263  10.560 -0.3452  0.0245  0.3496
   27loPI   GL1  421  13.857   1.466  10.237  0.1953 -0.0549  0.3012
   27loPI   GL2  422  14.100   1.632  10.121  0.0067 -0.1001  0.1752
   27loPI   C1A  423  13.758   1.349   9.797  0.0261  0.2843 -0.0210
   27loPI   C2A  424  13.690   1.263   9.404 -0.1317  0.2644 -0.2404
   27loPI   C3A  425  13.683   1.276   8.965  0.2315 -0.2372 -0.1685
   27loPI   C4A  426  13.764   1.249   8.524 -0.2633 -0.3185  0.0337
   27loPI   C5A  427  13.622   1.072   8.172  0.3364  0.0386 -0.0659
   27loPI   C6A  428  13.233   0.838   8.186 -0.0304  0.0362 -0.0064
   27loPI   C1B  429  14.138   1.559   9.579  0.2703 -0.3413  0.2550
   27loPI   C2B  430  14.174   1.472   9.267 -0.1316  0.3165 -0.0653
   27loPI   C3B  431  14.173   1.372   8.912  0.0182 -0.0848 -0.2996
   27loPI   C4B  432  14.298   1.347   8.430  0.1870  0.1400 -0.1894
   28loPI    C1  433   9.378   1.243  10.517 -0.0179  0.0735 -0.1408
   28loPI    C2  434   9.362   1.316  10.910  0.2719  0.0087 -0.1141
   28loPI    C3  435   9.082   1.089  10.736  0.0146  0.2247  0.0113
   28loPI   PO4  436   9.508   1.439  10.427  0.0980 -0.2543  0.0051
   28loPI   GL1  437   9.584   1.609   9.899  0.2268  0.0481  0.3518
   28loPI   GL2  438   9.425   1.526   9.721  0.0867 -0.0770 -0.0466
   28loPI   C1A  439   9.684   1.969   9.522 -0.1081 -0.1690  0.2377
   28loPI   C2A  440   9.659   1.988   9.093 -0.0292 -0.2113 -0.1491
   28loPI   C3A  441   9.584   1.937   8.753  0.1791 -0.0451  0.1947
   28loPI   C4A  442   9.721   1.901   8.341  0.2104  0.1868 -0.0517
   28loPI   C5A  443   9.799   1.777   7.845  0.0213 -0.0834 -0.1922
   28loPI   C6A  444   9.815   1.506   7.481  0.1629 -0.1648 -0.0803
   28loPI   C1B  445   9.346   1.615   9.230  0.1924  0.0381 -0.0623
   28loPI   C2B  446   9.250   1.540   8.855  0.1030  0.1040  0.2203
   28loPI   C3B  447   9.480   1.412   8.519 -0.0038 -0.0944  0.0863
   28loPI   C4B  448   9.475   1.475   8.126  0.0749 -0.1149  0.0163
   29loPI    C1  449  12.446  12.384  10.649 -0.0027 -0.0342 -0.2679
   29loPI    C2  450  12.581  12.209  10.982 -0.2190 -0.1597 -0.2443
   29loPI    C3  451  12.338  12.526  11.008  0.1516  0.1349 -0.2868
   29loPI   PO4  452  12.390  12.089  10.520  0.1778  0.0855  0.1052
   29loPI   GL1  453  12.412  11.963  10.134 -0.1064 -0.2707  0.0493
   29loPI   GL2  454  12.658  12.152  10.136 -0.1165  0.4313  0.2089
   29loPI   C1A  455  12.126  11.904   9.822 -0.0521 -0.1480  0.0229
   29loPI   C2A  456  11.752  11.981   9.612 -0.1634  0.1287  0.1129
   29loPI   C3A  457  11.584  12.252   9.386  0.2722 -0.2645  0.0624
   29loPI   C4A  458  11.220  12.549   9.405  0.0390  0.1945 -0.2141
   29loPI   C5A  459  11.169  12.856   9.855  0.0355  0.0368  0.4182
   29loPI   C6A  460  11.351  13.015  10.166  0.1993 -0.1338  0.0947
   29loPI   C1B  461  12.881  12.298   9.859 -0.3826 -0.2890 -0.1278
   29loPI   C2B  462  13.136  12.539   9.544 -0.0233 -0.1125  0.0491
   29loPI   C3B  463  13.146  12.420   9.139  0.2540  0.3612 -0.1099
   29loPI   C4B  464  13.068  12.389   8.749  0.2560  0.0916  0.0611
   30loPI    C1  465  17.869   9.453  10.695  0.0477 -0.1086 -0.0881
   30loPI    C2  466  17.600   9.159  10.655 -0.0434 -0.0346 -0.0253
   30loPI    C3  467  17.675   9.315  11.016  0.1224 -0.0901 -0.0348
   30loPI   PO4  468  17.842   9.541  10.376  0.2013  0.2318 -0.2660
   30loPI   GL1  469  17.826   9.932  10.104 -0.3352 -0.0035  0.1895
   30loPI   GL2  470  18.156   9.899  10.113  0.0863  0.3814  0.0522
   30loPI   C1A  471  17.723  10.046   9.763  0.2112  0.2058  0.0805
   30loPI   C2A  472  17.730   9.880   9.436 -0.1063  0.0633  0.0515
   30loPI   C3A  473  17.528   9.944   9.072  0.2133 -0.1115 -0.2872
   30loPI   C4A  474  17.627   9.845   8.850  0.1979  0.2103 -0.1262
   30loPI   C5A  475  17.560   9.744   8.400 -0.1796  0.2346 -0.1850
   30loPI   C6A  476  17.640   9.787   7.956 -0.0499  0.2554  0.0062
   30loPI   C1B  477  18.231   9.894   9.588  0.0023  0.0239 -0.2098
   30loPI   C2B  478  18.116   9.888   9.110  0.1024  0.1147  0.0863
   30loPI   C3B  479  18.138   9.784   8.694 -0.1227  0.0016 -0.2347
   30loPI   C4B  480  18.096   9.752   8.234 -0.2766 -0.1139  0.1605
   31loPI    C1  481  10.732  13.086  10.664 -0.0552 -0.1224 -0.0162
   31loPI    C2  482  10.727  12.935  11.035  0.1740 -0.1078 -0.0057
   31loPI    C3  483  10.783  13.327  10.979 -0.1421 -0.0659 -0.0453
   31loPI   PO4  484  10.794  12.882  10.517  0.2083  0.1719  0.0128
   31loPI   GL1  485  10.616  12.692  10.162  0.0397  0.2321 -0.3144
   31loPI   GL2  486  10.692  12.968  10.029  0.2530 -0.0251  0.0454
   31loPI   C1A  487  10.711  12.581   9.698  0.0058 -0.0785  0.1885
   31loPI   C2A  488  10.707  12.718   9.276 -0.0766  0.1866  0.2074
   31loPI   C3A  489  10.989  12.688   8.939  0.0780  0.0824 -0.0158
   31loPI   C4A  490  10.948  12.611   8.449  0.0116  0.4060  0.1895
   31loPI   C5A  491  11.219  12.289   8.152  0.0487 -0.3738  0.0240
   31loPI   C6A  492  11.104  12.058   7.809 -0.1303  0.3976  0.0951
   31loPI   C1B  493  10.782  13.106   9.588 -0.1560  0.0858 -0.0437
   31loPI   C2B  494  10.872  13.253   9.146 -0.1439 -0.0533 -0.0863
   31loPI   C3B  495  11.033  13.121   8.698 -0.4711 -0.2094  0.1336
   31loPI   C4B  496  11.070  13.065   8.271 -0.5706 -0.0077 -0.0544
   32loPI    C1  497  11.445  11.389  10.806 -0.0963 -0.2421 -0.0110
   32loPI    C2  498  11.808  11.525  10.707 -0.1679  0.0842  0.1626
   32loPI    C3  499  11.734  11.405  11.081 -0.1654 -0.2421  0.0618
   32loPI   PO4  500  11.400  11.281  10.468  0.3260 -0.0877  0.1454
   32loPI   GL1  501  11.311  11.283  10.099 -0.2998 -0.3268 -0.1696
   32loPI   GL2  502  11.210  11.540  10.030 -0.2055 -0.1278  0.1064
   32loPI   C1A  503  11.564  11.148   9.744 -0.0258 -0.3110  0.1795
   32loPI   C2A  504  11.603  11.024   9.296  0.1140  0.1556  0.3090
   32loPI   C3A  505  11.629  11.187   8.925  0.1303 -0.2112  0.1033
   32loPI   C4A  506  11.908  11.272   8.661  0.4460  0.0389  0.1971
   32loPI   C5A  507  12.323  11.257   8.477  0.0130  0.0029  0.1797
   32loPI   C6A  508  12.473  11.446   8.072 -0.0563 -0.2158 -0.2515
   32loPI   C1B  509  11.294  11.639   9.629 -0.0318 -0.2143  0.2380
   32loPI   C2B  510  11.429  11.686   9.196 -0.1139  0.1238  0.0008
   32loPI   C3B  511  11.434  11.698   8.745 -0.2141  0.0806  0.0811
   32loPI   C4B  512  11.220  11.735   8.309  0.0381 -0.0607 -0.0542
   33loPI    C1  513   0.003  11.230  10.888 -0.0701  0.2456  0.1600
   33loPI    C2  514   0.011  10.844  10.992  0.1202  0.2254  0.0731
   33loPI    C3  515  -0.243  11.094  11.172  0.0588  0.0780  0.1928
   33loPI   PO4  516  -0.017  11.133  10.463 -0.0380 -0.0744  0.0153
   33loPI   GL1  517  -0.316  11.250  10.194  0.2254  0.1674  0.2566
   33loPI   GL2  518  -0.614  11.300  10.324  0.3596 -0.1396  0.2279
   33loPI   C1A  519  -0.168  11.156   9.783 -0.0186  0.0140 -0.3068
   33loPI   C2A  520   0.028  10.984   9.384  0.0061  0.1089  0.0118
   33loPI   C3A  521   0.111  10.975   8.985  0.2983 -0.2128  0.1117
   33loPI   C4A  522  -0.015  10.681   8.752 -0.1360  0.2348 -0.1244
   33loPI   C5A  523  -0.148  10.596   8.289  0.3004  0.0852  0.4859
   33loPI   C6A  524  -0.439  10.739   7.988  0.0639 -0.1579 -0.1614
   33loPI   C1B  525  -0.698  11.268   9.850 -0.1205 -0.1724  0.1438
   33loPI   C2B  526  -0.790  11.218   9.443  0.2769 -0.0210  0.0819
   33loPI   C3B  527  -0.769  11.308   8.972 -0.2415 -0.2520 -0.0013
   33loPI   C4B  528  -0.774  11.286   8.552  0.0916  0.1126  0.0932
   34loPI    C1  529   6.108  14.915  10.677  0.0102  0.3122  0.1334
   34loPI    C2  530   5.819  14.795  10.925 -0.0639 -0.0189 -0.1065
   34loPI    C3  531   6.202  14.766  11.036 -0.0844 -0.4002 -0.1226
   34loPI   PO4  532   5.958  14.844  10.406 -0.3609  0.1303 -0.0359
   34loPI   GL1  533   6.079  14.828   9.985 -0.0824 -0.1835 -0.0221
   34loPI   GL2  534   6.251  14.634   9.752 -0.1689 -0.2974  0.2242
   34loPI   C1A  535   5.987  15.129   9.584 -0.2855  0.1272  0.3631
   34loPI   C2A  536   6.044  15.135   9.154  0.0894 -0.0397  0.4019
   34loPI   C3A  537   6.116  15.233   8.780 -0.0590  0.0426  0.2433
   34loPI   C4A  538   6.206  15.409   8.364  0.2489  0.1701 -0.0891
   34loPI   C5A  539   6.222  15.348   7.881  0.1976  0.1508 -0.0989
   34loPI   C6A  540   6.051  15.596   7.405 -0.0762 -0.1095 -0.0112
   34loPI   C1B  541   6.175  14.686   9.332  0.0753 -0.3081  0.1528
   34loPI   C2B  542   6.177  14.672   8.901 -0.0437  0.0228 -0.1322
   34loPI   C3B  543   6.277  14.816   8.540 -0.1656 -0.2139 -0.1552
   34loPI   C4B  544   6.225  14.936   8.186  0.3085 -0.2802  0.1619
   35loPI    C1  545  11.070  14.590  10.565 -0.1315  0.3408  0.0865
   35loPI    C2  546  11.301  14.465  10.866 -0.0469  0.1267 -0.0650
   35loPI    C3  547  11.383  14.810  10.682  0.2181  0.0029 -0.1850
   35loPI   PO4  548  11.048  14.337  10.397  0.0476  0.0146  0.0850
   35loPI   GL1  549  10.920  14.142  10.101  0.0626 -0.0793  0.0552
   35loPI   GL2  550  10.861  13.860  10.030  0.0226  0.3759  0.0997
   35loPI   C1A  551  10.787  14.338   9.810 -0.1851 -0.1954  0.0106
   35loPI   C2A  552  10.490  14.459   9.537 -0.1060  0.1484 -0.0023
   35loPI   C3A  553  10.293  14.687   9.152  0.0804  0.0143  0.1281
   35loPI   C4A  554  10.350  14.792   8.750  0.0686  0.0624  0.0367
   35loPI   C5A  555  10.373  14.856   8.306  0.0881  0.0686 -0.1311
   35loPI   C6A  556  10.671  14.821   7.956 -0.0749 -0.1056  0.2911
   35loPI   C1B  557  10.940  13.882   9.620  0.1139 -0.0183  0.0634
   35loPI   C2B  558  11.074  13.876   9.177  0.0195 -0.0393  0.3149
   35loPI   C3B  559  11.263  13.756   8.736 -0.4163  0.2884 -0.0914
   35loPI   C4B  560  11.075  13.600   8.408  0.1258 -0.1949  0.0581
   36loPI    C1  561   6.569  12.433  10.440 -0.3237 -0.0732  0.1173
   36loPI    C2  562   6.747  12.128  10.629 -0.0258  0.0149 -0.0145
   36loPI    C3  563   6.665  12.466  10.827 -0.1638 -0.0719  0.0782
   36loPI   PO4  564   6.553  12.229  10.170 -0.2975 -0.0908  0.2151
   36loPI   GL1  565   6.343  12.358   9.815 -0.1116 -0.2082 -0.2044
   36loPI   GL2  566   5.945  12.489   9.748  0.1432 -0.1691 -0.6115
   36loPI   C1A  567   6.658  12.585   9.580  0.0817 -0.1453 -0.0392
   36loPI   C2A  568   6.676  12.725   9.167  0.1997  0.0326 -0.0033
   36loPI   C3A  569   6.687  12.737   8.674  0.2615 -0.1344  0.1388
   36loPI   C4A  570   6.677  12.768   8.286  0.2967  0.2274 -0.0104
   36loPI   C5A  571   7.032  12.575   7.974  0.1536 -0.1014  0.0067
   36loPI   C6A  572   7.436  12.315   7.901  0.2279  0.3103  0.4013
   36loPI   C1B  573   6.226  12.527   9.326  0.2962  0.2054 -0.0598
   36loPI   C2B  574   6.279  12.493   8.944 -0.1705 -0.0225  0.2507
   36loPI   C3B  575   6.115  12.365   8.588  0.1311 -0.2370 -0.0496
   36loPI   C4B  576   6.179  12.637   8.308  0.0481 -0.0677  0.1568
   37loPI    C1  577   4.612  12.725  10.277  0.1628  0.0181  0.3131
   37loPI    C2  578   4.625  13.018  10.549 -0.1945  0.2485  0.0906
   37loPI    C3  579   4.278  12.837  10.466 -0.0307 -0.0356  0.0102
   37loPI   PO4  580   4.795  12.783  10.140 -0.1658 -0.2798 -0.3042
   37loPI   GL1  581   4.663  12.637   9.656  0.0370  0.0563  0.0116
   37loPI   GL2  582   4.670  12.936   9.651  0.1172  0.0847 -0.1618
   37loPI   C1A  583   4.686  12.631   9.196  0.2159  0.1455 -0.0017
   37loPI   C2A  584   4.622  12.690   8.737  0.2055  0.2441  0.1344
   37loPI   C3A  585   4.500  12.487   8.404  0.2680 -0.0145  0.1619
   37loPI   C4A  586   4.518  12.483   7.988 -0.3237  0.2426 -0.1217
   37loPI   C5A  587   4.434  12.138   7.812  0.1454 -0.2248  0.1823
   37loPI   C6A  588   4.359  11.718   7.773 -0.2617 -0.0741  0.1927
   37loPI   C1B  589   4.509  13.084   9.208 -0.0758 -0.1144 -0.3029
   37loPI   C2B  590   4.501  13.193   8.672 -0.2624  0.3302 -0.4892
   37loPI   C3B  591   4.587  13.204   8.266  0.0479 -0.0980  0.1443
   37loPI   C4B  592   4.526  13.327   7.847 -0.3699 -0.3431  0.0548
   38loPI    C1  593   3.896  13.202  10.508 -0.1829 -0.0275  0.0055
   38loPI    C2  594   4.128  13.161  10.831 -0.0500  0.0096 -0.0844
   38loPI    C3  595   3.743  13.262  10.873  0.0060  0.1717  0.0545
   38loPI   PO4  596   4.028  13.305  10.294  0.2651  0.1378  0.2133
   38loPI   GL1  597   3.888  13.141   9.932 -0.0210 -0.2771  0.1596
   38loPI   GL2  598   4.126  13.113   9.661  0.1280 -0.0322  0.2212
   38loPI   C1A  599   3.695  13.280   9.560 -0.1141 -0.2055 -0.3186
   38loPI   C2A  600   3.669  13.492   9.150  0.2081 -0.2190 -0.1634
   38loPI   C3A  601   3.590  13.516   8.741  0.1916 -0.1320  0.0592
   38loPI   C4A  602   3.732  13.631   8.406  0.1365  0.1717 -0.2448
   38loPI   C5A  603   3.715  13.606   8.031  0.3078  0.0397 -0.1718
   38loPI   C6A  604   3.925  13.618   7.618 -0.1742 -0.2686  0.2979
   38loPI   C1B  605   4.074  13.237   9.199  0.4110  0.0787 -0.0288
   38loPI   C2B  606   4.005  13.354   8.827  0.0038 -0.0069  0.0066
   38loPI   C3B  607   4.176  13.457   8.461 -0.2625 -0.1448  0.1595
   38loPI   C4B  608   4.204  13.627   8.018 -0.1213 -0.2876 -0.0561
   39loPI    C1  609  14.052  16.344  10.539  0.0352  0.0290 -0.0766
   39loPI    C2  610  14.126  16.278  10.926 -0.1340 -0.0778 -0.0615
   39loPI    C3  611  14.066  16.651  10.795 -0.1661 -0.0500  0.0313
   39loPI   PO4  612  13.889  16.202  10.480 -0.2229  0.1772  0.1522
   39loPI   GL1  613  13.648  16.403  10.069 -0.0075 -0.2491 -0.2105
   39loPI   GL2  614  13.980  16.187  10.003 -0.1888 -0.1800 -0.2034
   39loPI   C1A  615  13.668  16.369   9.626 -0.0540  0.3495  0.3260
   39loPI   C2A  616  13.666  16.279   9.217  0.0785  0.0120 -0.1726
   39loPI   C3A  617  13.683  16.417   8.821  0.2347  0.0194 -0.1434
   39loPI   C4A  618  13.678  16.326   8.409 -0.0186  0.1685  0.1476
   39loPI   C5A  619  13.612  16.068   8.096 -0.0726 -0.2213  0.0256
   39loPI   C6A  620  13.252  15.901   7.850  0.0334 -0.1459 -0.1626
   39loPI   C1B  621  14.175  16.130   9.599  0.1673  0.3742 -0.1731
   39loPI   C2B  622  14.145  16.127   9.197  0.1589 -0.0295  0.2100
   39loPI   C3B  623  14.036  16.078   8.783  0.0396 -0.0710 -0.0413
   39loPI   C4B  624  14.020  15.955   8.360  0.0331 -0.1180 -0.2026
   40loPI    C1  625  13.601  16.722  10.706  0.2337 -0.0740  0.1750
   40loPI    C2  626  13.553  16.357  10.861 -0.1811 -0.1313 -0.0741
   40loPI    C3  627  13.255  16.624  10.880  0.1179  0.1988  0.1051
   40loPI   PO4  628  13.691  16.732  10.448 -0.1505  0.1390  0.2000
   40loPI   GL1  629  13.532  16.887  10.037  0.3076 -0.0157  0.2606
   40loPI   GL2  630  13.809  17.145  10.113 -0.0603 -0.1197  0.0146
   40loPI   C1A  631  13.455  16.959   9.657  0.0754  0.2431 -0.2414
   40loPI   C2A  632  13.681  16.887   9.307  0.1786  0.1642 -0.1461
   40loPI   C3A  633  13.835  16.927   8.912  0.2070  0.1789 -0.4054
   40loPI   C4A  634  13.828  16.791   8.421 -0.2241 -0.0087 -0.1304
   40loPI   C5A  635  13.635  16.862   8.031  0.1868  0.2445 -0.0572
   40loPI   C6A  636  13.564  16.822   7.569  0.0987 -0.2401 -0.0984
   40loPI   C1B  637  13.989  17.292   9.733 -0.1136 -0.0482 -0.2175
   40loPI   C2B  638  14.239  17.278   9.421 -0.0786  0.2407  0.0918
   40loPI   C3B  639  14.325  17.157   8.975  0.0828 -0.6079 -0.2970
   40loPI   C4B  640  14.186  17.091   8.564 -0.3366 -0.0456 -0.0942
   41loPI    C1  641  17.713   9.929  10.709 -0.0739 -0.3647  0.1582
   41loPI    C2  642  17.583  10.273  10.867  0.3166 -0.0977 -0.0862
   41loPI    C3  643  17.623   9.949  11.099 -0.1339 -0.0070  0.1293
   41loPI   PO4  644  17.449   9.926  10.449 -0.0657 -0.1514  0.3519
   41loPI   GL1  645  17.361  10.228  10.059  0.0028 -0.0713  0.0945
   41loPI   GL2  646  17.194   9.882  10.057 -0.1047  0.0891  0.0580
   41loPI   C1A  647  17.393  10.328   9.584 -0.0689 -0.1602  0.1876
   41loPI   C2A  648  17.372  10.510   9.283 -0.1223  0.1704  0.2510
   41loPI   C3A  649  17.398  10.412   8.867  0.2227  0.0265 -0.1907
   41loPI   C4A  650  17.409  10.443   8.377  0.1136  0.2586 -0.0281
   41loPI   C5A  651  17.632  10.256   8.015  0.1866 -0.1570  0.3486
   41loPI   C6A  652  18.045  10.286   7.866 -0.2034 -0.0003  0.2100
   41loPI   C1B  653  17.183   9.878   9.748  0.0856 -0.2500  0.2525
   41loPI   C2B  654  17.068   9.841   9.397 -0.1025  0.1972  0.2828
   41loPI   C3B  655  17.078   9.783   8.940  0.0116  0.2322 -0.2845
   41loPI   C4B  656  17.134  10.026   8.674 -0.2306  0.2960 -0.2562
   42loPI    C1  657   4.079   5.070  10.482 -0.2002  0.1302 -0.0527
   42loPI    C2  658   4.189   5.061  10.866  0.2644 -0.2110 -0.1855
   42loPI    C3  659   3.984   4.756  10.709  0.0789 -0.0741 -0.2121
   42loPI   PO4  660   4.230   5.088  10.326  0.0521  0.1186 -0.0622
   42loPI   GL1  661   4.154   5.127   9.928  0.0048  0.1592 -0.4603
   42loPI   GL2  662   4.134   5.417   9.794  0.0667 -0.1250 -0.1158
   42loPI   C1A  663   3.988   4.938   9.692 -0.1057  0.1698 -0.3216
   42loPI   C2A  664   3.893   5.079   9.337 -0.0637  0.2692  0.1390
   42loPI   C3A  665   3.901   5.154   8.883 -0.3258 -0.2165  0.0872
   42loPI   C4A  666   3.988   5.233   8.437  0.1225 -0.0059 -0.1642
   42loPI   C5A  667   3.996   5.488   8.044  0.0591  0.1955  0.2217
   42loPI   C6A  668   3.695   5.843   7.898 -0.0363  0.0901  0.2402
   42loPI   C1B  669   4.276   5.455   9.337  0.0280  0.0211 -0.0148
   42loPI   C2B  670   4.264   5.461   8.874  0.3868 -0.3172 -0.0296
   42loPI   C3B  671   4.367   5.501   8.495  0.2492 -0.0531  0.0876
   42loPI   C4B  672   4.602   5.507   8.099  0.0737 -0.2147  0.3494
   43loPI    C1  673  14.949   8.802  10.456 -0.5106 -0.0681 -0.0960
   43loPI    C2  674  14.965   8.449  10.644  0.1586  0.0618  0.1158
   43loPI    C3  675  14.974   8.789  10.855  0.0105  0.2091 -0.1110
   43loPI   PO4  676  14.690   8.812  10.241  0.1398  0.1099  0.0577
   43loPI   GL1  677  14.624   8.993   9.890  0.1235 -0.1807 -0.0338
   43loPI   GL2  678  14.400   9.173   9.986 -0.0085 -0.0991  0.1233
   43loPI   C1A  679  14.895   8.682   9.691  0.0239 -0.2227  0.0047
   43loPI   C2A  680  14.896   8.337   9.465 -0.0650  0.2238  0.0582
   43loPI   C3A  681  14.786   8.274   9.008  0.0778 -0.1589 -0.0286
   43loPI   C4A  682  14.623   8.440   8.552 -0.0096  0.2376 -0.0108
   43loPI   C5A  683  14.244   8.753   8.402 -0.2800 -0.0953 -0.3307
   43loPI   C6A  684  14.044   8.817   8.713  0.2008  0.0140 -0.0779
   43loPI   C1B  685  14.261   9.169   9.559 -0.0101  0.0880  0.0777
   43loPI   C2B  686  14.275   9.211   9.085 -0.2892  0.1330  0.3249
   43loPI   C3B  687  14.319   9.241   8.659 -0.1698 -0.0459  0.5212
   43loPI   C4B  688  13.991   9.160   8.320 -0.1451  0.0125  0.2923
   44loPI    C1  689   4.291   0.054  10.760 -0.3073 -0.0579 -0.1233
   44loPI    C2  690   4.344   0.374  10.994  0.1026 -0.0254 -0.2528
   44loPI    C3  691   3.990   0.188  10.986  0.0357  0.0643  0.2738
   44loPI   PO4  692   4.360   0.071  10.483 -0.1090  0.0479 -0.2462
   44loPI   GL1  693   4.457  -0.157  10.168  0.0124  0.0843 -0.1904
   44loPI   GL2  694   4.757  -0.145   9.963  0.2328 -0.0241  0.4864
   44loPI   C1A  695   4.186  -0.113   9.796 -0.0210 -0.2270  0.0525
   44loPI   C2A  696   4.195  -0.111   9.371  0.4363  0.1847 -0.2947
   44loPI   C3A  697   4.176  -0.124   8.994 -0.0993 -0.1368  0.1441
   44loPI   C4A  698   4.093  -0.067   8.566  0.3914 -0.1574  0.1885
   44loPI   C5A  699   3.648  -0.183   8.351  0.3034  0.1054  0.1028
   44loPI   C6A  700   3.268  -0.309   8.172 -0.0563  0.0465 -0.1025
   44loPI   C1B  701   5.152  -0.297   9.743  0.3791 -0.0291  0.1818
   44loPI   C2B  702   5.374  -0.507   9.636 -0.4073 -0.2395  0.1187
   44loPI   C3B  703   5.511  -0.741   9.278  0.0538 -0.2282 -0.1653
   44loPI   C4B  704   5.580  -0.721   8.850 -0.3044  0.1695  0.2964
   45loPI    C1  705   7.484  10.779  10.631 -0.0000  0.1017 -0.2704
   45loPI    C2  706   7.397  11.169  10.614 -0.1076  0.0904 -0.0168
   45loPI    C3  707   7.410  10.981  10.967 -0.0574 -0.1369 -0.1373
   45loPI   PO4  708   7.654  10.716  10.477  0.3155 -0.0099  0.2804
   45loPI   GL1  709   7.837  10.852  10.066 -0.0644  0.2582 -0.1886
   45loPI   GL2  710   7.964  10.765   9.789  0.3270 -0.0340 -0.1893
   45loPI   C1A  711   8.062  11.268   9.809 -0.2355 -0.0811  0.2436
   45loPI   C2A  712   8.274  11.375   9.475 -0.0585 -0.4209 -0.1128
   45loPI   C3A  713   8.358  11.473   9.058 -0.0177 -0.0705  0.1777
   45loPI   C4A  714   8.348  11.431   8.678 -0.0813 -0.1816 -0.0884
   45loPI   C5A  715   8.352  11.415   8.219  0.0060 -0.1296 -0.0516
   45loPI   C6A  716   8.622  11.472   7.968 -0.2291  0.0917  0.1298
   45loPI   C1B  717   7.912  10.728   9.429 -0.1225 -0.1096  0.2007
   45loPI   C2B  718   7.886  10.742   8.966  0.1005  0.1663 -0.0131
   45loPI   C3B  719   7.943  10.823   8.571 -0.2232  0.0016 -0.0076
   45loPI   C4B  720   8.012  10.822   8.182 -0.0712  0.2689 -0.1628
   46loPI    C1  721  17.158   5.643  11.061 -0.0721  0.1131  0.1206
   46loPI    C2  722  17.475   5.487  11.250 -0.1109  0.1191  0.1910
   46loPI    C3  723  17.173   5.644  11.460 -0.0641  0.3064  0.1208
   46loPI   PO4  724  17.083   5.458  10.866  0.2474 -0.0569  0.0830
   46loPI   GL1  725  17.219   5.382  10.453  0.0647 -0.0399  0.2252
   46loPI   GL2  726  17.482   5.474  10.347 -0.0428  0.1588  0.2485
   46loPI   C1A  727  16.793   5.295  10.096  0.0413 -0.1197 -0.0608
   46loPI   C2A  728  16.768   5.283   9.668  0.1820 -0.1459  0.0517
   46loPI   C3A  729  16.675   5.317   9.265 -0.0627 -0.3170  0.0883
   46loPI   C4A  730  16.724   5.325   8.809  0.0188  0.3761  0.1358
   46loPI   C5A  731  16.891   5.388   8.407 -0.1643  0.2056  0.0289
   46loPI   C6A  732  16.762   5.570   8.077 -0.0269  0.1031  0.0012
   46loPI   C1B  733  17.239   5.160  10.026  0.0868  0.1844 -0.0353
   46loPI   C2B  734  17.259   5.182   9.603 -0.0562 -0.2213  0.1805
   46loPI   C3B  735  17.264   5.272   9.126 -0.0080  0.0309  0.0215
   46loPI   C4B  736  17.300   5.230   8.682  0.0025 -0.1903 -0.1829
   47loPI    C1  737   0.224   8.009  10.813 -0.0409 -0.1504 -0.1186
   47loPI    C2  738   0.520   7.809  10.994 -0.0663 -0.2406 -0.1759
   47loPI    C3  739   0.165   7.847  11.174  0.1226  0.2815  0.1091
   47loPI   PO4  740   0.183   7.946  10.513 -0.0800 -0.0469 -0.4230
   47loPI   GL1  741  -0.006   8.113  10.278 -0.1943  0.0783 -0.2442
   47loPI   GL2  742  -0.248   8.138  10.257  0.1350 -0.3195 -0.1199
   47loPI   C1A  743   0.031   7.933   9.885 -0.0453  0.0007  0.0016
   47loPI   C2A  744  -0.067   7.952   9.500  0.0425 -0.1515 -0.0297
   47loPI   C3A  745  -0.053   7.948   9.057  0.1416  0.0771 -0.0058
   47loPI   C4A  746  -0.154   7.898   8.505  0.1704  0.0176  0.4602
   47loPI   C5A  747  -0.477   7.724   8.101  0.1389  0.1489  0.1667
   47loPI   C6A  748  -0.835   7.738   8.138 -0.0109  0.0008  0.0452
   47loPI   C1B  749  -0.534   8.053   9.799 -0.2171 -0.1441 -0.1264
   47loPI   C2B  750  -0.548   7.970   9.347  0.0608  0.2728  0.2989
   47loPI   C3B  751  -0.594   7.997   8.956  0.0877  0.0397  0.2472
   47loPI   C4B  752  -0.676   7.983   8.540  0.1559  0.1920 -0.2781
   48loPI    C1  753  16.773  10.423  10.956  0.1400  0.1682 -0.0628
   48loPI    C2  754  16.747  10.715  11.228 -0.0042 -0.0076  0.1159
   48loPI    C3  755  16.811  10.338  11.345  0.1234 -0.0575 -0.1089
   48loPI   PO4  756  16.859  10.584  10.718  0.2130 -0.0329 -0.0694
   48loPI   GL1  757  16.972  10.642  10.313  0.0266 -0.0962 -0.0745
   48loPI   GL2  758  17.301  10.549  10.554 -0.0738 -0.1059  0.1466
   48loPI   C1A  759  17.096  10.691   9.943 -0.0583  0.0308  0.2559
   48loPI   C2A  760  17.050  10.822   9.577 -0.1802  0.1095 -0.0730
   48loPI   C3A  761  17.104  10.831   9.051 -0.0082  0.0849 -0.1701
   48loPI   C4A  762  17.141  10.865   8.639 -0.1897 -0.2173  0.0356
   48loPI   C5A  763  17.183  10.808   8.109 -0.2545 -0.0549 -0.0738
   48loPI   C6A  764  17.256  10.543   7.742  0.0026 -0.1487 -0.1456
   48loPI   C1B  765  17.504  10.754  10.175 -0.0551 -0.0738 -0.1151
   48loPI   C2B  766  17.674  10.716   9.799 -0.2896  0.3045 -0.3314
   48loPI   C3B  767  17.652  10.841   9.452 -0.2324  0.2033  0.0478
   48loPI   C4B  768  17.679  10.827   8.999 -0.2268  0.1104  0.0440
   49loPI    C1  769  11.342   3.010  10.492  0.0719 -0.0054 -0.0097
   49loPI    C2  770  11.023   2.831  10.653  0.0826 -0.1331 -0.1278
   49loPI    C3  771  11.236   3.092  10.868 -0.0472 -0.1163 -0.0182
   49loPI   PO4  772  11.284   2.953  10.192 -0.2314  0.1845 -0.1204
   49loPI   GL1  773  11.272   2.700   9.825  0.0837 -0.2422  0.2703
   49loPI   GL2  774  11.539   2.479   9.658  0.0740  0.1246  0.2461
   49loPI   C1A  775  11.319   2.969   9.478 -0.2300 -0.1563 -0.0459
   49loPI   C2A  776  11.443   2.859   8.960 -0.1336  0.1139 -0.0785
   49loPI   C3A  777  11.629   2.772   8.523 -0.0722  0.0973  0.0529
   49loPI   C4A  778  11.825   2.732   8.064 -0.1066 -0.1908 -0.0886
   49loPI   C5A  779  11.944   2.595   7.649  0.2043  0.2279 -0.0386
   49loPI   C6A  780  11.768   2.827   7.193  0.0129 -0.0933  0.0842
   49loPI   C1B  781  11.622   2.455   9.254 -0.0585 -0.0277  0.1473
   49loPI   C2B  782  11.567   2.349   8.930 -0.0111 -0.1029  0.1977
   49loPI   C3B  783  11.576   2.264   8.471  0.1851 -0.1344  0.1301
   49loPI   C4B  784  11.223   2.153   8.336 -0.1438 -0.2113 -0.2783
   50loPI    C1  785   2.056   6.720  10.810 -0.0795  0.1774 -0.0926
   50loPI    C2  786   1.933   7.081  10.687  0.2147  0.3033 -0.0269
   50loPI    C3  787   2.034   7.023  11.070  0.1726  0.1513 -0.0379
   50loPI   PO4  788   2.222   6.624  10.606  0.0255  0.2649  0.1743
   50loPI   GL1  789   2.325   6.635  10.152 -0.2732  0.0282  0.1450
   50loPI   GL2  790   2.391   6.850  10.000 -0.0427 -0.0134  0.0379
   50loPI   C1A  791   1.912   6.567   9.927  0.2605  0.2512 -0.5318
   50loPI   C2A  792   1.861   6.498   9.543 -0.0640  0.1503 -0.1618
   50loPI   C3A  793   1.734   6.444   9.113  0.0347 -0.1245 -0.1049
   50loPI   C4A  794   1.609   6.345   8.735  0.0912 -0.1029 -0.3117
   50loPI   C5A  795   1.580   6.440   8.396 -0.2310  0.1689 -0.0921
   50loPI   C6A  796   1.686   6.312   7.960 -0.0325  0.1084 -0.1347
   50loPI   C1B  797   2.389   6.673   9.589  0.1258  0.1278 -0.1465
   50loPI   C2B  798   2.361   6.477   9.174  0.1555 -0.1988 -0.0032
   50loPI   C3B  799   2.144   6.409   8.814  0.0778  0.1042 -0.1240
   50loPI   C4B  800   2.079   6.371   8.366  0.2767  0.0359 -0.1552
   51loPI    C1  801  11.369   7.157  10.285 -0.3098  0.0442 -0.0508
   51loPI    C2  802  11.265   6.811  10.112 -0.0320 -0.0039 -0.1273
   51loPI    C3  803  11.420   6.811  10.480 -0.0247  0.0388 -0.1303
   51loPI   PO4  804  11.534   7.270  10.069  0.1309  0.2446 -0.2729
   51loPI   GL1  805  11.802   7.143   9.803 -0.0742  0.0973 -0.1280
   51loPI   GL2  806  12.136   7.130   9.889 -0.1380  0.2426 -0.1276
   51loPI   C1A  807  11.712   7.403   9.355 -0.5294  0.0261 -0.0073
   51loPI   C2A  808  11.591   7.323   9.002  0.1148 -0.0726 -0.1850
   51loPI   C3A  809  11.470   7.307   8.631 -0.0366  0.0844 -0.0349
   51loPI   C4A  810  11.560   7.439   8.139 -0.2937  0.1845  0.2026
   51loPI   C5A  811  11.818   7.589   7.785 -0.0314  0.3990 -0.1285
   51loPI   C6A  812  11.570   7.808   7.369 -0.0591 -0.5243  0.0865
   51loPI   C1B  813  12.211   7.297   9.539 -0.4145  0.0582  0.1110
   51loPI   C2B  814  12.464   7.350   9.217  0.1179 -0.2060  0.1637
   51loPI   C3B  815  12.855   7.291   8.923 -0.1993  0.3037 -0.2062
   51loPI   C4B  816  12.860   7.182   8.603 -0.1650 -0.1167  0.1519
   52loPI    C1  817   3.459   5.253  10.543  0.0688  0.1107 -0.2494
   52loPI    C2  818   3.728   5.260  10.840  0.0589 -0.0066 -0.2371
   52loPI    C3  819   3.533   5.594  10.738 -0.0376  0.0050 -0.0201
   52loPI   PO4  820   3.579   4.982  10.454  0.0948 -0.2040 -0.0130
   52loPI   GL1  821   3.620   5.097   9.982 -0.2139 -0.0330  0.0909
   52loPI   GL2  822   3.498   5.344   9.964  0.1098 -0.1226  0.2885
   52loPI   C1A  823   3.519   4.933   9.646  0.0250 -0.1973  0.2016
   52loPI   C2A  824   3.435   5.146   9.214  0.1898  0.1084 -0.0187
   52loPI   C3A  825   3.423   5.155   8.771  0.0616  0.1275 -0.1259
   52loPI   C4A  826   3.368   5.159   8.278  0.2564  0.1921 -0.0615
   52loPI   C5A  827   3.305   5.254   7.929  0.1441 -0.0874  0.0188
   52loPI   C6A  828   2.982   5.356   7.652 -0.0369 -0.2945 -0.2382
   52loPI   C1B  829   3.613   5.471   9.575  0.2132 -0.2703 -0.2782
   52loPI   C2B  830   3.843   5.603   9.217 -0.0689  0.2056 -0.0233
   52loPI   C3B  831   3.779   5.596   8.743  0.0344  0.0635  0.2550
   52loPI   C4B  832   3.573   5.683   8.339  0.0160 -0.0852 -0.2466
   53loPI    C1  833  13.777   6.235  10.514 -0.0912 -0.1461 -0.0560
   53loPI    C2  834  13.878   5.859  10.605  0.0911 -0.0987 -0.0577
   53loPI    C3  835  13.694   6.088  10.877 -0.1306 -0.2270 -0.0976
   53loPI   PO4  836  13.961   6.357  10.449  0.1186  0.0228  0.1018
   53loPI   GL1  837  14.021   6.535  10.030  0.1274  0.1586 -0.1399
   53loPI   GL2  838  13.844   6.842   9.890  0.2214 -0.3298  0.0525
   53loPI   C1A  839  13.755   6.347   9.718  0.4248 -0.3949  0.1041
   53loPI   C2A  840  13.665   6.273   9.373 -0.0247  0.0039  0.1385
   53loPI   C3A  841  13.622   6.031   8.995 -0.0082 -0.1254  0.0640
   53loPI   C4A  842  13.620   5.879   8.522 -0.1518 -0.3128 -0.3393
   53loPI   C5A  843  13.522   5.963   8.130 -0.1552 -0.3429  0.1302
   53loPI   C6A  844  13.597   6.240   7.750  0.0671 -0.0199  0.0419
   53loPI   C1B  845  13.669   6.843   9.393  0.4512 -0.0584  0.0947
   53loPI   C2B  846  13.621   6.803   8.954  0.0971  0.0968 -0.4610
   53loPI   C3B  847  13.592   6.410   8.678  0.0583 -0.1619 -0.0664
   53loPI   C4B  848  13.523   6.503   8.208  0.1153 -0.3083 -0.1898
   54loPI    C1  849  12.091  15.677  10.636 -0.2261  0.0298  0.0658
   54loPI    C2  850  12.307  15.979  10.784 -0.1864  0.0455 -0.0233
   54loPI    C3  851  12.177  15.689  11.026 -0.0183  0.0070  0.0223
   54loPI   PO4  852  11.993  15.842  10.348  0.2236 -0.0890 -0.1728
   54loPI   GL1  853  12.177  16.113   9.971  0.0180  0.0669  0.4163
   54loPI   GL2  854  12.306  15.952   9.861 -0.2275  0.0368  0.1260
   54loPI   C1A  855  12.162  16.347   9.559 -0.1280 -0.0813 -0.4888
   54loPI   C2A  856  12.231  16.495   9.125  0.0308  0.0588  0.5724
   54loPI   C3A  857  12.241  16.415   8.661  0.1583 -0.1063 -0.2461
   54loPI   C4A  858  12.238  16.272   8.370 -0.0372 -0.2136  0.1561
   54loPI   C5A  859  12.369  16.126   7.943  0.2206  0.0029 -0.1250
   54loPI   C6A  860  12.411  16.181   7.606 -0.1299 -0.1334 -0.2017
   54loPI   C1B  861  12.249  15.820   9.410 -0.0306 -0.1444  0.2958
   54loPI   C2B  862  12.363  15.941   8.913  0.0610 -0.0014 -0.1046
   54loPI   C3B  863  12.582  15.906   8.488  0.1137 -0.0492  0.1588
   54loPI   C4B  864  12.783  15.816   8.008 -0.1838 -0.2015  0.0704
   55loPI    C1  865   5.196  16.559  10.672  0.0848  0.2359 -0.3080
   55loPI    C2  866   4.918  16.819  10.796  0.0975  0.1400 -0.0745
   55loPI    C3  867   5.263  16.784  10.996  0.1770  0.0838 -0.2204
   55loPI   PO4  868   5.338  16.647  10.443 -0.3279 -0.0046 -0.0090
   55loPI   GL1  869   5.670  16.946  10.217  0.3130  0.0672 -0.0528
   55loPI   GL2  870   5.890  17.278  10.321 -0.0783 -0.0119 -0.0001
   55loPI   C1A  871   5.699  16.713   9.959 -0.0210 -0.0142  0.3233
   55loPI   C2A  872   5.446  16.421   9.622 -0.2619 -0.0689 -0.0562
   55loPI   C3A  873   5.368  16.079   9.611  0.3639  0.0082 -0.4048
   55loPI   C4A  874   5.421  15.836   9.234  0.0855 -0.1313 -0.0946
   55loPI   C5A  875   5.256  16.027   8.779 -0.1341 -0.2594  0.1379
   55loPI   C6A  876   4.893  16.092   8.599  0.0796 -0.1232  0.1654
   55loPI   C1B  877   6.096  17.062   9.877 -0.3171  0.0904 -0.0976
   55loPI   C2B  878   6.241  16.952   9.585  0.1837 -0.1738  0.1367
   55loPI   C3B  879   6.450  17.136   9.212 -0.2360  0.2624  0.1989
   55loPI   C4B  880   6.391  16.849   8.853  0.3075  0.1195 -0.1071
   56loPI    C1  881  16.577  17.032  10.684  0.0133  0.1760 -0.0494
   56loPI    C2  882  16.214  16.910  10.802 -0.0146  0.1952 -0.1150
   56loPI    C3  883  16.541  16.771  10.985 -0.0580  0.2292 -0.0112
   56loPI   PO4  884  16.528  17.149  10.425 -0.1255 -0.1841  0.2603
   56loPI   GL1  885  16.674  17.096  10.046 -0.2974  0.0316  0.5309
   56loPI   GL2  886  16.868  17.284  10.090  0.3869  0.0287  0.1898
   56loPI   C1A  887  16.569  17.011   9.613  0.0031 -0.0900  0.3056
   56loPI   C2A  888  16.557  16.918   9.132 -0.2497  0.1014  0.0976
   56loPI   C3A  889  16.417  17.014   8.735  0.0828 -0.0720 -0.0356
   56loPI   C4A  890  16.132  16.973   8.497 -0.1521  0.1463 -0.0569
   56loPI   C5A  891  15.853  17.024   8.148  0.3055 -0.0259 -0.4366
   56loPI   C6A  892  15.529  16.812   7.943  0.1358  0.1639  0.1517
   56loPI   C1B  893  17.009  17.331   9.674 -0.0719  0.2995 -0.1356
   56loPI   C2B  894  16.972  17.127   9.268 -0.0063  0.1086 -0.3111
   56loPI   C3B  895  16.937  17.090   8.849 -0.1373 -0.1021 -0.1930
   56loPI   C4B  896  16.885  17.181   8.430 -0.1396 -0.0993  0.1466
   57loPI    C1  897  10.268   1.814  10.460 -0.0824  0.0808 -0.2741
   57loPI    C2  898   9.870   1.784  10.435 -0.0976 -0.1701  0.1774
   57loPI    C3  899  10.037   1.985  10.738  0.1220 -0.1093  0.0181
   57loPI   PO4  900  10.321   1.756  10.226  0.1456  0.0461  0.0744
   57loPI   GL1  901  10.275   1.504   9.918  0.0195 -0.0825  0.0537
   57loPI   GL2  902  10.017   1.688   9.724 -0.1531  0.1803  0.2672
   57loPI   C1A  903  10.453   1.559   9.509 -0.2024 -0.1641  0.2343
   57loPI   C2A  904  10.458   1.480   9.055  0.2957 -0.0180  0.0502
   57loPI   C3A  905  10.485   1.457   8.551 -0.0195  0.0430 -0.1200
   57loPI   C4A  906  10.664   1.427   8.106 -0.1700  0.1509  0.2267
   57loPI   C5A  907  10.845   1.566   7.736  0.2274 -0.0311 -0.0763
   57loPI   C6A  908  10.640   1.336   7.287 -0.1265 -0.1677 -0.0277
   57loPI   C1B  909  10.105   1.796   9.241 -0.1528  0.2054 -0.1079
   57loPI   C2B  910  10.131   1.750   8.830  0.0560  0.0042 -0.1472
   57loPI   C3B  911  10.217   1.855   8.401  0.1150 -0.0018 -0.1405
   57loPI   C4B  912  10.349   1.734   7.939 -0.1596  0.0523 -0.0666
   58loPI    C1  913   6.416   4.215  10.556  0.1294 -0.1505  0.0503
   58loPI    C2  914   6.502   4.605  10.529  0.2184 -0.1875 -0.2405
   58loPI    C3  915   6.652   4.387  10.830 -0.1927  0.0921  0.1821
   58loPI   PO4  916   6.477   4.133  10.317  0.1164 -0.0276  0.2553
   58loPI   GL1  917   6.429   4.115   9.870  0.0081 -0.0575  0.2286
   58loPI   GL2  918   6.663   3.908   9.693  0.2384  0.3179  0.0395
   58loPI   C1A  919   6.394   4.354   9.549  0.2505  0.0314  0.1709
   58loPI   C2A  920   6.265   4.296   9.122  0.0839  0.0660  0.2393
   58loPI   C3A  921   6.242   4.258   8.625  0.1157  0.0989 -0.3719
   58loPI   C4A  922   6.285   4.180   8.143  0.1448 -0.0388 -0.0205
   58loPI   C5A  923   6.256   4.245   7.736 -0.1857 -0.1566  0.0905
   58loPI   C6A  924   6.490   4.439   7.453 -0.3680 -0.1097  0.1898
   58loPI   C1B  925   6.454   3.884   9.294 -0.3781 -0.1584  0.3224
   58loPI   C2B  926   6.534   3.920   8.829  0.0813  0.0578  0.3988
   58loPI   C3B  927   6.649   3.942   8.413  0.1277 -0.1365 -0.0647
   58loPI   C4B  928   6.715   4.117   7.949  0.5331  0.0063 -0.0363
   59loPI    C1  929  12.471   4.259  10.965  0.0086 -0.1819  0.2089
   59loPI    C2  930  12.741   4.497  11.139 -0.0234 -0.0505  0.0801
   59loPI    C3  931  12.634   4.155  11.315  0.0889 -0.0131  0.2227
   59loPI   PO4  932  12.598   4.232  10.652  0.2629  0.3231 -0.3284
   59loPI   GL1  933  12.345   4.199  10.231  0.2533  0.1872  0.3114
   59loPI   GL2  934  12.006   4.124  10.117 -0.3181 -0.1206 -0.0213
   59loPI   C1A  935  12.648   4.270   9.756  0.0153  0.1741 -0.0231
   59loPI   C2A  936  12.673   4.294   9.385  0.1549 -0.0412  0.3154
   59loPI   C3A  937  12.800   4.363   8.958  0.2810  0.2216 -0.1781
   59loPI   C4A  938  12.980   4.306   8.595 -0.2512  0.1091 -0.2869
   59loPI   C5A  939  13.119   4.582   8.337 -0.0451  0.1018  0.2621
   59loPI   C6A  940  12.937   4.919   8.188  0.2022  0.0144  0.2055
   59loPI   C1B  941  12.055   4.134   9.730  0.1449 -0.0126  0.3003
   59loPI   C2B  942  12.180   4.268   9.380 -0.1553 -0.3038 -0.1356
   59loPI   C3B  943  12.319   4.386   8.978  0.0032 -0.2639  0.0614
   59loPI   C4B  944  12.453   4.295   8.579 -0.1320  0.1659  0.0330
   60loPI    C1  945  15.382   5.046  10.759 -0.0812  0.0825 -0.2391
   60loPI    C2  946  15.326   5.059  11.155  0.1356  0.1837 -0.2099
   60loPI    C3  947  15.696   5.030  11.006  0.0479  0.0319 -0.4041
   60loPI   PO4  948  15.293   5.257  10.670  0.0635 -0.2156 -0.0248
   60loPI   GL1  949  15.187   5.536  10.344  0.5951 -0.1798  0.0380
   60loPI   GL2  950  15.493   5.670  10.289 -0.0465 -0.0967  0.1123
   60loPI   C1A  951  15.150   5.828   9.948  0.1502 -0.2944 -0.1437
   60loPI   C2A  952  15.312   5.962   9.620 -0.0894 -0.0568 -0.0618
   60loPI   C3A  953  15.260   5.942   9.247  0.1854 -0.1851  0.0000
   60loPI   C4A  954  15.381   5.902   8.774  0.0800  0.1085  0.0593
   60loPI   C5A  955  15.162   6.125   8.532 -0.1400 -0.0715 -0.0793
   60loPI   C6A  956  14.927   6.237   8.130  0.3205  0.1422  0.0448
   60loPI   C1B  957  15.419   5.389   9.846 -0.2124 -0.1020  0.1127
   60loPI   C2B  958  15.576   5.343   9.352  0.1487  0.1029  0.2981
   60loPI   C3B  959  15.660   5.429   9.003 -0.0645 -0.2032 -0.0574
   60loPI   C4B  960  15.887   5.325   8.630 -0.0598  0.0320  0.1372
   61loPI    C1  961   2.170  11.801  10.507  0.0698  0.0168  0.1013
   61loPI    C2  962   1.898  11.868  10.792  0.0668  0.2805  0.0390
   61loPI    C3  963   2.281  11.810  10.891  0.0289  0.1494  0.1107
   61loPI   PO4  964   2.077  11.993  10.332  0.0737  0.1836  0.2683
   61loPI   GL1  965   2.022  12.077   9.972  0.2711 -0.0775  0.2160
   61loPI   GL2  966   1.836  11.901   9.806 -0.2031  0.1218  0.4018
   61loPI   C1A  967   2.179  12.136   9.536  0.1622  0.0700  0.1101
   61loPI   C2A  968   2.098  12.202   9.148 -0.2345  0.0524 -0.0493
   61loPI   C3A  969   2.124  12.396   8.729  0.1940  0.2292  0.1456
   61loPI   C4A  970   2.042  12.508   8.264 -0.1333  0.1161 -0.2015
   61loPI   C5A  971   2.062  12.613   7.864 -0.0213 -0.1778  0.1750
   61loPI   C6A  972   2.419  12.716   7.641 -0.2430  0.0448 -0.1717
   61loPI   C1B  973   1.869  11.732   9.356  0.0014 -0.0285  0.2574
   61loPI   C2B  974   1.895  11.774   8.940  0.2185 -0.1771  0.1686
   61loPI   C3B  975   1.906  11.908   8.575  0.3968  0.1046 -0.1021
   61loPI   C4B  976   1.801  11.842   8.146  0.0162  0.0897 -0.3513
   62loPI    C1  977  13.363  13.651  10.724  0.0645 -0.1610 -0.2091
   62loPI    C2  978  13.296  13.259  10.774  0.1851 -0.1554  0.0075
   62loPI    C3  979  13.371  13.492  11.091 -0.0200  0.0693 -0.1056
   62loPI   PO4  980  13.371  13.686  10.489 -0.2269 -0.0794 -0.0555
   62loPI   GL1  981  13.422  14.007  10.205  0.2283  0.0358 -0.0745
   62loPI   GL2  982  13.160  13.850  10.043  0.3348  0.0598 -0.2548
   62loPI   C1A  983  13.633  13.923   9.835  0.0822  0.1449 -0.3199
   62loPI   C2A  984  13.637  14.092   9.477  0.3382 -0.1198  0.0726
   62loPI   C3A  985  13.677  14.032   9.118  0.1939  0.1771  0.2160
   62loPI   C4A  986  13.455  14.011   8.702 -0.0010 -0.2455  0.0011
   62loPI   C5A  987  13.159  13.689   8.541 -0.0448  0.0755  0.0669
   62loPI   C6A  988  13.152  13.307   8.606  0.1714  0.0813 -0.0626
   62loPI   C1B  989  13.131  13.955   9.652 -0.2400 -0.0894 -0.0835
   62loPI   C2B  990  13.200  13.930   9.176  0.4532  0.1014 -0.1290
   62loPI   C3B  991  12.943  14.077   8.747  0.3412 -0.0136  0.2128
   62loPI   C4B  992  12.625  14.125   8.441 -0.2749 -0.1750 -0.0396
   63loPI    C1  993   6.801   9.330  10.501 -0.2023 -0.2008  0.0159
   63loPI    C2  994   6.784   9.715  10.611  0.0165 -0.1956  0.0358
   63loPI    C3  995   6.892   9.435  10.876  0.3125 -0.2123 -0.0974
   63loPI   PO4  996   6.937   9.337  10.280 -0.1193 -0.0153  0.1667
   63loPI   GL1  997   7.234   9.377   9.880  0.2109 -0.2078  0.3860
   63loPI   GL2  998   7.450   9.531   9.973 -0.1403  0.2056 -0.3022
   63loPI   C1A  999   7.245   9.321   9.432 -0.0563 -0.1921  0.2488
   63loPI   C2A 1000   7.282   9.347   9.023  0.0241 -0.0811  0.1363
   63loPI   C3A 1001   7.325   9.427   8.582 -0.0793 -0.1656 -0.2563
   63loPI   C4A 1002   7.207   9.575   8.237 -0.0177 -0.3080 -0.0613
   63loPI   C5A 1003   7.057   9.656   7.891 -0.0358 -0.0941  0.2457
   63loPI   C6A 1004   6.946   9.745   7.453  0.3817 -0.3942  0.1471
   63loPI   C1B 1005   7.786   9.598   9.613  0.1620 -0.4082 -0.0580
   63loPI   C2B 1006   7.832   9.594   9.133  0.0564 -0.1424  0.0831
   63loPI   C3B 1007   7.767   9.731   8.733 -0.0640  0.1716  0.0333
   63loPI   C4B 1008   7.643   9.747   8.340 -0.0262  0.0569 -0.1654
   64loPI    C1 1009   9.754  12.518  10.655 -0.2027 -0.0171 -0.0675
   64loPI    C2 1010   9.670  12.284  10.969 -0.2270  0.1038  0.0172
   64loPI    C3 1011   9.949  12.569  11.001  0.1215 -0.2009 -0.2191
   64loPI   PO4 1012   9.690  12.385  10.449 -0.0011 -0.3297  0.1489
   64loPI   GL1 1013   9.682  12.555  10.038 -0.1410  0.0583 -0.0298
   64loPI   GL2 1014   9.409  12.412  10.000 -0.1772  0.0725  0.2661
   64loPI   C1A 1015   9.752  12.673   9.681  0.0143 -0.0154 -0.1589
   64loPI   C2A 1016   9.774  12.702   9.232 -0.0735 -0.0424 -0.1395
   64loPI   C3A 1017   9.908  12.771   8.857 -0.2390 -0.0637  0.0061
   64loPI   C4A 1018  10.082  13.028   8.597 -0.2673 -0.1603 -0.2659
   64loPI   C5A 1019  10.233  13.397   8.378  0.4870  0.0514 -0.2464
   64loPI   C6A 1020  10.486  13.775   8.307 -0.2091 -0.1965 -0.0571
   64loPI   C1B 1021   9.401  12.469   9.469  0.2603 -0.3297 -0.4330
   64loPI   C2B 1022   9.323  12.550   9.067  0.1196  0.2083 -0.1820
   64loPI   C3B 1023   9.366  12.611   8.645  0.1781 -0.1369 -0.2141
   64loPI   C4B 1024   9.291  12.491   8.318  0.2260 -0.3148 -0.0542
   65loPI    C1 1025  14.273  13.179  10.615 -0.1715 -0.1213  0.0790
   65loPI    C2 1026  14.144  12.985  10.940 -0.1514 -0.1970  0.0420
   65loPI    C3 1027  14.514  12.922  10.802 -0.1870 -0.2248 -0.0418
   65loPI   PO4 1028  14.032  13.109  10.461  0.1037 -0.3113  0.0267
   65loPI   GL1 1029  13.759  13.084  10.125  0.3140  0.1731 -0.2404
   65loPI   GL2 1030  13.751  13.422  10.233  0.0073 -0.0110 -0.0898
   65loPI   C1A 1031  13.679  13.053   9.715  0.0200  0.0081  0.1767
   65loPI   C2A 1032  13.606  13.109   9.246  0.2086 -0.2756 -0.3308
   65loPI   C3A 1033  13.569  13.025   8.867  0.0867  0.0450  0.1288
   65loPI   C4A 1034  13.573  12.983   8.411  0.0096  0.1494  0.1316
   65loPI   C5A 1035  13.719  12.727   8.047  0.1550  0.0790  0.0165
   65loPI   C6A 1036  13.586  12.724   7.654 -0.1368 -0.0555 -0.1965
   65loPI   C1B 1037  13.472  13.447   9.886  0.0540 -0.0433 -0.0190
   65loPI   C2B 1038  13.480  13.588   9.418  0.2384 -0.0260 -0.0040
   65loPI   C3B 1039  13.485  13.556   8.947  0.2879 -0.3095 -0.1006
   65loPI   C4B 1040  13.602  13.461   8.442 -0.0939 -0.1557  0.2217
   66loPI    C1 1041  16.749  12.410  11.086  0.0639 -0.0679  0.1196
   66loPI    C2 1042  16.565  12.386  11.441  0.2336 -0.1997  0.2000
   66loPI    C3 1043  16.678  12.742  11.298  0.0278 -0.1307  0.2063
   66loPI   PO4 1044  16.600  12.290  10.847 -0.0478  0.0640 -0.2747
   66loPI   GL1 1045  16.363  12.438  10.483  0.0645 -0.1832  0.1420
   66loPI   GL2 1046  16.057  12.460  10.367 -0.0209  0.0019 -0.3394
   66loPI   C1A 1047  16.531  12.678  10.223 -0.1293 -0.1190  0.2336
   66loPI   C2A 1048  16.546  12.849   9.866  0.0186 -0.2845 -0.3598
   66loPI   C3A 1049  16.485  13.104   9.619 -0.1134 -0.1307 -0.3189
   66loPI   C4A 1050  16.282  13.104   9.193 -0.1398 -0.1767 -0.2537
   66loPI   C5A 1051  16.320  13.115   8.816  0.2036 -0.2177 -0.0693
   66loPI   C6A 1052  16.439  13.012   8.319 -0.4063  0.0676  0.0694
   66loPI   C1B 1053  16.224  12.442   9.916 -0.0308  0.1456  0.0632
   66loPI   C2B 1054  16.375  12.232   9.516  0.0128  0.1837  0.1080
   66loPI   C3B 1055  16.362  12.232   9.158  0.3036 -0.1086  0.1922
   66loPI   C4B 1056  16.336  12.233   8.728 -0.0019 -0.1088 -0.0034
   67loPI    C1 1057   8.513   3.905  10.175 -0.0458 -0.2417 -0.2005
   67loPI    C2 1058   8.643   3.658  10.462 -0.4728 -0.5080 -0.2277
   67loPI    C3 1059   8.509   4.023  10.557  0.1104 -0.2957 -0.1816
   67loPI   PO4 1060   8.423   3.705  10.048  0.0425 -0.0386 -0.0478
   67loPI   GL1 1061   8.363   3.718   9.599  0.1323 -0.0843  0.2839
   67loPI   GL2 1062   8.724   3.807   9.589 -0.2306  0.2992 -0.0601
   67loPI   C1A 1063   8.419   3.372   9.366 -0.2171  0.1299 -0.0523
   67loPI   C2A 1064   8.260   3.006   9.267 -0.2453 -0.0536 -0.0139
   67loPI   C3A 1065   8.092   2.826   8.983  0.0002 -0.2392  0.3551
   67loPI   C4A 1066   8.062   2.764   8.601  0.4710  0.1671  0.0340
   67loPI   C5A 1067   7.931   2.519   8.228  0.3502 -0.3836  0.1036
   67loPI   C6A 1068   7.769   2.643   7.854 -0.2323 -0.1920 -0.3178
   67loPI   C1B 1069   8.816   3.779   9.115  0.1972  0.0295 -0.0696
   67loPI   C2B 1070   8.796   3.519   8.932 -0.2857  0.0061 -0.1567
   67loPI   C3B 1071   8.882   3.257   8.615 -0.0234 -0.0115 -0.2417
   67loPI   C4B 1072   8.947   3.239   8.091  0.2373  0.1046 -0.1625
   68loPI    C1 1073   2.813  16.967  10.884 -0.2565  0.1481 -0.2305
   68loPI    C2 1074   2.821  17.224  11.190  0.0828  0.0665 -0.1659
   68loPI    C3 1075   2.645  16.867  11.233  0.0075  0.1097 -0.1121
   68loPI   PO4 1076   2.754  17.055  10.576 -0.1168 -0.2558  0.0185
   68loPI   GL1 1077   2.890  16.854  10.172 -0.1369  0.0092  0.1436
   68loPI   GL2 1078   2.795  16.546  10.012  0.0934  0.1304  0.0504
   68loPI   C1A 1079   3.097  17.041   9.859 -0.0258 -0.0121 -0.1997
   68loPI   C2A 1080   3.082  17.130   9.435  0.0865 -0.0709 -0.1172
   68loPI   C3A 1081   3.171  17.217   9.059 -0.1457 -0.1318  0.2106
   68loPI   C4A 1082   3.538  17.164   8.856  0.1108  0.0879 -0.2500
   68loPI   C5A 1083   3.749  17.305   8.547  0.0929 -0.2511 -0.1614
   68loPI   C6A 1084   3.540  17.336   8.187  0.0663 -0.3115  0.1415
   68loPI   C1B 1085   2.831  16.716   9.618  0.0813 -0.0005  0.2975
   68loPI   C2B 1086   2.934  16.713   9.166 -0.1579  0.0634 -0.0470
   68loPI   C3B 1087   3.230  16.718   8.899 -0.1768 -0.0196  0.3151
   68loPI   C4B 1088   3.274  16.852   8.494  0.1546 -0.1951 -0.0446
   69loPI    C1 1089  10.447  15.413  10.774  0.0546  0.0169  0.0847
   69loPI    C2 1090  10.518  15.032  10.874 -0.0942 -0.0191  0.0542
   69loPI    C3 1091  10.218  15.232  11.048 -0.2095 -0.0110 -0.1510
   69loPI   PO4 1092  10.448  15.445  10.504 -0.1094 -0.2147  0.0676
   69loPI   GL1 1093  10.176  15.641  10.140 -0.1705 -0.1788  0.0989
   69loPI   GL2 1094   9.984  15.495  10.291 -0.1840 -0.0096 -0.1872
   69loPI   C1A 1095  10.345  15.542   9.855  0.0783 -0.1294  0.2421
   69loPI   C2A 1096  10.382  15.624   9.403  0.1096  0.1207 -0.2135
   69loPI   C3A 1097  10.583  15.734   8.966 -0.1866 -0.2207  0.0369
   69loPI   C4A 1098  10.807  15.755   8.694 -0.0788  0.1657  0.0921
   69loPI   C5A 1099  10.889  15.664   8.347 -0.0171 -0.0277 -0.0825
   69loPI   C6A 1100  10.855  15.228   8.272  0.3040  0.0095  0.0310
   69loPI   C1B 1101   9.834  15.361   9.860 -0.3795  0.2318 -0.0501
   69loPI   C2B 1102   9.881  15.384   9.489  0.2435 -0.0638  0.0138
   69loPI   C3B 1103   9.966  15.065   9.254  0.2958 -0.1777 -0.4294
   69loPI   C4B 1104   9.879  14.875   8.921  0.0282 -0.3590  0.3294
   70loPI    C1 1105  14.531  16.435  10.727 -0.1712  0.2860  0.1507
   70loPI    C2 1106  14.531  16.511  11.120 -0.0899  0.0585  0.1963
   70loPI    C3 1107  14.596  16.139  10.988  0.1976  0.1890 -0.0437
   70loPI   PO4 1108  14.523  16.703  10.603 -0.1098 -0.0171 -0.1076
   70loPI   GL1 1109  14.595  16.831  10.155 -0.0705 -0.1709 -0.1707
   70loPI   GL2 1110  14.379  17.082  10.058 -0.3162 -0.0092 -0.2217
   70loPI   C1A 1111  14.598  16.495   9.758  0.0053 -0.3562  0.2159
   70loPI   C2A 1112  14.568  16.321   9.300  0.1499  0.1398 -0.2073
   70loPI   C3A 1113  14.562  16.157   8.846  0.0203 -0.0318  0.2754
   70loPI   C4A 1114  14.581  16.238   8.517 -0.0069 -0.0203 -0.0173
   70loPI   C5A 1115  14.287  16.329   8.147  0.2116  0.0959  0.3127
   70loPI   C6A 1116  13.911  16.488   8.046  0.2905 -0.3503 -0.1367
   70loPI   C1B 1117  14.644  17.010   9.686 -0.1653  0.0142 -0.0807
   70loPI   C2B 1118  14.660  16.844   9.255  0.1238 -0.0674  0.2479
   70loPI   C3B 1119  14.709  16.733   8.768 -0.1371 -0.1385  0.1876
   70loPI   C4B 1120  14.642  16.711   8.384  0.2830  0.0661  0.2025
   71loPI    C1 1121  14.430   0.852  10.911 -0.0728 -0.2309 -0.1077
   71loPI    C2 1122  14.307   0.472  10.933 -0.4218 -0.1170 -0.0282
   71loPI    C3 1123  14.464   0.651  11.255  0.0805 -0.2997 -0.1622
   71loPI   PO4 1124  14.245   1.014  10.701  0.0510  0.0289 -0.1703
   71loPI   GL1 1125  14.202   1.060  10.269  0.1641 -0.0082  0.4011
   71loPI   GL2 1126  13.780   0.970  10.092 -0.2995 -0.0375 -0.0688
   71loPI   C1A 1127  14.343   0.800   9.933 -0.1560  0.3380  0.1344
   71loPI   C2A 1128  14.440   0.615   9.467 -0.4658  0.1690 -0.0882
   71loPI   C3A 1129  14.486   0.582   9.045 -0.0422 -0.0479  0.0968
   71loPI   C4A 1130  14.480   0.547   8.559 -0.1624 -0.0092 -0.0908
   71loPI   C5A 1131  14.649   0.561   8.134  0.3711 -0.1417  0.2458
   71loPI   C6A 1132  14.829   0.735   7.770 -0.2490 -0.0609  0.3422
   71loPI   C1B 1133  14.018   0.988   9.602  0.2437 -0.0735 -0.0230
   71loPI   C2B 1134  14.054   0.946   9.121  0.0232  0.0085 -0.0521
   71loPI   C3B 1135  14.134   0.855   8.733  0.0147  0.5176 -0.2921
   71loPI   C4B 1136  14.125   0.868   8.257  0.3094  0.0777 -0.0684
   72loPI    C1 1137   9.955  18.096  10.439 -0.0787  0.0757  0.0271
   72loPI    C2 1138  10.334  18.212  10.381 -0.1004  0.1058 -0.0554
   72loPI    C3 1139  10.233  18.018  10.716  0.0345 -0.1047 -0.1347
   72loPI   PO4 1140   9.747  18.239  10.274 -0.0522 -0.1173 -0.2564
   72loPI   GL1 1141   9.443  18.113  10.081  0.0435 -0.1483  0.0180
   72loPI   GL2 1142   9.194  18.056  10.161 -0.2169  0.2066  0.1698
   72loPI   C1A 1143   9.713  18.328   9.679 -0.0628  0.2816 -0.2504
   72loPI   C2A 1144   9.741  18.320   9.173  0.2861  0.1825 -0.0905
   72loPI   C3A 1145   9.816  18.242   8.737 -0.2108  0.4224 -0.0394
   72loPI   C4A 1146   9.847  18.399   8.331  0.1937  0.3138 -0.1985
   72loPI   C5A 1147   9.701  18.550   7.961 -0.1095 -0.4751 -0.1199
   72loPI   C6A 1148   9.514  18.696   7.588  0.2148 -0.1383 -0.0280
   72loPI   C1B 1149   9.219  17.947   9.698 -0.0306  0.1277  0.1785
   72loPI   C2B 1150   9.095  17.897   9.240 -0.1671 -0.0367  0.0555
   72loPI   C3B 1151   8.978  17.852   8.854 -0.2162  0.2403  0.1515
   72loPI   C4B 1152   9.046  17.783   8.312  0.0314 -0.1126 -0.0091
   73loPI    C1 1153  17.235  14.393  10.825  0.1962 -0.1461  0.0264
   73loPI    C2 1154  17.633  14.352  10.846  0.1759 -0.2415  0.2580
   73loPI    C3 1155  17.411  14.319  11.177 -0.0483 -0.4364  0.0918
   73loPI   PO4 1156  17.169  14.674  10.635 -0.2392 -0.1335 -0.0963
   73loPI   GL1 1157  17.077  14.696  10.242  0.1493 -0.2747  0.0086
   73loPI   GL2 1158  17.358  14.643  10.095  0.1068  0.3075  0.1084
   73loPI   C1A 1159  17.073  15.088   9.907 -0.0594  0.0263  0.0194
   73loPI   C2A 1160  16.908  15.137   9.527 -0.1994 -0.1768  0.0787
   73loPI   C3A 1161  16.713  15.134   9.112  0.3410  0.0330  0.0813
   73loPI   C4A 1162  16.741  15.185   8.593  0.3351 -0.2928 -0.1567
   73loPI   C5A 1163  16.465  15.280   8.309  0.0915 -0.1644 -0.0086
   73loPI   C6A 1164  16.160  15.529   8.039  0.1742 -0.1999  0.1760
   73loPI   C1B 1165  17.301  14.659   9.640  0.1126 -0.0966  0.3736
   73loPI   C2B 1166  17.244  14.830   9.202 -0.1377  0.0318 -0.2737
   73loPI   C3B 1167  17.108  14.904   8.766  0.0521 -0.2217 -0.1464
   73loPI   C4B 1168  17.281  15.029   8.417  0.1017 -0.3731  0.3171
   74loPI    C1 1169   3.321   3.582  10.519 -0.0677  0.1570  0.1523
   74loPI    C2 1170   3.170   3.918  10.364 -0.0537  0.1651  0.1563
   74loPI    C3 1171   3.065   3.803  10.733 -0.0037  0.2023  0.1824
   74loPI   PO4 1172   3.282   3.343  10.390  0.0907 -0.0320 -0.1835
   74loPI   GL1 1173   3.367   3.364   9.970 -0.0408  0.0028 -0.3117
   74loPI   GL2 1174   3.441   3.735   9.969  0.1766 -0.0585 -0.0151
   74loPI   C1A 1175   3.212   3.554   9.557 -0.1082  0.0548 -0.0531
   74loPI   C2A 1176   3.306   3.680   9.131  0.1878 -0.0036 -0.1762
   74loPI   C3A 1177   3.356   3.919   8.729  0.0836  0.2551 -0.0850
   74loPI   C4A 1178   3.263   4.005   8.316 -0.0043 -0.1981 -0.0402
   74loPI   C5A 1179   3.318   4.045   7.854 -0.1596  0.2704  0.0454
   74loPI   C6A 1180   3.421   4.333   7.549 -0.0376 -0.1375  0.1912
   74loPI   C1B 1181   3.639   3.898   9.682  0.2306 -0.1840  0.0033
   74loPI   C2B 1182   3.785   4.116   9.306 -0.0072  0.0177  0.2537
   74loPI   C3B 1183   3.735   4.192   8.998  0.0301 -0.2351  0.0367
   74loPI   C4B 1184   3.622   4.330   8.516  0.0262 -0.3008 -0.1103
   75loPI    C1 1185   9.050  16.519  10.687  0.1435 -0.0731 -0.0541
   75loPI    C2 1186   9.233  16.214  10.871  0.1858 -0.0490 -0.0560
   75loPI    C3 1187   9.250  16.582  11.027  0.0996 -0.0550 -0.0315
   75loPI   PO4 1188   9.173  16.681  10.443 -0.1093  0.1569 -0.0351
   75loPI   GL1 1189   9.207  16.710  10.011 -0.2775  0.0763 -0.1897
   75loPI   GL2 1190   9.410  16.897   9.906  0.1498 -0.1234  0.0011
   75loPI   C1A 1191   9.167  16.561   9.625 -0.0341 -0.1416 -0.1290
   75loPI   C2A 1192   9.189  16.535   9.195 -0.2035 -0.3158 -0.0737
   75loPI   C3A 1193   9.382  16.359   8.768  0.1944 -0.0799 -0.0275
   75loPI   C4A 1194   9.445  16.126   8.314  0.2053 -0.0578 -0.1016
   75loPI   C5A 1195   9.654  16.033   8.015  0.1835  0.0203 -0.0652
   75loPI   C6A 1196   9.765  16.357   7.763  0.0773 -0.0331 -0.0960
   75loPI   C1B 1197   9.495  16.945   9.510  0.3428 -0.2592 -0.2301
   75loPI   C2B 1198   9.516  16.984   9.072  0.0073  0.2606 -0.2806
   75loPI   C3B 1199   9.608  16.832   8.739 -0.0983  0.0087 -0.0856
   75loPI   C4B 1200   9.611  16.636   8.419  0.0184 -0.4296  0.0204
   76loPI    C1 1201  15.745   7.683  10.588  0.0620  0.3813  0.1983
   76loPI    C2 1202  15.942   7.909  10.852  0.3416  0.1180  0.2215
   76loPI    C3 1203  15.869   7.525  10.934  0.0129  0.1544  0.1139
   76loPI   PO4 1204  15.849   7.803  10.344  0.1201 -0.0724 -0.1454
   76loPI   GL1 1205  15.701   7.668   9.952 -0.0008  0.0193  0.1038
   76loPI   GL2 1206  15.662   7.318  10.025  0.1456 -0.2588 -0.4265
   76loPI   C1A 1207  15.691   7.784   9.555  0.0603  0.1840  0.0106
   76loPI   C2A 1208  15.678   7.811   9.129 -0.2274  0.1522 -0.4026
   76loPI   C3A 1209  15.647   7.759   8.747  0.1042 -0.0378 -0.3712
   76loPI   C4A 1210  15.636   7.745   8.303  0.2879 -0.2252  0.2179
   76loPI   C5A 1211  15.932   7.575   8.127 -0.0064  0.0507  0.3412
   76loPI   C6A 1212  15.838   7.241   7.923 -0.2623 -0.0969 -0.1201
   76loPI   C1B 1213  15.799   7.234   9.625  0.0095 -0.0413  0.0817
   76loPI   C2B 1214  15.823   7.200   9.244  0.2901  0.2096 -0.1180
   76loPI   C3B 1215  15.704   7.331   8.849  0.2141  0.0373 -0.3511
   76loPI   C4B 1216  15.665   7.107   8.540 -0.1540  0.0965 -0.1042
   77loPI    C1 1217   8.566   2.892   9.974  0.0127 -0.0343  0.0137
   77loPI    C2 1218   8.581   3.268   9.839  0.0726 -0.0629 -0.0607
   77loPI    C3 1219   8.329   3.171  10.134  0.0867  0.0443 -0.0128
   77loPI   PO4 1220   8.594   2.796   9.835 -0.0070  0.2289  0.0355
   77loPI   GL1 1221   8.797   2.750   9.502 -0.1354  0.1394 -0.1063
   77loPI   GL2 1222   9.030   2.580   9.512 -0.2161  0.1632 -0.2430
   77loPI   C1A 1223   8.468   2.569   9.185 -0.0907 -0.0299  0.0354
   77loPI   C2A 1224   8.336   2.395   8.811 -0.0478  0.2779 -0.0854
   77loPI   C3A 1225   8.426   2.514   8.342 -0.3040 -0.1359 -0.2440
   77loPI   C4A 1226   8.312   2.835   7.960 -0.0507  0.1421 -0.1463
   77loPI   C5A 1227   8.374   3.062   7.700  0.2096  0.1259  0.1019
   77loPI   C6A 1228   8.180   3.232   7.337 -0.2548  0.0883 -0.0111
   77loPI   C1B 1229   8.959   2.494   9.075 -0.2145 -0.3415 -0.0534
   77loPI   C2B 1230   8.864   2.364   8.705  0.1755 -0.2173  0.1848
   77loPI   C3B 1231   8.802   2.195   8.283  0.0076 -0.0917 -0.0051
   77loPI   C4B 1232   8.635   1.824   8.060  0.1561 -0.0835 -0.0494
   78loPI    C1 1233   1.501  11.681  10.468  0.4014  0.0390  0.1712
   78loPI    C2 1234   1.151  11.848  10.563  0.2979 -0.0333 -0.0757
   78loPI    C3 1235   1.329  11.598  10.820  0.0309 -0.2150 -0.0629
   78loPI   PO4 1236   1.578  11.653  10.206  0.1751 -0.0073  0.2626
   78loPI   GL1 1237   1.502  11.399   9.900 -0.2443  0.6532  0.0113
   78loPI   GL2 1238   1.170  11.363   9.750 -0.1845 -0.0438 -0.0966
   78loPI   C1A 1239   1.421  11.735   9.566  0.0471 -0.1658 -0.0414
   78loPI   C2A 1240   1.413  11.873   9.125  0.0797 -0.2402 -0.2090
   78loPI   C3A 1241   1.431  11.820   8.726  0.1164 -0.1551 -0.1699
   78loPI   C4A 1242   1.320  11.923   8.356  0.2523 -0.0361  0.1090
   78loPI   C5A 1243   1.138  11.939   7.956  0.3147  0.0337 -0.0861
   78loPI   C6A 1244   0.762  12.109   8.008  0.3360 -0.1036  0.0654
   78loPI   C1B 1245   1.116  11.233   9.388  0.0472 -0.0696 -0.0079
   78loPI   C2B 1246   1.130  11.056   8.912 -0.1929  0.1438  0.2594
   78loPI   C3B 1247   1.314  10.932   8.549  0.2522 -0.1290  0.2189
   78loPI   C4B 1248   1.418  10.929   8.220  0.1339 -0.0556 -0.0302
   79loPI    C1 1249   9.528  14.906  10.411  0.2987 -0.1021 -0.0112
   79loPI    C2 1250   9.607  15.277  10.537 -0.2247 -0.0046  0.0535
   79loPI    C3 1251   9.393  15.030  10.767 -0.2995 -0.1792 -0.1995
   79loPI   PO4 1252   9.742  14.861  10.251  0.0125  0.1837  0.0646
   79loPI   GL1 1253   9.874  14.836  10.008  0.1530 -0.0840 -0.0028
   79loPI   GL2 1254   9.908  14.482   9.969 -0.2391  0.0953  0.4331
   79loPI   C1A 1255  10.141  14.886   9.703  0.3060 -0.1900  0.0203
   79loPI   C2A 1256  10.400  15.143   9.548  0.3211  0.0927  0.0857
   79loPI   C3A 1257  10.521  15.198   9.059 -0.2443  0.2423  0.1134
   79loPI   C4A 1258  10.549  15.327   8.638 -0.0428 -0.0982 -0.1648
   79loPI   C5A 1259  10.379  15.561   8.369  0.0307 -0.1519 -0.0759
   79loPI   C6A 1260  10.127  15.784   8.099 -0.2543 -0.0510  0.0319
   79loPI   C1B 1261   9.896  14.386   9.536 -0.1136 -0.0292 -0.0263
   79loPI   C2B 1262   9.799  14.433   9.092 -0.1828  0.0026 -0.1927
   79loPI   C3B 1263   9.993  14.466   8.655  0.2442 -0.0557 -0.0312
   79loPI   C4B 1264   9.980  14.446   8.210  0.1775  0.3198  0.2373
   80loPI    C1 1265   5.907   0.916  10.813  0.1290  0.2496 -0.0417
   80loPI    C2 1266   6.301   0.928  10.881  0.1480  0.1104 -0.1222
   80loPI    C3 1267   6.129   0.587  10.764 -0.0723  0.0465  0.3608
   80loPI   PO4 1268   5.853   1.129  10.673 -0.0757 -0.1449  0.0801
   80loPI   GL1 1269   6.104   1.322  10.410 -0.0727 -0.0032  0.4506
   80loPI   GL2 1270   5.956   1.217  10.146  0.3856  0.2965 -0.2513
   80loPI   C1A 1271   6.176   1.650  10.035 -0.2659 -0.0468 -0.2039
   80loPI   C2A 1272   6.439   1.942   9.816  0.1888 -0.1965 -0.1941
   80loPI   C3A 1273   6.419   1.951   9.253  0.2811  0.1124 -0.3502
   80loPI   C4A 1274   6.334   1.901   8.798  0.0862  0.2005  0.1858
   80loPI   C5A 1275   6.321   1.774   8.354  0.2068  0.0652 -0.1999
   80loPI   C6A 1276   6.170   1.763   7.978  0.0978  0.1244  0.0389
   80loPI   C1B 1277   6.322   1.176   9.885 -0.0570  0.0647  0.3091
   80loPI   C2B 1278   6.307   1.251   9.440  0.0889 -0.3139  0.0241
   80loPI   C3B 1279   6.148   1.510   9.196  0.0117  0.0640 -0.2203
   80loPI   C4B 1280   5.760   1.525   8.951  0.0434 -0.1869 -0.0939
   81loPI    C1 1281   3.666   7.590  10.064 -0.2422  0.2171  0.1507
   81loPI    C2 1282   3.866   7.247  10.108 -0.1764  0.2384  0.0216
   81loPI    C3 1283   3.873   7.520  10.400 -0.1302  0.1809  0.0748
   81loPI   PO4 1284   3.696   7.617   9.769 -0.0358 -0.0663  0.2402
   81loPI   GL1 1285   3.748   7.356   9.522 -0.1152  0.1991  0.2057
   81loPI   GL2 1286   3.391   7.282   9.358 -0.1108 -0.3058 -0.1952
   81loPI   C1A 1287   3.764   7.496   9.159 -0.1700 -0.2023  0.3067
   81loPI   C2A 1288   3.738   7.497   8.724 -0.4060  0.2356 -0.0719
   81loPI   C3A 1289   3.931   7.587   8.229 -0.4944 -0.0567  0.0921
   81loPI   C4A 1290   3.784   7.883   7.906 -0.1418 -0.0462  0.0244
   81loPI   C5A 1291   3.577   8.042   7.598  0.0018 -0.3306 -0.3602
   81loPI   C6A 1292   3.725   7.895   7.115  0.2010  0.0349 -0.1085
   81loPI   C1B 1293   3.318   7.330   8.988 -0.4069 -0.2201  0.1091
   81loPI   C2B 1294   3.118   7.345   8.670  0.1613  0.0006 -0.0106
   81loPI   C3B 1295   3.151   7.219   8.222  0.2032  0.2103  0.2543
   81loPI   C4B 1296   2.887   7.436   7.828  0.3566  0.0597  0.4844
   82loPI    C1 1297   4.295   8.260  10.257  0.0023  0.0070 -0.3128
   82loPI    C2 1298   4.219   7.886  10.378  0.3639  0.0430  0.0454
   82loPI    C3 1299   4.112   8.196  10.607  0.2324  0.1539 -0.1631
   82loPI   PO4 1300   4.428   8.137  10.029 -0.0035  0.1436 -0.0988
   82loPI   GL1 1301   4.203   8.061   9.688  0.0290 -0.0629 -0.2543
   82loPI   GL2 1302   4.098   7.788   9.450  0.0950  0.0229 -0.0895
   82loPI   C1A 1303   4.193   8.253   9.283  0.0619 -0.0865 -0.1733
   82loPI   C2A 1304   4.297   8.323   8.849  0.2322 -0.0155 -0.0056
   82loPI   C3A 1305   4.209   8.489   8.431 -0.0598  0.1972  0.0037
   82loPI   C4A 1306   4.312   8.685   8.092  0.1109  0.3377  0.3183
   82loPI   C5A 1307   4.233   9.063   7.796 -0.1506 -0.0016 -0.0156
   82loPI   C6A 1308   4.225   9.470   7.609  0.1108 -0.1869 -0.0699
   82loPI   C1B 1309   4.201   7.812   9.015  0.0948 -0.0522  0.1822
   82loPI   C2B 1310   4.289   7.865   8.602 -0.1905  0.2073  0.1240
   82loPI   C3B 1311   4.436   7.537   8.240 -0.1149 -0.0284  0.2123
   82loPI   C4B 1312   4.255   7.280   7.910 -0.0685 -0.0849  0.0401
   83loPI    C1 1313   7.532   6.397  10.041  0.0027  0.0466 -0.0113
   83loPI    C2 1314   7.335   6.328  10.383 -0.0536 -0.0415 -0.0609
   83loPI    C3 1315   7.604   6.623  10.363  0.1948 -0.2482  0.1578
   83loPI   PO4 1316   7.319   6.292   9.852 -0.0238 -0.2342  0.1503
   83loPI   GL1 1317   7.408   6.240   9.404  0.0055  0.5224 -0.2907
   83loPI   GL2 1318   7.526   6.495   9.291 -0.1681 -0.3272 -0.0118
   83loPI   C1A 1319   7.040   6.087   9.066  0.0266 -0.1447  0.0440
   83loPI   C2A 1320   6.935   6.116   8.678 -0.1097 -0.2880 -0.2236
   83loPI   C3A 1321   6.589   6.098   8.490  0.2201  0.2229  0.3149
   83loPI   C4A 1322   6.388   5.992   8.081  0.1824  0.0329 -0.2223
   83loPI   C5A 1323   6.269   5.970   7.636  0.1066  0.1204 -0.2462
   83loPI   C6A 1324   6.121   6.352   7.399 -0.2543  0.0179 -0.1448
   83loPI   C1B 1325   7.440   6.312   8.862 -0.0024 -0.1626 -0.0548
   83loPI   C2B 1326   7.413   6.432   8.553 -0.0595 -0.0633 -0.0798
   83loPI   C3B 1327   7.365   6.496   8.098  0.1465  0.3891  0.0323
   83loPI   C4B 1328   7.424   6.793   7.843 -0.4497  0.1911  0.2604
   84loPI    C1 1329   3.600   4.438  10.591  0.0844 -0.0333  0.0970
   84loPI    C2 1330   3.406   4.656  10.865  0.0277 -0.2811  0.2577
   84loPI    C3 1331   3.678   4.386  10.980  0.3264 -0.0778  0.0440
   84loPI   PO4 1332   3.436   4.392  10.425  0.0664  0.1037  0.1244
   84loPI   GL1 1333   3.540   4.258  10.085  0.0178  0.1456  0.2270
   84loPI   GL2 1334   3.856   4.226  10.021 -0.2839  0.1263 -0.3342
   84loPI   C1A 1335   3.487   4.425   9.645  0.0724 -0.2529 -0.1095
   84loPI   C2A 1336   3.512   4.538   9.283  0.0723 -0.2656  0.0659
   84loPI   C3A 1337   3.553   4.745   8.908 -0.3281 -0.0788 -0.1689
   84loPI   C4A 1338   3.673   4.810   8.468 -0.0606  0.2759 -0.2227
   84loPI   C5A 1339   3.746   4.917   8.014 -0.0927  0.3595 -0.1100
   84loPI   C6A 1340   3.702   4.812   7.630 -0.2085  0.1191 -0.1033
   84loPI   C1B 1341   3.981   4.472   9.689  0.0068 -0.1140  0.3182
   84loPI   C2B 1342   4.004   4.548   9.216  0.1260 -0.0828  0.0024
   84loPI   C3B 1343   4.049   4.542   8.782  0.0657  0.0638  0.2707
   84loPI   C4B 1344   4.155   4.703   8.375  0.2290  0.2679  0.2547
   85loPI    C1 1345   1.270  15.447  10.789  0.3847 -0.1847 -0.0576
   85loPI    C2 1346   1.091  15.281  11.106  0.1913 -0.2359 -0.1911
   85loPI    C3 1347   1.302  15.618  11.149 -0.1286 -0.0469 -0.0689
   85loPI   PO4 1348   1.069  15.290  10.577  0.1158 -0.0506  0.0875
   85loPI   GL1 1349   1.034  15.437  10.150 -0.2736 -0.0323 -0.0984
   85loPI   GL2 1350   1.267  15.528   9.924 -0.1730 -0.0589  0.0633
   85loPI   C1A 1351   0.914  15.208   9.778  0.0126  0.0359 -0.2123
   85loPI   C2A 1352   0.865  15.169   9.314 -0.0328 -0.0578  0.0812
   85loPI   C3A 1353   0.949  15.099   8.898  0.0482 -0.2223  0.0651
   85loPI   C4A 1354   1.263  15.116   8.577 -0.3017 -0.0190 -0.0955
   85loPI   C5A 1355   1.497  15.241   8.329 -0.0837  0.2450  0.0307
   85loPI   C6A 1356   1.591  15.564   8.095  0.1085  0.1396 -0.0720
   85loPI   C1B 1357   1.081  15.660   9.475  0.2191 -0.2367  0.1886
   85loPI   C2B 1358   0.945  15.623   9.014  0.3953 -0.0350  0.1546
   85loPI   C3B 1359   0.929  15.454   8.572 -0.0975 -0.0516  0.1646
   85loPI   C4B 1360   0.784  15.032   8.453  0.1133 -0.0686  0.0190
   86loPI    C1 1361  12.069   3.369  10.702 -0.1267 -0.0206 -0.0397
   86loPI    C2 1362  11.988   3.497  11.073 -0.0290 -0.2155  0.0501
   86loPI    C3 1363  11.746   3.232  10.895 -0.0658 -0.1362 -0.0192
   86loPI   PO4 1364  12.044   3.506  10.552 -0.0179 -0.1233 -0.0693
   86loPI   GL1 1365  12.184   3.622  10.138  0.2079  0.1851  0.0873
   86loPI   GL2 1366  11.997   3.663   9.879  0.1633 -0.2298 -0.1123
   86loPI   C1A 1367  12.468   3.816   9.761 -0.0372 -0.0754 -0.2213
   86loPI   C2A 1368  12.498   3.782   9.380  0.0126  0.3016 -0.1148
   86loPI   C3A 1369  12.539   3.920   8.933  0.1448 -0.0049  0.0553
   86loPI   C4A 1370  12.695   3.830   8.501  0.1000  0.0408 -0.0520
   86loPI   C5A 1371  12.796   4.106   8.149  0.0625 -0.1191 -0.2378
   86loPI   C6A 1372  13.144   4.179   7.984  0.2335  0.0300 -0.0813
   86loPI   C1B 1373  12.019   3.710   9.407 -0.1338 -0.0662 -0.1916
   86loPI   C2B 1374  12.058   3.833   9.019  0.2175  0.2655  0.2580
   86loPI   C3B 1375  12.119   3.910   8.602 -0.0249 -0.0307  0.2264
   86loPI   C4B 1376  12.257   4.039   8.147 -0.1241  0.0473 -0.2761
   87loPI    C1 1377  10.820   1.636  10.448  0.0180 -0.0838  0.0655
   87loPI    C2 1378  10.528   1.449  10.647 -0.0471  0.1493  0.1927
   87loPI    C3 1379  10.906   1.426  10.777  0.0088 -0.2262 -0.0223
   87loPI   PO4 1380  10.786   1.508  10.218 -0.0797 -0.0886  0.2151
   87loPI   GL1 1381  10.775   1.280   9.848  0.0516  0.0376  0.2518
   87loPI   GL2 1382  10.645   0.922   9.925 -0.2314 -0.1143  0.0849
   87loPI   C1A 1383  10.837   1.156   9.470  0.1367 -0.3021  0.2208
   87loPI   C2A 1384  10.841   1.030   9.068  0.2798  0.1540  0.2590
   87loPI   C3A 1385  10.801   1.105   8.555  0.0841 -0.0770 -0.3336
   87loPI   C4A 1386  10.976   1.008   8.252  0.0605  0.3254  0.1848
   87loPI   C5A 1387  10.971   0.706   7.985 -0.0388 -0.2040 -0.2127
   87loPI   C6A 1388  11.323   0.656   7.810 -0.3586  0.0424  0.1541
   87loPI   C1B 1389  10.721   0.680   9.571  0.2270 -0.5563 -0.0804
   87loPI   C2B 1390  10.927   0.591   9.246  0.0651 -0.0368 -0.3166
   87loPI   C3B 1391  10.885   0.573   8.832 -0.1639  0.1599 -0.3045
   87loPI   C4B 1392  10.782   0.636   8.427  0.2750 -0.0395 -0.0618
   88loPI    C1 1393   5.723  11.271  10.425  0.0673 -0.0204 -0.0628
   88loPI    C2 1394   5.643  11.093  10.773  0.1038  0.0479 -0.0191
   88loPI    C3 1395   5.606  11.489  10.739 -0.0618  0.0229 -0.1404
   88loPI   PO4 1396   5.638  10.991  10.289 -0.0431  0.0134 -0.0095
   88loPI   GL1 1397   5.722  10.932   9.839  0.1142 -0.2011  0.3208
   88loPI   GL2 1398   5.864  11.198   9.904 -0.3963 -0.1412 -0.2341
   88loPI   C1A 1399   5.586  10.712   9.538  0.2532 -0.0183  0.0864
   88loPI   C2A 1400   5.649  10.752   9.156  0.0530  0.0525 -0.0679
   88loPI   C3A 1401   5.610  10.580   8.696 -0.2535 -0.3597  0.0959
   88loPI   C4A 1402   5.669  10.616   8.189 -0.0279 -0.1235 -0.0154
   88loPI   C5A 1403   5.691  10.865   7.782  0.2286  0.1790 -0.0768
   88loPI   C6A 1404   5.362  10.949   7.484 -0.2118  0.0630  0.1270
   88loPI   C1B 1405   5.829  11.148   9.422  0.0387  0.1517  0.1090
   88loPI   C2B 1406   5.762  11.235   8.995  0.0615  0.0337 -0.1367
   88loPI   C3B 1407   5.693  11.095   8.644  0.0922 -0.0457 -0.2843
   88loPI   C4B 1408   6.007  10.942   8.349  0.0939  0.4751  0.2452
   89loPI    C1 1409  11.274   8.690  10.462 -0.0957 -0.3001  0.2918
   89loPI    C2 1410  11.639   8.592  10.331 -0.0459  0.0452  0.1623
   89loPI    C3 1411  11.599   8.823  10.655 -0.1452  0.1531  0.0738
   89loPI   PO4 1412  11.187   8.751  10.170  0.1012  0.1589 -0.0897
   89loPI   GL1 1413  11.065   8.688   9.702  0.0214 -0.0649  0.2391
   89loPI   GL2 1414  10.758   8.794   9.739  0.2342  0.1052  0.2247
   89loPI   C1A 1415  11.067   8.770   9.226 -0.0077  0.0469  0.0633
   89loPI   C2A 1416  11.038   8.723   8.808 -0.1709 -0.1205 -0.0390
   89loPI   C3A 1417  11.148   8.731   8.433  0.1981  0.1922  0.1197
   89loPI   C4A 1418  11.312   9.030   8.129 -0.1129  0.0076 -0.0692
   89loPI   C5A 1419  11.838   9.148   8.040 -0.0926  0.1187  0.3101
   89loPI   C6A 1420  12.242   9.145   7.986  0.0279  0.5251  0.0939
   89loPI   C1B 1421  10.493   8.667   9.310 -0.2361  0.1317  0.0285
   89loPI   C2B 1422  10.601   8.528   8.877 -0.0788 -0.0030  0.0599
   89loPI   C3B 1423  10.707   8.432   8.471 -0.1457 -0.1350 -0.0317
   89loPI   C4B 1424  10.585   8.342   8.102 -0.1481  0.0737 -0.0870
   90loPI    C1 1425   1.772   5.867  10.824 -0.1600  0.1363  0.3516
   90loPI    C2 1426   2.027   6.173  10.789 -0.1131  0.0661  0.0458
   90loPI    C3 1427   2.094   5.886  11.060  0.2238 -0.0354 -0.1391
   90loPI   PO4 1428   1.699   5.738  10.549  0.0808 -0.0110  0.0636
   90loPI   GL1 1429   1.601   5.951  10.236 -0.1319  0.0323 -0.1212
   90loPI   GL2 1430   1.277   5.851  10.194 -0.0330  0.0347 -0.0295
   90loPI   C1A 1431   1.800   5.962   9.896  0.0689  0.1026  0.1065
   90loPI   C2A 1432   1.817   5.999   9.428 -0.0607  0.4653 -0.3026
   90loPI   C3A 1433   1.914   5.991   8.993  0.1359  0.0683  0.2719
   90loPI   C4A 1434   1.844   5.948   8.507 -0.4482  0.1187 -0.0536
   90loPI   C5A 1435   1.720   5.818   8.113 -0.0448 -0.2495  0.1279
   90loPI   C6A 1436   1.665   5.407   7.955  0.1250  0.1227 -0.2583
   90loPI   C1B 1437   1.085   5.795   9.768 -0.2206 -0.0342 -0.0007
   90loPI   C2B 1438   1.047   5.523   9.598  0.0475  0.0534 -0.0724
   90loPI   C3B 1439   1.019   5.374   9.233 -0.1022 -0.2669 -0.0854
   90loPI   C4B 1440   1.008   5.591   8.741 -0.0249 -0.2925  0.0287
   91loPI    C1 1441  15.768   4.056  10.710  0.0946  0.2328  0.1910
   91loPI    C2 1442  15.846   3.670  10.778  0.0371  0.1947  0.0438
   91loPI    C3 1443  15.643   3.883  11.048  0.0341  0.1116  0.1074
   91loPI   PO4 1444  15.609   4.085  10.452 -0.0431 -0.0850 -0.1683
   91loPI   GL1 1445  15.713   4.226  10.156  0.0541  0.1891 -0.2187
   91loPI   GL2 1446  16.016   4.319  10.077 -0.0649  0.3602  0.0260
   91loPI   C1A 1447  15.433   4.325   9.782 -0.2542 -0.0688 -0.3683
   91loPI   C2A 1448  15.367   4.509   9.310  0.0034 -0.1415 -0.3021
   91loPI   C3A 1449  15.386   4.541   8.841 -0.0562 -0.3337 -0.3846
   91loPI   C4A 1450  15.445   4.740   8.503  0.1901  0.1746  0.0944
   91loPI   C5A 1451  15.779   4.661   8.217  0.1803 -0.2025 -0.2472
   91loPI   C6A 1452  15.889   4.448   7.860 -0.0317  0.0322 -0.1675
   91loPI   C1B 1453  15.947   4.203   9.674  0.1535  0.4841  0.2242
   91loPI   C2B 1454  15.728   4.157   9.407 -0.0209 -0.0560  0.2362
   91loPI   C3B 1455  15.547   4.120   9.020  0.0806  0.4908  0.1208
   91loPI   C4B 1456  15.533   4.064   8.565  0.1015 -0.0767  0.0688
   92loPI    C1 1457  10.755  17.789  10.580 -0.0109  0.1086 -0.0688
   92loPI    C2 1458  10.466  17.619  10.799  0.0969  0.0751  0.0486
   92loPI    C3 1459  10.674  17.399  10.538  0.2652  0.0141  0.2313
   92loPI   PO4 1460  10.740  17.916  10.377 -0.0023  0.1216 -0.2143
   92loPI   GL1 1461  10.618  18.133   9.989  0.2558  0.0882 -0.1265
   92loPI   GL2 1462  10.556  17.772   9.899 -0.0565 -0.0475 -0.1785
   92loPI   C1A 1463  10.681  18.220   9.578 -0.0711 -0.2629 -0.3186
   92loPI   C2A 1464  10.639  18.218   9.075 -0.2901 -0.0655  0.2301
   92loPI   C3A 1465  10.553  17.953   8.809  0.1567 -0.0024  0.1063
   92loPI   C4A 1466  10.343  17.945   8.460 -0.1628 -0.1470 -0.1060
   92loPI   C5A 1467  10.180  18.045   8.066  0.1093  0.0711 -0.1577
   92loPI   C6A 1468  10.104  18.368   7.678  0.0891  0.2512 -0.3982
   92loPI   C1B 1469  10.611  17.569   9.627  0.1437 -0.0184 -0.1426
   92loPI   C2B 1470  10.585  17.436   9.253 -0.0756 -0.5157  0.0073
   92loPI   C3B 1471  10.497  17.474   8.839 -0.0919  0.0766 -0.3494
   92loPI   C4B 1472  10.194  17.356   8.580 -0.2225  0.1435 -0.0742
   93loPI    C1 1473  17.420   3.636  10.731  0.1535  0.1288 -0.1109
   93loPI    C2 1474  17.760   3.619  10.521  0.0903  0.0111 -0.2051
   93loPI    C3 1475  17.724   3.878  10.824  0.4252 -0.2804  0.0930
   93loPI   PO4 1476  17.281   3.447  10.488  0.2094 -0.0046 -0.1556
   93loPI   GL1 1477  17.169   3.691  10.118 -0.0948 -0.4779  0.2366
   93loPI   GL2 1478  16.902   3.568   9.949 -0.0622  0.1623  0.1598
   93loPI   C1A 1479  17.351   3.782   9.656  0.2944  0.2293 -0.1542
   93loPI   C2A 1480  17.303   3.837   9.184 -0.1834 -0.1241 -0.0279
   93loPI   C3A 1481  17.488   3.878   8.719  0.1755 -0.2061  0.1505
   93loPI   C4A 1482  17.798   3.795   8.477 -0.1043 -0.1405  0.1183
   93loPI   C5A 1483  18.182   3.751   8.331 -0.1471 -0.0247  0.1600
   93loPI   C6A 1484  18.317   3.883   7.928 -0.2529 -0.3453  0.0898
   93loPI   C1B 1485  16.835   3.637   9.561 -0.2247  0.1244 -0.0399
   93loPI   C2B 1486  16.788   3.676   9.109  0.1146 -0.1130  0.0459
   93loPI   C3B 1487  16.960   3.970   8.881 -0.0220 -0.0003  0.0051
   93loPI   C4B 1488  16.799   4.087   8.438 -0.1384  0.2406  0.0841
   94loPI    C1 1489   0.712  16.904  10.568  0.0744 -0.1437  0.0517
   94loPI    C2 1490   0.878  16.908  10.932 -0.2397  0.2623  0.1988
   94loPI    C3 1491   0.500  16.788  10.887 -0.1933  0.1867 -0.0006
   94loPI   PO4 1492   0.836  17.028  10.383  0.0205  0.2687 -0.0030
   94loPI   GL1 1493   0.938  17.123   9.964  0.0556 -0.0553  0.1874
   94loPI   GL2 1494   0.938  17.419   9.964 -0.0662  0.1718  0.3595
   94loPI   C1A 1495   0.870  17.111   9.552 -0.0523 -0.1153  0.1766
   94loPI   C2A 1496   0.804  17.098   9.114 -0.3844 -0.0122  0.0856
   94loPI   C3A 1497   0.730  16.911   8.798 -0.1063 -0.2775  0.1471
   94loPI   C4A 1498   0.607  16.905   8.434  0.3208 -0.0995  0.1404
   94loPI   C5A 1499   0.737  16.516   8.130  0.3611  0.1264 -0.0191
   94loPI   C6A 1500   0.478  16.107   7.976  0.0258 -0.0719  0.0275
   94loPI   C1B 1501   0.974  17.624   9.543 -0.1025 -0.1837  0.0333
   94loPI   C2B 1502   0.885  17.660   9.151 -0.0630  0.0240 -0.0544
   94loPI   C3B 1503   0.853  17.479   8.841  0.1524  0.1885 -0.2441
   94loPI   C4B 1504   0.924  17.309   8.535  0.1637  0.0252 -0.0774
   95loPI    C1 1505   9.868   4.390  10.145 -0.1256  0.1109 -0.1037
   95loPI    C2 1506   9.644   4.339  10.472 -0.2742 -0.2215 -0.2527
   95loPI    C3 1507   9.863   4.671  10.430 -0.3595 -0.1130  0.1185
   95loPI   PO4 1508   9.684   4.409   9.952  0.0232  0.1108 -0.2650
   95loPI   GL1 1509   9.715   4.538   9.586 -0.1352  0.1314 -0.1194
   95loPI   GL2 1510   9.394   4.632   9.555 -0.1277 -0.4589 -0.1639
   95loPI   C1A 1511   9.853   4.711   9.157  0.1568 -0.1407  0.3729
   95loPI   C2A 1512   9.885   4.703   8.733  0.0044  0.0790 -0.0139
   95loPI   C3A 1513   9.787   4.653   8.323  0.0147 -0.3290  0.1592
   95loPI   C4A 1514   9.563   4.344   7.925 -0.2340  0.1182  0.0469
   95loPI   C5A 1515   9.365   3.949   7.739 -0.3558  0.1315  0.0027
   95loPI   C6A 1516   9.164   3.714   7.362 -0.0047  0.1697 -0.2813
   95loPI   C1B 1517   9.309   4.733   9.148 -0.0591  0.1629  0.0401
   95loPI   C2B 1518   9.281   4.755   8.639 -0.1817 -0.0863 -0.0481
   95loPI   C3B 1519   9.308   4.656   8.178 -0.2185  0.1506  0.0285
   95loPI   C4B 1520   9.104   4.465   7.931  0.2142 -0.2624  0.1166
   96loPI    C1 1521   0.203   7.392  10.901 -0.1954 -0.2244  0.0423
   96loPI    C2 1522  -0.052   7.253  11.176 -0.0529  0.0051  0.2962
   96loPI    C3 1523   0.311   7.379  11.286  0.1283 -0.2025 -0.0452
   96loPI   PO4 1524  -0.020   7.517  10.788  0.0255  0.1378  0.1175
   96loPI   GL1 1525  -0.316   7.756  10.563  0.0307 -0.0890 -0.1350
   96loPI   GL2 1526  -0.473   7.532  10.593  0.3362 -0.1334 -0.2307
   96loPI   C1A 1527  -0.328   7.697  10.121  0.2789  0.1203 -0.3366
   96loPI   C2A 1528  -0.296   7.594   9.735 -0.1156 -0.0727 -0.1113
   96loPI   C3A 1529  -0.301   7.568   9.247 -0.0742  0.1484 -0.0103
   96loPI   C4A 1530  -0.360   7.526   8.911 -0.1811  0.2726  0.1144
   96loPI   C5A 1531  -0.487   7.479   8.563 -0.1123 -0.0323  0.0604
   96loPI   C6A 1532  -0.620   7.229   8.228  0.0884  0.0789 -0.3754
   96loPI   C1B 1533  -0.598   7.229  10.198 -0.0244 -0.0643  0.2067
   96loPI   C2B 1534  -0.585   7.098   9.738 -0.0658  0.0742  0.0215
   96loPI   C3B 1535  -0.666   7.088   9.266 -0.1397 -0.2964  0.1617
   96loPI   C4B 1536  -0.723   7.147   8.808  0.1117 -0.0016 -0.2169
   97loPI    C1 1537   7.306  12.138  10.511 -0.0286  0.0486  0.0192
   97loPI    C2 1538   7.058  12.406  10.348 -0.0667 -0.0164 -0.0302
   97loPI    C3 1539   7.145  12.425  10.738 -0.0253  0.1012 -0.0448
   97loPI   PO4 1540   7.454  12.053  10.376  0.3466 -0.0273  0.2850
   97loPI   GL1 1541   7.522  11.834   9.979 -0.3803 -0.1413 -0.0403
   97loPI   GL2 1542   7.332  11.761   9.733  0.0189  0.0782 -0.1341
   97loPI   C1A 1543   7.781  11.663   9.618 -0.2089  0.2235  0.0190
   97loPI   C2A 1544   7.941  11.687   9.272 -0.2674  0.2885  0.1436
   97loPI   C3A 1545   7.969  11.787   8.828 -0.0929 -0.1159 -0.3656
   97loPI   C4A 1546   8.221  11.889   8.364  0.0213 -0.1673  0.1993
   97loPI   C5A 1547   8.557  11.915   7.997 -0.1184 -0.2098  0.1039
   97loPI   C6A 1548   9.028  11.776   7.847  0.1091  0.0104 -0.0877
   97loPI   C1B 1549   7.397  11.725   9.341 -0.0971 -0.2093 -0.2814
   97loPI   C2B 1550   7.464  11.847   8.913 -0.3081  0.5564  0.3620
   97loPI   C3B 1551   7.650  11.798   8.385  0.0641  0.0602  0.0953
   97loPI   C4B 1552   7.722  11.606   7.934  0.0615 -0.4935 -0.1449
   98loPI    C1 1553  17.883  13.277  10.626  0.0971  0.1129  0.0916
   98loPI    C2 1554  18.166  12.995  10.605 -0.0773 -0.0658  0.1124
   98loPI    C3 1555  18.108  13.196  10.946 -0.1523 -0.2155  0.1887
   98loPI   PO4 1556  17.916  13.443  10.441  0.2360 -0.2102  0.1710
   98loPI   GL1 1557  17.687  13.760  10.262 -0.1012  0.1312 -0.1931
   98loPI   GL2 1558  17.505  13.470  10.107 -0.0169 -0.0573  0.0104
   98loPI   C1A 1559  17.687  13.918   9.828 -0.1609 -0.0253  0.1441
   98loPI   C2A 1560  17.536  14.011   9.383 -0.2199 -0.2197 -0.0088
   98loPI   C3A 1561  17.461  14.072   9.007 -0.0132 -0.0173  0.0772
   98loPI   C4A 1562  17.517  14.020   8.598 -0.0272  0.0945  0.2879
   98loPI   C5A 1563  17.416  13.897   8.173  0.1763 -0.1668 -0.0406
   98loPI   C6A 1564  17.062  14.039   7.867 -0.1614  0.0177  0.0791
   98loPI   C1B 1565  17.456  13.517   9.731  0.0380  0.1500 -0.1152
   98loPI   C2B 1566  17.332  13.452   9.261  0.0995 -0.0389 -0.0284
   98loPI   C3B 1567  17.190  13.346   8.907  0.0437  0.1842  0.2875
   98loPI   C4B 1568  17.072  13.342   8.530  0.3844 -0.2188 -0.0915
   99loPI    C1 1569   1.134   5.584  10.599  0.2349  0.1174  0.0365
   99loPI    C2 1570   1.421   5.361  10.767 -0.0393 -0.0532  0.2862
   99loPI    C3 1571   1.305   5.702  10.941  0.0451  0.0405  0.1595
   99loPI   PO4 1572   0.913   5.383  10.487 -0.1194  0.1888  0.1328
   99loPI   GL1 1573   0.896   5.163  10.079 -0.1178  0.1881 -0.0935
   99loPI   GL2 1574   1.100   5.287  10.043 -0.2991 -0.2630  0.0480
   99loPI   C1A 1575   0.730   5.080   9.637 -0.2203 -0.1443 -0.0761
   99loPI   C2A 1576   0.613   5.070   9.250  0.0110 -0.1249 -0.0147
   99loPI   C3A 1577   0.654   5.053   8.764 -0.0963  0.0078  0.3913
   99loPI   C4A 1578   0.770   5.248   8.418  0.2147 -0.0253 -0.2550
   99loPI   C5A 1579   0.878   5.697   8.276  0.0878  0.1639  0.1752
   99loPI   C6A 1580   1.188   5.763   8.047 -0.1514 -0.0247 -0.2787
   99loPI   C1B 1581   1.177   5.038   9.637 -0.2740  0.0471 -0.1766
   99loPI   C2B 1582   1.297   4.900   9.243  0.1342  0.0009  0.1422
   99loPI   C3B 1583   1.195   5.003   8.838 -0.0856 -0.2962  0.1771
   99loPI   C4B 1584   1.492   4.936   8.469  0.0353  0.1910 -0.1230
  100loPI    C1 1585   3.562  12.756  10.066  0.2296  0.2639 -0.1536
  100loPI    C2 1586   3.559  12.441  10.313 -0.2687  0.3799 -0.0015
  100loPI    C3 1587   3.815  12.741  10.376  0.1018  0.0821 -0.0556
  100loPI   PO4 1588   3.273  12.781  10.051  0.0155 -0.0169 -0.1187
  100loPI   GL1 1589   3.055  12.725   9.781 -0.3339  0.2416 -0.1968
  100loPI   GL2 1590   2.686  12.774   9.774 -0.2151  0.0861 -0.0001
  100loPI   C1A 1591   3.257  12.596   9.432  0.1657  0.3212  0.0289
  100loPI   C2A 1592   3.245  12.680   9.019  0.1084  0.1229  0.0148
  100loPI   C3A 1593   3.145  12.486   8.681  0.2785 -0.4502  0.0301
  100loPI   C4A 1594   2.840  12.659   8.343 -0.2102 -0.0007 -0.1313
  100loPI   C5A 1595   2.619  12.608   8.034  0.1997  0.1553 -0.1612
  100loPI   C6A 1596   2.708  12.316   7.668 -0.0648 -0.0930  0.0182
  100loPI   C1B 1597   2.793  12.839   9.341  0.2038  0.0493  0.4983
  100loPI   C2B 1598   2.693  12.847   8.848  0.2120  0.0504  0.0395
  100loPI   C3B 1599   2.738  13.096   8.533  0.2401 -0.1915 -0.0065
  100loPI   C4B 1600   2.812  13.113   8.039  0.0741  0.3244 -0.1224
  101loPI    C1 1601   1.393   0.688  10.196  0.0944  0.0209  0.1643
  101loPI    C2 1602   1.758   0.591  10.327  0.1227 -0.0175  0.0580
  101loPI    C3 1603   1.656   0.975  10.287  0.1969 -0.0073 -0.0371
  101loPI   PO4 1604   1.436   0.573   9.954  0.2480 -0.0125  0.3154
  101loPI   GL1 1605   1.372   0.688   9.640  0.1366 -0.0591  0.0300
  101loPI   GL2 1606   1.090   0.811   9.740  0.3104  0.0944  0.0008
  101loPI   C1A 1607   1.581   0.559   9.259  0.1110  0.1027 -0.0977
  101loPI   C2A 1608   1.878   0.484   8.939  0.0572 -0.1334  0.2907
  101loPI   C3A 1609   2.093   0.484   8.616 -0.0223  0.0328 -0.1356
  101loPI   C4A 1610   2.452   0.270   8.406 -0.1497 -0.2454  0.1502
  101loPI   C5A 1611   2.800  -0.004   8.329 -0.4773 -0.1499 -0.1897
  101loPI   C6A 1612   3.126   0.006   8.547 -0.0757 -0.1260 -0.2097
  101loPI   C1B 1613   1.136   0.936   9.275  0.3884  0.0265 -0.0860
  101loPI   C2B 1614   1.289   0.802   8.946 -0.0121 -0.0358 -0.0741
  101loPI   C3B 1615   1.433   0.542   8.734 -0.1495  0.3116 -0.0109
  101loPI   C4B 1616   1.633   0.513   8.360  0.1108 -0.2051  0.1240
  102loPI    C1 1617   3.205   0.337  10.778  0.1147  0.3872 -0.0471
  102loPI    C2 1618   2.829   0.423  10.885  0.0397  0.0947 -0.0653
  102loPI    C3 1619   3.024   0.124  11.064  0.1981  0.1230 -0.1878
  102loPI   PO4 1620   3.216   0.306  10.532 -0.0971  0.1707  0.2010
  102loPI   GL1 1621   3.332   0.554  10.136 -0.3234 -0.0844 -0.1003
  102loPI   GL2 1622   3.353   0.841  10.110  0.0136  0.2564  0.1095
  102loPI   C1A 1623   3.189   0.466   9.777 -0.0236  0.1268  0.2782
  102loPI   C2A 1624   3.105   0.472   9.380 -0.1049 -0.0023 -0.1470
  102loPI   C3A 1625   3.034   0.418   8.840 -0.0366 -0.1873 -0.0512
  102loPI   C4A 1626   2.976   0.502   8.415  0.2576  0.2585 -0.1979
  102loPI   C5A 1627   2.983   0.734   8.118 -0.1839 -0.1103  0.1760
  102loPI   C6A 1628   3.428   0.831   8.022 -0.0416  0.3139 -0.1055
  102loPI   C1B 1629   3.437   0.935   9.675 -0.0054 -0.0496  0.3124
  102loPI   C2B 1630   3.347   0.924   9.272  0.0620 -0.4380  0.0164
  102loPI   C3B 1631   3.269   0.932   8.867 -0.1279  0.0994 -0.4045
  102loPI   C4B 1632   3.376   1.175   8.568 -0.1753 -0.2748 -0.1431
  103loPI    C1 1633  16.401  10.500  10.454 -0.0223 -0.1034 -0.0122
  103loPI    C2 1634  16.291  10.378  10.819  0.0016  0.1772  0.0911
  103loPI    C3 1635  16.342  10.768  10.745  0.3111  0.0992 -0.1255
  103loPI   PO4 1636  16.486  10.260  10.371 -0.3641 -0.1376 -0.0644
  103loPI   GL1 1637  16.342   9.903  10.021 -0.2721  0.0863 -0.1581
  103loPI   GL2 1638  16.679   9.850  10.188 -0.1495  0.0986  0.2560
  103loPI   C1A 1639  16.162   9.587   9.751  0.0805  0.2883 -0.0353
  103loPI   C2A 1640  15.953   9.462   9.282 -0.3193  0.0627 -0.0100
  103loPI   C3A 1641  16.056   9.591   8.854 -0.0019 -0.2451 -0.0498
  103loPI   C4A 1642  16.262   9.678   8.520 -0.0285  0.0638 -0.0214
  103loPI   C5A 1643  16.372   9.472   8.217  0.0784  0.2071 -0.3056
  103loPI   C6A 1644  16.443   9.137   8.017 -0.2561 -0.0391 -0.2963
  103loPI   C1B 1645  16.699   9.771   9.748 -0.0961 -0.0935 -0.1048
  103loPI   C2B 1646  16.479   9.719   9.393  0.1130 -0.1151 -0.3389
  103loPI   C3B 1647  16.569   9.681   9.004 -0.2027  0.1014 -0.3288
  103loPI   C4B 1648  16.643   9.983   8.740 -0.0418  0.1680  0.1669
  104loPI    C1 1649  13.407  10.389  10.717  0.0008  0.0110  0.0413
  104loPI    C2 1650  13.768  10.536  10.807 -0.0277  0.1125 -0.0082
  104loPI    C3 1651  13.723  10.144  10.742  0.0509  0.0823  0.1152
  104loPI   PO4 1652  13.211  10.604  10.470  0.0039  0.4320 -0.0408
  104loPI   GL1 1653  13.030  10.397  10.086  0.1958  0.2212  0.4731
  104loPI   GL2 1654  13.089  10.604   9.842 -0.4722 -0.3938  0.2838
  104loPI   C1A 1655  13.375  10.258   9.710  0.1262 -0.1949 -0.1398
  104loPI   C2A 1656  13.411  10.188   9.257 -0.3108 -0.1769 -0.3012
  104loPI   C3A 1657  13.384  10.530   8.935  0.0467 -0.0052 -0.0321
  104loPI   C4A 1658  13.203  10.901   8.768 -0.0065 -0.0067  0.2331
  104loPI   C5A 1659  13.179  11.070   8.365 -0.1103 -0.0146  0.3090
  104loPI   C6A 1660  13.485  11.285   8.162  0.0381 -0.0263  0.1834
  104loPI   C1B 1661  12.977  10.494   9.445 -0.0623  0.0536  0.0570
  104loPI   C2B 1662  12.925  10.440   9.060 -0.4051 -0.0014 -0.1168
  104loPI   C3B 1663  12.990  10.498   8.605  0.2753 -0.4294  0.1340
  104loPI   C4B 1664  13.388  10.452   8.478  0.2715 -0.1395  0.4707
  105loPI    C1 1665   7.105  10.225  10.243 -0.0534  0.0207 -0.0117
  105loPI    C2 1666   6.753  10.071  10.132 -0.0036 -0.0548 -0.0659
  105loPI    C3 1667   7.061   9.829  10.213 -0.0006  0.0054  0.1068
  105loPI   PO4 1668   7.028  10.483  10.132 -0.2584  0.1846  0.0173
  105loPI   GL1 1669   7.098  10.700   9.760  0.0026  0.3379  0.1806
  105loPI   GL2 1670   7.423  10.640   9.615  0.2774  0.0245  0.2274
  105loPI   C1A 1671   6.898  10.713   9.449  0.1142  0.0757  0.1144
  105loPI   C2A 1672   6.968  10.879   9.029 -0.0608  0.1809 -0.3274
  105loPI   C3A 1673   7.010  11.051   8.627 -0.0716  0.0299  0.3119
  105loPI   C4A 1674   6.801  11.363   8.382  0.2626 -0.1110  0.0442
  105loPI   C5A 1675   6.773  11.643   8.079 -0.0132  0.1078 -0.0171
  105loPI   C6A 1676   6.542  11.975   7.781  0.0012 -0.0836 -0.3711
  105loPI   C1B 1677   7.444  10.747   9.177  0.1523  0.1977 -0.0406
  105loPI   C2B 1678   7.428  10.796   8.687  0.0598 -0.0951  0.2357
  105loPI   C3B 1679   7.487  10.990   8.374  0.2074 -0.0549 -0.0820
  105loPI   C4B 1680   7.524  11.037   7.998 -0.1703  0.2629 -0.0208
  106loPI    C1 1681   1.635   4.306  10.632  0.1438 -0.0783 -0.0904
  106loPI    C2 1682   1.317   4.533  10.719  0.0774 -0.1156 -0.2338
  106loPI    C3 1683   1.603   4.476  10.993  0.0957  0.1424 -0.1970
  106loPI   PO4 1684   1.566   4.216  10.367 -0.0365  0.1399  0.0271
  106loPI   GL1 1685   1.643   4.245   9.998  0.2993 -0.0471 -0.0509
  106loPI   GL2 1686   1.877   4.180   9.669  0.3421  0.0728 -0.3027
  106loPI   C1A 1687   1.351   4.068   9.702 -0.0906  0.0207  0.0775
  106loPI   C2A 1688   1.225   4.006   9.327 -0.0929 -0.1131 -0.1410
  106loPI   C3A 1689   1.236   4.115   8.966 -0.1863  0.0393 -0.2562
  106loPI   C4A 1690   1.346   4.018   8.590  0.2731 -0.1450  0.0294
  106loPI   C5A 1691   1.401   4.110   8.110  0.1460  0.0303 -0.2399
  106loPI   C6A 1692   1.362   4.489   7.905 -0.1290  0.2017  0.1830
  106loPI   C1B 1693   1.912   4.006   9.284  0.2203 -0.1317  0.1924
  106loPI   C2B 1694   1.801   4.057   8.875 -0.0662 -0.0917  0.1373
  106loPI   C3B 1695   1.850   4.042   8.429 -0.1337  0.4521  0.0758
  106loPI   C4B 1696   1.856   4.367   7.969  0.1024 -0.2142  0.0092
  107loPI    C1 1697  17.721   0.218  10.385 -0.1550 -0.1949 -0.1570
  107loPI    C2 1698  17.556   0.401  10.700 -0.3770 -0.1046 -0.3234
  107loPI    C3 1699  17.895   0.195  10.744 -0.1431  0.3114 -0.1224
  107loPI   PO4 1700  17.592   0.024  10.326 -0.0718  0.1878  0.0059
  107loPI   GL1 1701  17.671  -0.128   9.952  0.2252 -0.2212 -0.1834
  107loPI   GL2 1702  17.463  -0.443   9.884  0.1927  0.1810 -0.1735
  107loPI   C1A 1703  17.647   0.015   9.583  0.1714  0.1821 -0.3516
  107loPI   C2A 1704  17.600  -0.072   9.182  0.1368 -0.0552 -0.0812
  107loPI   C3A 1705  17.557  -0.302   8.791 -0.0361 -0.0641  0.1990
  107loPI   C4A 1706  17.449  -0.205   8.348 -0.0230  0.1073  0.1094
  107loPI   C5A 1707  17.415   0.048   8.001  0.0973  0.1152  0.1980
  107loPI   C6A 1708  17.358   0.389   7.691 -0.0230 -0.1895  0.0414
  107loPI   C1B 1709  17.437  -0.628   9.412  0.0791  0.2255 -0.0405
  107loPI   C2B 1710  17.397  -0.777   8.978  0.0825 -0.3122  0.1861
  107loPI   C3B 1711  17.437  -0.692   8.557 -0.1704 -0.0048  0.1707
  107loPI   C4B 1712  17.207  -0.659   8.138 -0.2581 -0.0854 -0.2697
  108loPI    C1 1713  12.541   9.951  10.881  0.0317 -0.0142  0.1830
  108loPI    C2 1714  12.571   9.619  11.101  0.3175 -0.0954  0.0258
  108loPI    C3 1715  12.638   9.976  11.268  0.0352 -0.1161  0.1887
  108loPI   PO4 1716  12.651   9.894  10.666  0.1591  0.0153 -0.0182
  108loPI   GL1 1717  12.691  10.022  10.128  0.3731  0.2468  0.4421
  108loPI   GL2 1718  12.371  10.143  10.157 -0.1512 -0.1650  0.1007
  108loPI   C1A 1719  12.871   9.981   9.823 -0.2162  0.0834 -0.2751
  108loPI   C2A 1720  12.890   9.993   9.424 -0.0361 -0.0405  0.5042
  108loPI   C3A 1721  13.041   9.976   9.004 -0.1306 -0.1287 -0.2039
  108loPI   C4A 1722  12.967  10.020   8.474  0.1744  0.0426 -0.1101
  108loPI   C5A 1723  12.951  10.274   8.077 -0.0650 -0.0423 -0.1530
  108loPI   C6A 1724  13.050  10.257   7.688  0.0887 -0.1453  0.2500
  108loPI   C1B 1725  12.436  10.048   9.609 -0.0093 -0.3298  0.0415
  108loPI   C2B 1726  12.435   9.881   9.234 -0.1733 -0.1681 -0.0985
  108loPI   C3B 1727  12.552  10.017   8.811 -0.0776 -0.1415 -0.1876
  108loPI   C4B 1728  12.343  10.006   8.433 -0.1155  0.1120 -0.0391
  109loPI    C1 1729  15.428  13.525  10.922  0.0341 -0.1406 -0.0770
  109loPI    C2 1730  15.201  13.821  11.066  0.1305 -0.0731 -0.0623
  109loPI    C3 1731  15.161  13.450  11.209 -0.1070 -0.1017 -0.1968
  109loPI   PO4 1732  15.353  13.596  10.641 -0.0688  0.0620 -0.0843
  109loPI   GL1 1733  15.492  13.890  10.356 -0.1912 -0.2279  0.0955
  109loPI   GL2 1734  15.727  13.974  10.424 -0.1183  0.0465 -0.2003
  109loPI   C1A 1735  15.541  14.254  10.019 -0.5697 -0.1798 -0.1694
  109loPI   C2A 1736  15.537  14.405   9.550 -0.0636  0.0160  0.2261
  109loPI   C3A 1737  15.640  14.323   9.126 -0.3584  0.1251 -0.1010
  109loPI   C4A 1738  15.769  14.229   8.807  0.2387  0.1930  0.1577
  109loPI   C5A 1739  15.922  14.145   8.420 -0.0665  0.1330  0.5759
  109loPI   C6A 1740  16.139  14.372   8.154 -0.1271  0.3474 -0.2969
  109loPI   C1B 1741  16.060  13.854  10.174  0.0806 -0.5124  0.2353
  109loPI   C2B 1742  16.156  13.839   9.753 -0.1150  0.0721  0.0361
  109loPI   C3B 1743  16.180  13.852   9.247  0.1176  0.0140 -0.2370
  109loPI   C4B 1744  16.206  13.906   8.893 -0.0864 -0.0425  0.0836
  110loPI    C1 1745  15.934   2.799  10.828  0.0560  0.0793 -0.1675
  110loPI    C2 1746  15.575   2.696  10.972 -0.0019  0.0248 -0.3488
  110loPI    C3 1747  15.819   2.925  11.190 -0.0467 -0.1395 -0.1219
  110loPI   PO4 1748  15.877   2.875  10.590 -0.3814 -0.1456  0.0595
  110loPI   GL1 1749  15.701   3.073  10.138 -0.1068 -0.1792  0.0905
  110loPI   GL2 1750  15.817   2.795  10.035 -0.3526 -0.1707  0.2072
  110loPI   C1A 1751  15.759   3.311   9.786 -0.0017  0.0378 -0.1825
  110loPI   C2A 1752  15.719   3.269   9.308 -0.1222 -0.0126  0.1617
  110loPI   C3A 1753  15.837   3.159   8.980 -0.0156  0.3175  0.2492
  110loPI   C4A 1754  15.874   3.202   8.618 -0.0401 -0.2291  0.1713
  110loPI   C5A 1755  15.747   3.550   8.382 -0.1461  0.0710 -0.3167
  110loPI   C6A 1756  15.706   3.834   8.143 -0.1760 -0.0010  0.1034
  110loPI   C1B 1757  15.679   2.846   9.564 -0.0813 -0.0644  0.0809
  110loPI   C2B 1758  15.620   2.630   9.071  0.2203 -0.0113  0.5994
  110loPI   C3B 1759  15.592   2.681   8.619 -0.0497 -0.3591  0.2302
  110loPI   C4B 1760  15.619   2.910   8.220  0.1924 -0.3166  0.0451
  111loPI    C1 1761  11.308  10.431  10.284  0.1362 -0.0336 -0.0824
  111loPI    C2 1762  11.231  10.504  10.670  0.0002  0.3811 -0.1834
  111loPI    C3 1763  11.608  10.507  10.537  0.0704 -0.0172 -0.0087
  111loPI   PO4 1764  11.173  10.321  10.154 -0.0369  0.0019  0.1676
  111loPI   GL1 1765  11.173  10.169   9.863 -0.4692  0.0211  0.3596
  111loPI   GL2 1766  11.475   9.956   9.884  0.1252 -0.3896  0.1944
  111loPI   C1A 1767  11.029  10.083   9.449 -0.2529  0.0086  0.0587
  111loPI   C2A 1768  11.021  10.118   9.030  0.1794 -0.1289  0.0457
  111loPI   C3A 1769  11.026  10.284   8.628 -0.0245 -0.3540  0.1212
  111loPI   C4A 1770  10.743  10.047   8.484 -0.2542 -0.2920  0.0150
  111loPI   C5A 1771  10.413  10.188   8.746  0.4496  0.1741  0.0492
  111loPI   C6A 1772  10.181  10.360   9.048 -0.4351  0.2038 -0.0698
  111loPI   C1B 1773  11.522  10.167   9.539  0.0644 -0.1190 -0.0928
  111loPI   C2B 1774  11.550  10.185   9.179 -0.1039 -0.2044  0.0374
  111loPI   C3B 1775  11.532  10.216   8.788  0.1263 -0.0035 -0.1204
  111loPI   C4B 1776  11.455  10.392   8.376 -0.2990  0.2552  0.2070
  112loPI    C1 1777  13.007   8.204  10.593 -0.2779  0.1999 -0.1051
  112loPI    C2 1778  12.718   7.946  10.494 -0.1279 -0.0608  0.1218
  112loPI    C3 1779  12.667   8.193  10.804 -0.2316  0.1160 -0.0341
  112loPI   PO4 1780  13.118   8.190  10.405 -0.2247 -0.0822  0.3353
  112loPI   GL1 1781  13.058   8.220   9.999 -0.1751 -0.1252  0.1845
  112loPI   GL2 1782  13.330   8.506  10.075 -0.1609  0.0346  0.0241
  112loPI   C1A 1783  12.978   8.047   9.586  0.1002 -0.0568 -0.3473
  112loPI   C2A 1784  13.115   8.087   9.062  0.0443 -0.0730  0.1237
  112loPI   C3A 1785  13.404   8.253   8.806 -0.0373 -0.2227 -0.0453
  112loPI   C4A 1786  13.608   8.257   8.536 -0.1143  0.0639  0.0470
  112loPI   C5A 1787  13.770   8.504   8.311  0.1076  0.1101 -0.1992
  112loPI   C6A 1788  13.557   8.552   7.830  0.1373  0.1500  0.0117
  112loPI   C1B 1789  13.355   8.354   9.624 -0.0288  0.1031  0.0007
  112loPI   C2B 1790  13.565   8.274   9.302  0.0969 -0.1145 -0.0426
  112loPI   C3B 1791  13.919   8.335   9.170 -0.1660  0.0371 -0.2500
  112loPI   C4B 1792  14.088   8.222   8.695  0.1865 -0.0884  0.2781
  113loPI    C1 1793  16.680   0.162  10.740 -0.0873  0.0353 -0.0464
  113loPI    C2 1794  16.754   0.542  10.640  0.2885 -0.0112  0.0371
  113loPI    C3 1795  16.948   0.376  10.947 -0.1484 -0.1604  0.2411
  113loPI   PO4 1796  16.708  -0.040  10.535 -0.0730  0.0995  0.2194
  113loPI   GL1 1797  16.568  -0.101  10.120  0.1540 -0.0864 -0.0202
  113loPI   GL2 1798  16.691   0.162  10.095 -0.1229  0.0292  0.0807
  113loPI   C1A 1799  16.282  -0.129   9.804  0.0561 -0.0364 -0.0779
  113loPI   C2A 1800  16.170  -0.248   9.435  0.1977  0.0763  0.2146
  113loPI   C3A 1801  16.156  -0.283   9.050  0.0106  0.2740 -0.0326
  113loPI   C4A 1802  16.270  -0.194   8.677  0.0551  0.1764  0.2638
  113loPI   C5A 1803  16.220  -0.141   8.385  0.1406  0.1094 -0.1031
  113loPI   C6A 1804  16.445  -0.008   8.018 -0.1013  0.0477  0.0225
  113loPI   C1B 1805  16.695   0.147   9.679  0.2922 -0.1361 -0.2687
  113loPI   C2B 1806  16.627  -0.061   9.362 -0.2366 -0.1571  0.0084
  113loPI   C3B 1807  16.662  -0.113   8.956 -0.0727  0.1496  0.1392
  113loPI   C4B 1808  16.661   0.086   8.503 -0.2042 -0.0194 -0.1578
  114loPI    C1 1809   7.691  13.458  10.453  0.0214 -0.2380  0.1162
  114loPI    C2 1810   7.349  13.665  10.447  0.1811  0.0273  0.0386
  114loPI    C3 1811   7.444  13.446  10.768 -0.0729 -0.0697  0.0496
  114loPI   PO4 1812   7.833  13.584  10.310  0.0476  0.1032 -0.0834
  114loPI   GL1 1813   8.133  13.593  10.025  0.0417  0.1681 -0.1570
  114loPI   GL2 1814   7.830  13.619   9.842 -0.1974  0.0207 -0.1694
  114loPI   C1A 1815   8.312  13.559   9.648  0.1102  0.1706 -0.1236
  114loPI   C2A 1816   8.465  13.578   9.175  0.0665 -0.0938  0.2189
  114loPI   C3A 1817   8.411  13.537   8.691  0.1720  0.0358 -0.1650
  114loPI   C4A 1818   8.318  13.373   8.194  0.2861 -0.1019 -0.0540
  114loPI   C5A 1819   7.985  13.450   7.869  0.1870 -0.0277 -0.1586
  114loPI   C6A 1820   7.627  13.230   7.784 -0.2917 -0.1063  0.0128
  114loPI   C1B 1821   7.912  13.601   9.411 -0.1811 -0.1498  0.0750
  114loPI   C2B 1822   7.964  13.649   8.984 -0.0099  0.1905 -0.1745
  114loPI   C3B 1823   7.976  13.635   8.534  0.0037  0.0644 -0.1147
  114loPI   C4B 1824   7.631  13.710   8.194 -0.2936 -0.2720 -0.1538
  115loPI    C1 1825   2.126   1.062  10.942 -0.4224 -0.0114 -0.0740
  115loPI    C2 1826   1.835   0.878  11.145 -0.2509 -0.0824  0.1098
  115loPI    C3 1827   2.207   0.888  11.293 -0.1384 -0.0753 -0.1687
  115loPI   PO4 1828   2.049   1.064  10.635  0.0250 -0.0430 -0.0225
  115loPI   GL1 1829   2.091   1.153  10.156 -0.0302 -0.0417 -0.2439
  115loPI   GL2 1830   1.952   1.439   9.990  0.1908  0.0897  0.0693
  115loPI   C1A 1831   2.320   0.960   9.801 -0.2590  0.0131 -0.3386
  115loPI   C2A 1832   2.167   0.944   9.335  0.0510  0.1212  0.3093
  115loPI   C3A 1833   2.262   0.918   8.877  0.4319 -0.0472 -0.1248
  115loPI   C4A 1834   2.271   0.975   8.367  0.0235 -0.1729 -0.2494
  115loPI   C5A 1835   2.508   0.749   8.054 -0.1567  0.2197  0.0557
  115loPI   C6A 1836   2.667   0.316   7.949  0.2835  0.1200 -0.4830
  115loPI   C1B 1837   1.956   1.338   9.624 -0.2751  0.1806  0.4915
  115loPI   C2B 1838   2.040   1.357   9.178 -0.0777  0.0112  0.1821
  115loPI   C3B 1839   1.922   1.387   8.759  0.1418 -0.0489  0.1181
  115loPI   C4B 1840   1.662   1.380   8.366 -0.3520 -0.3383  0.0920
  116loPI    C1 1841  16.499   5.922  11.300 -0.0864 -0.0177 -0.0862
  116loPI    C2 1842  16.316   6.278  11.298 -0.1098 -0.0299 -0.1139
  116loPI    C3 1843  16.100   5.941  11.282 -0.0825 -0.0430 -0.2113
  116loPI   PO4 1844  16.678   5.975  11.134  0.1665 -0.2304 -0.1289
  116loPI   GL1 1845  16.873   5.856  10.713  0.0665 -0.0245  0.2030
  116loPI   GL2 1846  17.092   6.116  10.556  0.1947 -0.3292 -0.0075
  116loPI   C1A 1847  16.920   5.752  10.248  0.1193  0.0648 -0.1491
  116loPI   C2A 1848  17.035   5.673   9.823 -0.0726  0.1110  0.0184
  116loPI   C3A 1849  16.943   5.765   9.419  0.4071 -0.0477 -0.2301
  116loPI   C4A 1850  17.026   5.748   9.051 -0.4630 -0.0667 -0.0848
  116loPI   C5A 1851  16.935   6.017   8.668  0.0510 -0.4082 -0.0620
  116loPI   C6A 1852  16.677   6.456   8.421 -0.2379 -0.0121 -0.0023
  116loPI   C1B 1853  17.248   6.171  10.197 -0.2075  0.0001  0.0937
  116loPI   C2B 1854  17.202   6.160   9.836 -0.0583  0.0892  0.1518
  116loPI   C3B 1855  17.238   6.208   9.377 -0.0150  0.0455 -0.0694
  116loPI   C4B 1856  17.254   6.259   9.005 -0.0688  0.2194  0.1568
  117loPI    C1 1857   4.957  12.384  10.470 -0.1120 -0.0298  0.0021
  117loPI    C2 1858   5.099  12.292  10.832  0.0443 -0.0777 -0.0705
  117loPI    C3 1859   4.829  12.585  10.792  0.1550  0.0448  0.0637
  117loPI   PO4 1860   4.994  12.097  10.351  0.0780  0.3032 -0.0026
  117loPI   GL1 1861   4.948  11.959   9.922  0.3580  0.2065  0.0125
  117loPI   GL2 1862   5.208  11.761   9.786  0.1372  0.1175  0.2736
  117loPI   C1A 1863   5.037  12.270   9.547 -0.3088  0.2758  0.1368
  117loPI   C2A 1864   5.100  12.306   9.216 -0.0395  0.2765  0.1928
  117loPI   C3A 1865   5.026  12.418   8.830  0.1407 -0.0809  0.3022
  117loPI   C4A 1866   5.080  12.387   8.416 -0.0644  0.1985  0.0239
  117loPI   C5A 1867   5.253  12.409   7.975 -0.1344 -0.1952  0.0399
  117loPI   C6A 1868   5.709  12.234   7.855 -0.0513  0.0478 -0.2136
  117loPI   C1B 1869   5.185  11.808   9.349  0.1735 -0.2304 -0.3734
  117loPI   C2B 1870   5.167  11.856   8.897  0.3005  0.2037 -0.4512
  117loPI   C3B 1871   5.192  11.823   8.406 -0.1198 -0.0612 -0.2886
  117loPI   C4B 1872   5.367  11.848   8.017 -0.2356  0.2458 -0.0635
  118loPI    C1 1873  17.483   4.996  10.954 -0.0892  0.1506 -0.0142
  118loPI    C2 1874  17.820   4.782  10.973 -0.1594  0.0234 -0.1806
  118loPI    C3 1875  17.796   5.134  11.161  0.0464  0.0071 -0.1214
  118loPI   PO4 1876  17.320   4.984  10.774  0.1383 -0.2636 -0.1186
  118loPI   GL1 1877  17.119   4.916  10.405  0.0146  0.3047 -0.2298
  118loPI   GL2 1878  17.323   4.633  10.251 -0.1250  0.2763  0.0175
  118loPI   C1A 1879  16.870   4.742  10.190  0.2591 -0.0195  0.1120
  118loPI   C2A 1880  16.756   4.766   9.898 -0.5284 -0.0456 -0.0797
  118loPI   C3A 1881  16.793   4.839   9.431 -0.1661  0.0746 -0.2094
  118loPI   C4A 1882  16.908   4.914   8.992  0.2400  0.0628 -0.2083
  118loPI   C5A 1883  16.929   4.901   8.574 -0.1102 -0.3014 -0.0140
  118loPI   C6A 1884  16.675   4.984   8.183 -0.2239  0.0483 -0.1253
  118loPI   C1B 1885  17.230   4.737   9.775  0.0634  0.1169 -0.0682
  118loPI   C2B 1886  17.253   4.712   9.221 -0.4201  0.2079  0.1463
  118loPI   C3B 1887  17.379   4.799   8.811  0.0549 -0.2914 -0.1205
  118loPI   C4B 1888  17.641   4.640   8.490 -0.0381 -0.1581  0.1019
  119loPI    C1 1889   0.093  10.219  10.513 -0.1119  0.2620  0.1320
  119loPI    C2 1890   0.023  10.603  10.598  0.0863  0.2859  0.1921
  119loPI    C3 1891  -0.015  10.325  10.883 -0.0154  0.2660  0.1594
  119loPI   PO4 1892   0.401  10.154  10.408  0.1105  0.1074 -0.1335
  119loPI   GL1 1893   0.499  10.013   9.967 -0.2242  0.1995  0.1318
  119loPI   GL2 1894   0.761   9.775   9.784 -0.3513  0.3199  0.0882
  119loPI   C1A 1895   0.471  10.277   9.609  0.0534 -0.0813 -0.1552
  119loPI   C2A 1896   0.303  10.250   9.138  0.2838  0.0651 -0.0379
  119loPI   C3A 1897   0.194  10.279   8.688 -0.2523  0.0322 -0.2016
  119loPI   C4A 1898   0.163  10.143   8.352  0.0255 -0.2134 -0.0888
  119loPI   C5A 1899   0.399  10.210   7.985  0.0231 -0.1037  0.0645
  119loPI   C6A 1900   0.434  10.586   7.910  0.1765 -0.0142  0.0827
  119loPI   C1B 1901   0.635   9.809   9.413 -0.0986  0.0261  0.1119
  119loPI   C2B 1902   0.505   9.850   8.930 -0.2566  0.1524  0.2275
  119loPI   C3B 1903   0.459   9.754   8.439 -0.2966  0.0770 -0.0178
  119loPI   C4B 1904   0.465   9.717   7.951  0.0257 -0.2222  0.1238
  120loPI    C1 1905   7.073   8.425  10.439  0.2201 -0.1801  0.3692
  120loPI    C2 1906   6.704   8.412  10.593  0.1768  0.0597  0.2899
  120loPI    C3 1907   7.006   8.232  10.783  0.0948  0.2128  0.5712
  120loPI   PO4 1908   7.036   8.472  10.186  0.1989 -0.1498 -0.0496
  120loPI   GL1 1909   7.177   8.393   9.820  0.3384  0.4060  0.1631
  120loPI   GL2 1910   7.404   8.731   9.732 -0.1390 -0.2017 -0.1246
  120loPI   C1A 1911   6.783   8.329   9.558  0.1470 -0.1028 -0.2268
  120loPI   C2A 1912   6.603   8.433   9.145  0.0470  0.0150 -0.0224
  120loPI   C3A 1913   6.627   8.424   8.712 -0.1468  0.0144  0.0553
  120loPI   C4A 1914   6.794   8.291   8.347  0.0592 -0.0799  0.1467
  120loPI   C5A 1915   6.978   8.137   8.045 -0.1985  0.1936 -0.0079
  120loPI   C6A 1916   7.424   8.139   7.849 -0.2004 -0.0235 -0.3404
  120loPI   C1B 1917   7.347   8.839   9.244 -0.5788  0.2614  0.0318
  120loPI   C2B 1918   7.432   8.929   8.770  0.0346  0.2149 -0.1140
  120loPI   C3B 1919   7.365   8.984   8.324  0.0648 -0.0142  0.0904
  120loPI   C4B 1920   7.435   8.790   7.886 -0.3067 -0.1240  0.0423
  121loPI    C1 1921  17.481   8.602  10.614  0.0326 -0.0941  0.0555
  121loPI    C2 1922  17.083   8.626  10.650  0.0459  0.1075  0.0786
  121loPI    C3 1923  17.319   8.819  10.909  0.1582  0.0675  0.0068
  121loPI   PO4 1924  17.477   8.456  10.406 -0.1380  0.1230 -0.2852
  121loPI   GL1 1925  17.584   8.572  10.058 -0.1447  0.2106  0.1760
  121loPI   GL2 1926  17.330   8.486   9.839 -0.0240 -0.0510  0.2299
  121loPI   C1A 1927  17.913   8.422   9.767 -0.0783 -0.3131  0.0454
  121loPI   C2A 1928  17.823   8.387   9.360  0.1085 -0.2358  0.0923
  121loPI   C3A 1929  17.798   8.424   8.919 -0.0944 -0.2626  0.2088
  121loPI   C4A 1930  17.725   8.480   8.536 -0.0645  0.2269  0.1213
  121loPI   C5A 1931  17.473   8.415   8.240 -0.0174  0.2492  0.2326
  121loPI   C6A 1932  17.475   8.197   7.935 -0.3931 -0.1849  0.0317
  121loPI   C1B 1933  17.315   8.457   9.406 -0.0309 -0.0393 -0.1246
  121loPI   C2B 1934  17.296   8.475   8.968 -0.0045 -0.2578  0.1595
  121loPI   C3B 1935  17.181   8.464   8.562  0.2659  0.0773 -0.1224
  121loPI   C4B 1936  16.897   8.509   8.299  0.0739 -0.2482  0.0404
  122loPI    C1 1937   1.223  12.400  10.644  0.0970  0.2128  0.0767
  122loPI    C2 1938   1.504  12.124  10.713  0.0469  0.1427  0.0029
  122loPI    C3 1939   1.598  12.513  10.723  0.1399  0.1204  0.0074
  122loPI   PO4 1940   1.102  12.295  10.482 -0.2191  0.0345 -0.2322
  122loPI   GL1 1941   0.780  12.364  10.026 -0.0925 -0.1920  0.2331
  122loPI   GL2 1942   0.409  12.383  10.080  0.0533 -0.1418  0.1214
  122loPI   C1A 1943   0.856  12.176   9.682  0.3679 -0.0796 -0.2305
  122loPI   C2A 1944   1.005  12.037   9.354  0.0911  0.5603  0.1689
  122loPI   C3A 1945   0.974  11.674   9.260 -0.0949 -0.0079 -0.1738
  122loPI   C4A 1946   1.170  11.520   9.003 -0.1941 -0.0438  0.1889
  122loPI   C5A 1947   1.152  11.445   8.474 -0.0882  0.2919 -0.0268
  122loPI   C6A 1948   1.018  11.237   8.080  0.1823 -0.3173  0.1918
  122loPI   C1B 1949   0.429  12.621   9.700 -0.2674  0.1926  0.2293
  122loPI   C2B 1950   0.607  12.398   9.326  0.0372  0.0645 -0.3908
  122loPI   C3B 1951   0.553  12.280   8.860 -0.2815  0.1877  0.1520
  122loPI   C4B 1952   0.619  12.155   8.494 -0.0917  0.0447  0.2500
  123loPI    C1 1953   3.337  15.893  10.414  0.1633  0.0663 -0.1641
  123loPI    C2 1954   3.466  15.524  10.332  0.0343  0.0330 -0.2189
  123loPI    C3 1955   3.262  15.594  10.669  0.3303  0.1171 -0.0531
  123loPI   PO4 1956   3.584  16.042  10.427 -0.0550  0.1351 -0.1453
  123loPI   GL1 1957   4.019  16.130  10.365  0.0425  0.0357 -0.1374
  123loPI   GL2 1958   3.942  16.297  10.179 -0.2262 -0.1417 -0.0873
  123loPI   C1A 1959   4.118  15.937   9.934  0.2276  0.1887  0.0710
  123loPI   C2A 1960   4.005  15.820   9.550 -0.1296  0.0811  0.2093
  123loPI   C3A 1961   4.063  15.756   9.092 -0.0069 -0.0035 -0.1817
  123loPI   C4A 1962   4.005  15.814   8.636 -0.1413  0.2067 -0.1499
  123loPI   C5A 1963   3.943  15.593   8.299 -0.0223 -0.2530  0.1206
  123loPI   C6A 1964   3.948  15.204   8.077 -0.1048  0.2040 -0.1075
  123loPI   C1B 1965   3.764  16.292   9.777 -0.4148 -0.0201  0.0345
  123loPI   C2B 1966   3.883  16.274   9.392  0.1447  0.0983 -0.0257
  123loPI   C3B 1967   3.972  16.214   8.988  0.2604  0.1753 -0.0836
  123loPI   C4B 1968   3.997  16.340   8.460  0.0473  0.1064 -0.1414
  124loPI    C1 1969   7.440   0.503  10.918 -0.0318 -0.2353  0.0470
  124loPI    C2 1970   7.516   0.191  10.679  0.3242 -0.0718 -0.0600
  124loPI    C3 1971   7.816   0.422  10.808  0.0469  0.3556 -0.1568
  124loPI   PO4 1972   7.133   0.643  10.854 -0.1369  0.2464 -0.4918
  124loPI   GL1 1973   6.966   0.707  10.374  0.0758  0.1282  0.0994
  124loPI   GL2 1974   7.319   0.499  10.357 -0.0789  0.0291 -0.0322
  124loPI   C1A 1975   6.702   0.584  10.106  0.0605 -0.0755  0.0055
  124loPI   C2A 1976   6.666   0.409   9.811 -0.0723  0.1492 -0.0005
  124loPI   C3A 1977   6.760   0.377   9.338  0.1332  0.0107  0.0810
  124loPI   C4A 1978   6.775   0.391   8.948  0.0263 -0.1333 -0.1289
  124loPI   C5A 1979   6.659   0.153   8.569 -0.5043 -0.0934 -0.1808
  124loPI   C6A 1980   6.724  -0.115   8.208 -0.3275 -0.0903  0.3322
  124loPI   C1B 1981   7.165   0.570   9.946 -0.3886  0.0484 -0.2050
  124loPI   C2B 1982   7.148   0.398   9.612 -0.1855 -0.1368 -0.0389
  124loPI   C3B 1983   7.258   0.524   9.219  0.2494 -0.0169  0.0230
  124loPI   C4B 1984   7.280   0.395   8.754  0.2733  0.0680  0.0520
  125loPI    C1 1985   9.248   8.411  10.410 -0.2874 -0.0104  0.1229
  125loPI    C2 1986   9.519   8.177  10.232 -0.4074  0.0334 -0.1230
  125loPI    C3 1987   9.637   8.467  10.481 -0.2458 -0.1335 -0.0017
  125loPI   PO4 1988   8.995   8.354  10.149 -0.0814 -0.1186 -0.3572
  125loPI   GL1 1989   8.928   8.313   9.788 -0.0026 -0.0284  0.1389
  125loPI   GL2 1990   8.671   8.517   9.561 -0.1001  0.0012  0.1523
  125loPI   C1A 1991   9.080   8.273   9.407  0.4286  0.1615  0.0037
  125loPI   C2A 1992   9.069   8.259   8.954 -0.0636  0.3218 -0.0258
  125loPI   C3A 1993   9.069   8.112   8.601  0.1259  0.0143 -0.0966
  125loPI   C4A 1994   9.260   8.288   8.198 -0.1733  0.0025 -0.0046
  125loPI   C5A 1995   9.424   8.588   7.917 -0.1606  0.0648  0.1799
  125loPI   C6A 1996   9.640   8.968   7.929  0.2305 -0.0855  0.3290
  125loPI   C1B 1997   8.616   8.647   9.147 -0.0788 -0.0352 -0.1772
  125loPI   C2B 1998   8.711   8.475   8.689  0.2488 -0.1179 -0.1275
  125loPI   C3B 1999   8.832   8.521   8.364 -0.1128  0.1338 -0.1766
  125loPI   C4B 2000   8.861   8.372   7.883 -0.0945  0.2647  0.1143
  126loPI    C1 2001   9.920   8.821  10.354  0.0224 -0.3450  0.2582
  126loPI    C2 2002  10.224   8.975  10.563  0.0013  0.1171 -0.0379
  126loPI    C3 2003   9.879   8.888  10.746  0.1758 -0.0381  0.2244
  126loPI   PO4 2004   9.862   9.010  10.099  0.0089 -0.0512  0.0914
  126loPI   GL1 2005   9.959   8.986   9.756  0.1760 -0.0119 -0.2489
  126loPI   GL2 2006   9.778   9.338   9.617  0.0794 -0.1697  0.1727
  126loPI   C1A 2007  10.137   9.142   9.313 -0.0451  0.0740 -0.0523
  126loPI   C2A 2008  10.041   9.197   8.853  0.1855  0.2956  0.0319
  126loPI   C3A 2009  10.261   9.398   8.444  0.1775 -0.0346  0.0987
  126loPI   C4A 2010  10.512   9.583   8.092 -0.0411 -0.2121  0.0914
  126loPI   C5A 2011  10.901   9.618   7.802 -0.0091  0.2020  0.1101
  126loPI   C6A 2012  11.222   9.689   7.560  0.0077  0.0891 -0.3015
  126loPI   C1B 2013   9.657   9.522   9.259  0.0339 -0.1390 -0.2168
  126loPI   C2B 2014   9.610   9.546   8.832 -0.1229  0.2506 -0.3378
  126loPI   C3B 2015   9.786   9.589   8.502 -0.3489 -0.1754  0.0420
  126loPI   C4B 2016   9.885   9.614   8.105  0.0412 -0.0798 -0.0621
  127loPI    C1 2017   6.061  12.960  10.046  0.3111  0.2080  0.0391
  127loPI    C2 2018   6.031  13.157  10.393 -0.2882 -0.0594  0.1519
  127loPI    C3 2019   6.123  13.355  10.058 -0.0284  0.2564  0.4033
  127loPI   PO4 2020   6.250  12.727  10.149 -0.1120  0.1648  0.1137
  127loPI   GL1 2021   6.656  12.804  10.103 -0.0743 -0.2989  0.1743
  127loPI   GL2 2022   6.797  13.056   9.814  0.0572  0.0491 -0.0273
  127loPI   C1A 2023   6.339  13.005   9.609  0.1822 -0.0141  0.2566
  127loPI   C2A 2024   6.269  13.024   9.185 -0.4015 -0.0673  0.1323
  127loPI   C3A 2025   6.348  13.044   8.822  0.0416 -0.1807  0.3677
  127loPI   C4A 2026   6.379  13.109   8.443 -0.2831  0.1044 -0.2503
  127loPI   C5A 2027   6.353  13.335   8.062 -0.0965 -0.1177  0.0861
  127loPI   C6A 2028   6.327  13.537   7.706 -0.2264  0.1584 -0.2440
  127loPI   C1B 2029   6.808  13.142   9.373 -0.1350 -0.3689 -0.1723
  127loPI   C2B 2030   6.817  13.208   8.922 -0.1447 -0.0105  0.0177
  127loPI   C3B 2031   6.912  13.252   8.446  0.0258 -0.1471 -0.0787
  127loPI   C4B 2032   6.838  13.108   8.022 -0.0266  0.1678 -0.0076
  128loPI    C1 2033   2.208   9.699  10.310  0.0628 -0.2093  0.1166
  128loPI    C2 2034   2.417   9.666  10.650  0.0922 -0.2617  0.0934
  128loPI    C3 2035   2.017   9.652  10.659  0.0898 -0.1666  0.1372
  128loPI   PO4 2036   2.055   9.909  10.039  0.3519  0.2579  0.0245
  128loPI   GL1 2037   1.745   9.932   9.638  0.2923  0.0895 -0.1992
  128loPI   GL2 2038   1.876  10.235   9.701  0.2799 -0.3825 -0.2861
  128loPI   C1A 2039   1.628   9.807   9.276 -0.0931  0.3148  0.1221
  128loPI   C2A 2040   1.432   9.833   8.950  0.1946  0.0336 -0.0172
  128loPI   C3A 2041   1.285   9.998   8.603  0.0631 -0.1275  0.2282
  128loPI   C4A 2042   1.461  10.048   8.092 -0.0312 -0.2083 -0.1689
  128loPI   C5A 2043   1.366  10.348   7.714 -0.1079  0.0327  0.0660
  128loPI   C6A 2044   1.449  10.651   7.461 -0.2501  0.1838 -0.0424
  128loPI   C1B 2045   1.687  10.259   9.174 -0.1145 -0.1844  0.3193
  128loPI   C2B 2046   1.589  10.383   8.743 -0.0686 -0.0110 -0.4729
  128loPI   C3B 2047   1.682  10.455   8.333  0.3614  0.0595  0.0618
  128loPI   C4B 2048   1.716  10.606   7.950 -0.1699 -0.1690  0.0667
  129loPI    C1 2049   3.231   2.551  10.592  0.1533 -0.1329  0.1727
  129loPI    C2 2050   3.109   2.919  10.691 -0.0916 -0.1446 -0.0767
  129loPI    C3 2051   3.391   2.738  10.908  0.0183  0.1820  0.0591
  129loPI   PO4 2052   3.096   2.574  10.287  0.1989 -0.1526 -0.0960
  129loPI   GL1 2053   2.883   2.527   9.938  0.3372 -0.3544 -0.3116
  129loPI   GL2 2054   3.055   2.292   9.847  0.1962  0.1078  0.0286
  129loPI   C1A 2055   2.675   2.768   9.628  0.1536  0.0531 -0.2192
  129loPI   C2A 2056   2.704   2.711   9.147  0.0989  0.2345 -0.1291
  129loPI   C3A 2057   2.773   2.710   8.665 -0.1167 -0.1153  0.2392
  129loPI   C4A 2058   3.035   2.626   8.379 -0.3614 -0.1163 -0.0474
  129loPI   C5A 2059   3.435   2.448   8.299 -0.1409 -0.0467 -0.1024
  129loPI   C6A 2060   3.878   2.291   8.107  0.0737 -0.1347 -0.1057
  129loPI   C1B 2061   3.016   2.248   9.295 -0.0293  0.2218  0.1948
  129loPI   C2B 2062   3.092   2.214   8.665  0.2281 -0.0322  0.0913
  129loPI   C3B 2063   3.113   1.942   8.302  0.1348 -0.0553 -0.2006
  129loPI   C4B 2064   3.020   1.718   7.937 -0.2073 -0.0677 -0.1721
  130loPI    C1 2065  10.131   6.440  10.140 -0.1424 -0.1444 -0.0089
  130loPI    C2 2066  10.479   6.438   9.944 -0.0522 -0.1016  0.1492
  130loPI    C3 2067  10.475   6.443  10.344 -0.2346 -0.0093  0.1471
  130loPI   PO4 2068   9.991   6.361   9.865  0.1038  0.1254 -0.0346
  130loPI   GL1 2069  10.057   6.358   9.421 -0.1399  0.0452 -0.0657
  130loPI   GL2 2070  10.326   6.183   9.521  0.4274 -0.2070  0.0540
  130loPI   C1A 2071  10.244   6.250   8.972  0.1959 -0.0864  0.1531
  130loPI   C2A 2072  10.184   6.221   8.594 -0.2658  0.0576 -0.1932
  130loPI   C3A 2073  10.118   6.445   8.221 -0.1276  0.2712  0.3920
  130loPI   C4A 2074   9.879   6.429   7.786  0.1412 -0.0680 -0.1121
  130loPI   C5A 2075   9.380   6.502   7.713 -0.0761 -0.0973  0.0619
  130loPI   C6A 2076   8.969   6.245   7.666 -0.0729  0.1049 -0.1270
  130loPI   C1B 2077  10.727   6.282   9.192 -0.0366 -0.3266 -0.1993
  130loPI   C2B 2078  10.741   6.120   8.731 -0.2455 -0.1635 -0.1639
  130loPI   C3B 2079  10.961   6.035   8.318 -0.0934 -0.1061  0.3889
  130loPI   C4B 2080  10.937   6.017   7.927  0.0689 -0.0988 -0.2770
  131loPI    C1 2081  10.042  10.634  10.589 -0.0083  0.0992 -0.0147
  131loPI    C2 2082   9.749  10.605  10.860  0.0454  0.0332  0.0367
  131loPI    C3 2083  10.037  10.328  10.847  0.1385  0.1299  0.0252
  131loPI   PO4 2084   9.944  10.691  10.374 -0.0320  0.1065  0.3324
  131loPI   GL1 2085   9.905  10.628   9.957  0.3952 -0.1280 -0.0944
  131loPI   GL2 2086   9.572  10.497   9.975  0.0199 -0.1609 -0.1365
  131loPI   C1A 2087   9.757  10.479   9.407  0.0271  0.2733 -0.1717
  131loPI   C2A 2088   9.745  10.635   9.004  0.0243  0.2571 -0.0083
  131loPI   C3A 2089   9.765  10.777   8.679  0.1788 -0.1781 -0.1977
  131loPI   C4A 2090   9.756  10.835   8.213  0.2103  0.0761 -0.1286
  131loPI   C5A 2091   9.428  10.995   7.871 -0.1942 -0.0191 -0.1463
  131loPI   C6A 2092   8.994  11.099   7.817  0.0997  0.1195  0.2320
  131loPI   C1B 2093   9.437  10.761   9.766 -0.0961 -0.1581  0.4244
  131loPI   C2B 2094   9.226  10.935   9.364  0.3050 -0.0790 -0.0799
  131loPI   C3B 2095   9.336  10.888   8.903  0.1241 -0.1246 -0.0694
  131loPI   C4B 2096   9.388  11.084   8.472 -0.1540  0.4001 -0.0005
  132loPI    C1 2097   7.679   3.621  10.397 -0.0740 -0.0589  0.0111
  132loPI    C2 2098   7.945   3.612  10.098 -0.1716  0.1431 -0.0842
  132loPI    C3 2099   7.982   3.883  10.390  0.0649 -0.2108  0.2241
  132loPI   PO4 2100   7.428   3.542  10.268  0.0714 -0.3731  0.3378
  132loPI   GL1 2101   7.153   3.417   9.972 -0.2058  0.1079  0.0465
  132loPI   GL2 2102   6.839   3.331   9.798  0.1498  0.0059  0.1183
  132loPI   C1A 2103   7.442   3.485   9.561 -0.0494  0.0384  0.0909
  132loPI   C2A 2104   7.398   3.605   9.097 -0.2847 -0.1164 -0.0233
  132loPI   C3A 2105   7.519   3.652   8.650  0.1687  0.2387 -0.2395
  132loPI   C4A 2106   7.451   3.356   8.394  0.1017  0.3586  0.1076
  132loPI   C5A 2107   7.528   3.344   7.917 -0.0417 -0.0228  0.0827
  132loPI   C6A 2108   7.798   3.179   7.702  0.0434 -0.0726 -0.3066
  132loPI   C1B 2109   6.865   3.553   9.399  0.2671 -0.1073  0.0421
  132loPI   C2B 2110   6.914   3.657   8.936 -0.0624 -0.1033 -0.1864
  132loPI   C3B 2111   7.059   3.610   8.499  0.1121 -0.2369  0.2125
  132loPI   C4B 2112   7.292   3.741   8.098  0.1967 -0.2973 -0.1925
  133loPI    C1 2113   0.611   8.319  10.745 -0.1647 -0.0967 -0.2445
  133loPI    C2 2114   0.318   8.459  10.513 -0.0653  0.3702 -0.0986
  133loPI    C3 2115   0.306   8.519  10.908 -0.0706 -0.1357 -0.0159
  133loPI   PO4 2116   0.698   8.102  10.619 -0.0003 -0.0137 -0.1764
  133loPI   GL1 2117   0.563   8.173  10.188 -0.2289 -0.0729 -0.1139
  133loPI   GL2 2118   0.517   7.928  10.094  0.0572  0.0766  0.1353
  133loPI   C1A 2119   0.366   8.397   9.855 -0.0937  0.3053 -0.0163
  133loPI   C2A 2120   0.308   8.436   9.410 -0.1088  0.0609  0.0958
  133loPI   C3A 2121   0.231   8.389   8.947 -0.2679 -0.1740 -0.0157
  133loPI   C4A 2122   0.114   8.387   8.618  0.2958 -0.0778 -0.3374
  133loPI   C5A 2123   0.033   8.470   8.210  0.0535  0.0945 -0.2685
  133loPI   C6A 2124  -0.300   8.610   7.830  0.0178 -0.1798  0.1733
  133loPI   C1B 2125   0.542   7.970   9.667 -0.0444 -0.0695 -0.0973
  133loPI   C2B 2126   0.412   7.927   9.252  0.1088 -0.0050 -0.0223
  133loPI   C3B 2127   0.377   7.877   8.787  0.0636  0.0866 -0.0605
  133loPI   C4B 2128   0.616   7.764   8.384 -0.4264  0.2442  0.2649
  134loPI    C1 2129  16.682   8.724  10.281  0.1817 -0.2216  0.1135
  134loPI    C2 2130  16.414   8.639   9.996  0.1596  0.0143  0.0623
  134loPI    C3 2131  16.332   8.558  10.379  0.0374  0.0360  0.0409
  134loPI   PO4 2132  16.954   8.485  10.191  0.2137  0.3930  0.3022
  134loPI   GL1 2133  17.186   8.049  10.143 -0.2466 -0.0804 -0.1315
  134loPI   GL2 2134  17.303   7.743  10.229 -0.0816 -0.1799  0.1040
  134loPI   C1A 2135  17.062   8.069   9.726  0.0840  0.3285 -0.0944
  134loPI   C2A 2136  17.086   8.038   9.353 -0.1893 -0.0899 -0.0790
  134loPI   C3A 2137  16.962   8.105   8.865  0.1902  0.0560  0.2000
  134loPI   C4A 2138  16.810   8.045   8.506 -0.1793  0.1317  0.1671
  134loPI   C5A 2139  16.942   8.080   8.021 -0.0083 -0.3052  0.1389
  134loPI   C6A 2140  16.999   8.206   7.632 -0.0432 -0.0029  0.0079
  134loPI   C1B 2141  17.356   7.518   9.841  0.2869 -0.2254 -0.0353
  134loPI   C2B 2142  17.324   7.578   9.517  0.0402 -0.0141 -0.0698
  134loPI   C3B 2143  17.250   7.573   9.096  0.0196 -0.1240  0.3410
  134loPI   C4B 2144  17.135   7.639   8.672  0.2104  0.1235 -0.0968
  135loPI    C1 2145   8.100  12.535  10.306  0.2451  0.0339  0.0913
  135loPI    C2 2146   7.889  12.365  10.012  0.1027  0.4317 -0.0426
  135loPI    C3 2147   8.267  12.252  10.078  0.0407  0.1315 -0.1846
  135loPI   PO4 2148   8.163  12.802  10.243  0.0599 -0.2289 -0.0174
  135loPI   GL1 2149   7.909  13.098  10.094  0.0346  0.3607  0.4352
  135loPI   GL2 2150   7.683  12.857  10.037  0.1616  0.2252 -0.2485
  135loPI   C1A 2151   7.954  13.127   9.665  0.1586 -0.1790 -0.3484
  135loPI   C2A 2152   7.944  13.067   9.143 -0.1250  0.0131 -0.2024
  135loPI   C3A 2153   7.985  13.175   8.716  0.1448  0.0876 -0.1945
  135loPI   C4A 2154   7.989  13.027   8.280 -0.3331  0.0687  0.1518
  135loPI   C5A 2155   8.213  12.631   8.175  0.0543  0.3343  0.1671
  135loPI   C6A 2156   8.502  12.410   8.488 -0.1359 -0.0585 -0.3997
  135loPI   C1B 2157   7.643  12.759   9.623  0.0653  0.1602 -0.0547
  135loPI   C2B 2158   7.562  12.615   9.226  0.0560  0.2829 -0.2135
  135loPI   C3B 2159   7.608  12.818   8.824  0.0887 -0.3306  0.0282
  135loPI   C4B 2160   7.690  12.741   8.512  0.1673 -0.1595  0.1208
  136loPI    C1 2161  13.904  15.201  10.623  0.0239 -0.1996 -0.2343
  136loPI    C2 2162  14.258  15.188  10.809  0.0387 -0.1315 -0.2574
  136loPI    C3 2163  14.014  15.500  10.865 -0.0846 -0.2512 -0.1202
  136loPI   PO4 2164  13.892  15.145  10.323  0.4482  0.0865  0.2561
  136loPI   GL1 2165  14.037  15.302   9.918  0.3981 -0.1297 -0.3589
  136loPI   GL2 2166  14.365  15.147   9.979 -0.0206 -0.0730 -0.1767
  136loPI   C1A 2167  13.897  15.304   9.462 -0.1267 -0.0179  0.2389
  136loPI   C2A 2168  13.981  15.196   9.049 -0.0507 -0.2952 -0.0770
  136loPI   C3A 2169  14.015  15.082   8.684  0.1738  0.0818 -0.0918
  136loPI   C4A 2170  14.065  15.118   8.144 -0.1494  0.3338 -0.4019
  136loPI   C5A 2171  14.030  15.342   7.851 -0.1158  0.2965 -0.1000
  136loPI   C6A 2172  13.935  15.792   7.887 -0.1560  0.0495 -0.4613
  136loPI   C1B 2173  14.382  15.176   9.544 -0.2487 -0.1885 -0.3666
  136loPI   C2B 2174  14.505  15.115   9.054 -0.2530  0.0201  0.0973
  136loPI   C3B 2175  14.472  15.204   8.589 -0.3038 -0.6579  0.2371
  136loPI   C4B 2176  14.669  15.301   8.355  0.0709  0.0010  0.1339
  137loPI    C1 2177  17.588  12.591  10.774  0.0972  0.1316 -0.0781
  137loPI    C2 2178  17.883  12.727  11.008  0.1014 -0.1921  0.1106
  137loPI    C3 2179  17.703  12.380  11.094 -0.3063 -0.0214 -0.0280
  137loPI   PO4 2180  17.735  12.658  10.538  0.0615 -0.2287 -0.1133
  137loPI   GL1 2181  17.594  12.661  10.160 -0.1203  0.0551 -0.2595
  137loPI   GL2 2182  17.406  12.929   9.994 -0.0304 -0.1219  0.0313
  137loPI   C1A 2183  17.460  12.506   9.728  0.1482  0.1945 -0.2255
  137loPI   C2A 2184  17.317  12.378   9.386 -0.1166 -0.1966  0.1093
  137loPI   C3A 2185  17.308  12.243   8.994 -0.1906  0.3277  0.2623
  137loPI   C4A 2186  17.495  12.167   8.740  0.0909  0.0474  0.0584
  137loPI   C5A 2187  17.749  12.174   8.351  0.4661  0.1894 -0.1282
  137loPI   C6A 2188  17.943  12.114   7.987  0.0043 -0.1451 -0.0022
  137loPI   C1B 2189  17.424  12.990   9.609 -0.1010  0.1552 -0.1959
  137loPI   C2B 2190  17.236  12.846   9.157  0.1394  0.0418  0.0075
  137loPI   C3B 2191  17.358  12.721   8.776 -0.0725  0.2585 -0.0906
  137loPI   C4B 2192  17.272  12.552   8.429  0.0256  0.1151 -0.2807
  138loPI    C1 2193   2.748   7.282  10.685  0.0734 -0.1863 -0.3303
  138loPI    C2 2194   2.439   7.061  10.811 -0.0920  0.1622 -0.1077
  138loPI    C3 2195   2.814   6.939  10.880 -0.1800 -0.0405  0.0239
  138loPI   PO4 2196   2.707   7.313  10.492 -0.1617 -0.0949  0.0502
  138loPI   GL1 2197   2.690   7.264  10.054  0.2621  0.0831  0.0105
  138loPI   GL2 2198   2.672   7.444   9.841 -0.1603  0.0290  0.1868
  138loPI   C1A 2199   2.420   7.140   9.591 -0.1597  0.0560 -0.0345
  138loPI   C2A 2200   2.423   7.030   9.109  0.0671 -0.1860 -0.0309
  138loPI   C3A 2201   2.395   6.859   8.749  0.1196  0.0384  0.2870
  138loPI   C4A 2202   2.336   6.844   8.287  0.0177 -0.3749  0.1357
  138loPI   C5A 2203   2.166   7.100   7.975 -0.2299  0.1244 -0.0422
  138loPI   C6A 2204   2.212   7.028   7.534  0.1226 -0.2817  0.0101
  138loPI   C1B 2205   2.863   7.431   9.434 -0.0953  0.3185  0.1337
  138loPI   C2B 2206   2.770   7.406   9.114 -0.0431  0.2753  0.2209
  138loPI   C3B 2207   2.625   7.327   8.637 -0.3031 -0.0776 -0.0594
  138loPI   C4B 2208   2.620   7.310   8.197  0.0334  0.3721  0.0690
  139loPI    C1 2209   6.338   9.178  10.475  0.0002  0.0454 -0.2117
  139loPI    C2 2210   6.017   9.333  10.657  0.1798  0.1166  0.0496
  139loPI    C3 2211   6.372   9.515  10.688  0.2482  0.0374 -0.2357
  139loPI   PO4 2212   6.332   9.159  10.238 -0.0817  0.2357 -0.0771
  139loPI   GL1 2213   6.156   9.264   9.855  0.1226 -0.0913 -0.1952
  139loPI   GL2 2214   5.923   9.167   9.825  0.3052  0.0289  0.1391
  139loPI   C1A 2215   6.171   9.350   9.398  0.2144 -0.1010 -0.0614
  139loPI   C2A 2216   6.226   9.455   9.019  0.2143 -0.1479 -0.0625
  139loPI   C3A 2217   6.405   9.442   8.650  0.0861  0.0069 -0.1915
  139loPI   C4A 2218   6.306   9.223   8.347  0.0543 -0.1996  0.1674
  139loPI   C5A 2219   6.352   9.032   7.997 -0.2906  0.2108  0.2993
  139loPI   C6A 2220   6.323   9.075   7.569 -0.4646 -0.0560  0.2141
  139loPI   C1B 2221   5.822   8.949   9.442  0.0488  0.0991 -0.3566
  139loPI   C2B 2222   5.947   8.945   9.002  0.0838  0.0876  0.0625
  139loPI   C3B 2223   5.954   8.938   8.611  0.2295  0.0565  0.1447
  139loPI   C4B 2224   5.756   8.667   8.204 -0.1304  0.1521  0.4264
  140loPI    C1 2225  13.168   4.056  10.504 -0.0683  0.0779 -0.0683
  140loPI    C2 2226  13.441   4.134  10.786  0.1088  0.1225 -0.2502
  140loPI    C3 2227  13.095   4.334  10.783 -0.0093 -0.0686  0.0950
  140loPI   PO4 2228  13.269   4.104  10.243  0.0285 -0.0157  0.0492
  140loPI   GL1 2229  13.352   4.286   9.926  0.3653  0.0543  0.0711
  140loPI   GL2 2230  13.104   4.407   9.860 -0.2333  0.0822 -0.1138
  140loPI   C1A 2231  13.529   4.279   9.499 -0.2396  0.1870  0.2091
  140loPI   C2A 2232  13.519   4.417   9.054 -0.0485  0.3749 -0.0538
  140loPI   C3A 2233  13.562   4.477   8.625  0.1658  0.1722  0.0403
  140loPI   C4A 2234  13.558   4.375   8.230 -0.0335  0.3948  0.1570
  140loPI   C5A 2235  13.592   4.421   7.797  0.0678 -0.2783  0.0929
  140loPI   C6A 2236  13.585   4.642   7.352  0.0073  0.1868  0.0767
  140loPI   C1B 2237  13.153   4.609   9.352  0.1903  0.0979  0.0134
  140loPI   C2B 2238  13.154   4.679   8.901  0.0642 -0.2796  0.2109
  140loPI   C3B 2239  13.324   4.951   8.532  0.1155  0.2911  0.1109
  140loPI   C4B 2240  13.481   4.874   8.151 -0.0987  0.0595  0.3900
  141loPI    C1 2241   0.872   7.375  11.040 -0.2622 -0.1970  0.0371
  141loPI    C2 2242   0.839   7.220  11.407  0.1335  0.2727  0.2833
  141loPI    C3 2243   1.178   7.174  11.200 -0.1193 -0.0677 -0.0705
  141loPI   PO4 2244   0.664   7.261  10.900 -0.0408  0.2001 -0.0522
  141loPI   GL1 2245   0.493   7.108  10.520  0.0703 -0.0115 -0.0632
  141loPI   GL2 2246   0.713   7.116  10.347 -0.1951  0.1521  0.2790
  141loPI   C1A 2247   0.285   6.995  10.113 -0.1363  0.2729  0.1707
  141loPI   C2A 2248   0.292   7.002   9.631 -0.4019 -0.0317 -0.0069
  141loPI   C3A 2249   0.315   6.974   9.228 -0.0762  0.1405 -0.0426
  141loPI   C4A 2250   0.339   7.026   8.806  0.1069  0.2328  0.0523
  141loPI   C5A 2251   0.297   6.807   8.392  0.1988  0.1058 -0.1094
  141loPI   C6A 2252   0.599   6.725   8.170  0.2102 -0.0079 -0.0356
  141loPI   C1B 2253   0.828   6.971   9.839 -0.0103  0.0726 -0.1373
  141loPI   C2B 2254   0.746   7.017   9.471 -0.1936 -0.1107 -0.2448
  141loPI   C3B 2255   0.839   6.999   9.055 -0.1508  0.1464  0.2247
  141loPI   C4B 2256   0.932   6.931   8.612 -0.1847  0.0115 -0.2389
  142loPI    C1 2257   0.022   5.790  10.889 -0.0087 -0.2298 -0.2682
  142loPI    C2 2258  -0.329   5.908  11.042  0.1379 -0.0407 -0.0723
  142loPI    C3 2259  -0.096   5.656  11.247  0.0742 -0.2440 -0.2462
  142loPI   PO4 2260   0.027   5.857  10.683 -0.1722  0.0501  0.4955
  142loPI   GL1 2261   0.014   6.044  10.343 -0.3474  0.0363 -0.2156
  142loPI   GL2 2262   0.343   5.985  10.211  0.1929 -0.0021  0.0335
  142loPI   C1A 2263  -0.102   5.771  10.046  0.2112  0.1633 -0.3208
  142loPI   C2A 2264  -0.120   5.693   9.671 -0.2144 -0.1535 -0.0889
  142loPI   C3A 2265  -0.051   5.670   9.252  0.0375  0.0461 -0.0074
  142loPI   C4A 2266  -0.066   5.634   8.855  0.0569  0.1055 -0.2086
  142loPI   C5A 2267   0.025   5.849   8.460  0.0741 -0.4152 -0.2355
  142loPI   C6A 2268  -0.139   5.983   7.977  0.4558  0.5069 -0.0182
  142loPI   C1B 2269   0.173   6.096   9.840 -0.1382 -0.2521 -0.1066
  142loPI   C2B 2270   0.101   6.157   9.422 -0.0609  0.2262  0.2297
  142loPI   C3B 2271   0.214   6.094   9.048  0.0271 -0.0810  0.0874
  142loPI   C4B 2272   0.375   6.164   8.708  0.3042 -0.0914 -0.0668
  143loPI    C1 2273  15.414   8.061  10.630 -0.0341  0.0188 -0.0526
  143loPI    C2 2274  15.296   7.771  10.381  0.1988 -0.1956  0.0828
  143loPI    C3 2275  15.105   7.826  10.727 -0.3562  0.3340 -0.2884
  143loPI   PO4 2276  15.430   8.260  10.495  0.0021 -0.0821 -0.0875
  143loPI   GL1 2277  15.559   8.427  10.074  0.1986  0.1743 -0.1902
  143loPI   GL2 2278  15.175   8.434  10.138 -0.3459  0.0022 -0.0633
  143loPI   C1A 2279  15.702   8.191   9.796  0.1423 -0.3601 -0.0329
  143loPI   C2A 2280  15.838   8.219   9.413 -0.3080  0.3298  0.1703
  143loPI   C3A 2281  15.785   8.250   8.939  0.1639  0.1593 -0.1102
  143loPI   C4A 2282  15.660   8.198   8.573 -0.0631  0.2459 -0.1242
  143loPI   C5A 2283  15.398   8.213   8.228  0.4035 -0.0625  0.0532
  143loPI   C6A 2284  15.211   8.261   7.839 -0.0170  0.0158 -0.2124
  143loPI   C1B 2285  15.201   8.074   9.903 -0.2232  0.1943 -0.1770
  143loPI   C2B 2286  15.286   8.037   9.440 -0.2309  0.4274 -0.0885
  143loPI   C3B 2287  15.216   8.026   9.032 -0.2626  0.1487  0.0132
  143loPI   C4B 2288  15.219   7.881   8.596  0.3323 -0.1958  0.0067
  144loPI    C1 2289   0.857   1.566  10.575  0.2760 -0.2883  0.0137
  144loPI    C2 2290   1.173   1.611  10.334  0.3437 -0.2152  0.1150
  144loPI    C3 2291   1.223   1.611  10.731  0.2072 -0.1292  0.1329
  144loPI   PO4 2292   0.753   1.327  10.479 -0.3865  0.2753  0.4089
  144loPI   GL1 2293   0.729   1.269  10.006  0.1004 -0.1339  0.1467
  144loPI   GL2 2294   0.436   1.369   9.857  0.2006 -0.1462  0.6225
  144loPI   C1A 2295   0.841   1.226   9.561  0.4434  0.2091  0.1082
  144loPI   C2A 2296   1.125   1.427   9.376 -0.0602  0.0622 -0.1257
  144loPI   C3A 2297   1.316   1.311   8.970 -0.1627  0.1094  0.1979
  144loPI   C4A 2298   1.292   1.143   8.604 -0.0880 -0.2381 -0.0337
  144loPI   C5A 2299   1.267   1.196   8.159  0.1067  0.0503  0.2342
  144loPI   C6A 2300   1.090   1.359   7.805  0.1189  0.2274  0.2134
  144loPI   C1B 2301   0.262   1.487   9.496  0.2765  0.2305 -0.0604
  144loPI   C2B 2302   0.283   1.488   8.987 -0.0252  0.5601  0.0051
  144loPI   C3B 2303   0.457   1.401   8.568  0.2956  0.0099  0.0098
  144loPI   C4B 2304   0.921   1.521   8.533  0.0510 -0.0491 -0.1032
  145loPI    C1 2305  13.855  15.671  10.452 -0.0168  0.0170 -0.0377
  145loPI    C2 2306  13.507  15.855  10.379  0.0000  0.1312  0.1636
  145loPI    C3 2307  13.660  15.855  10.749  0.0737 -0.1634  0.1359
  145loPI   PO4 2308  13.996  15.739  10.204  0.2107 -0.4350 -0.0476
  145loPI   GL1 2309  13.659  15.835   9.865  0.1587  0.2954  0.0250
  145loPI   GL2 2310  13.515  15.573   9.670  0.0630 -0.0623 -0.0445
  145loPI   C1A 2311  13.809  15.861   9.404 -0.1139 -0.3364 -0.1465
  145loPI   C2A 2312  13.759  15.736   9.095  0.0161 -0.0881 -0.0259
  145loPI   C3A 2313  13.891  15.593   8.765  0.1524  0.0064 -0.0140
  145loPI   C4A 2314  14.127  15.520   8.460  0.3512 -0.0802  0.0168
  145loPI   C5A 2315  14.394  15.634   8.147 -0.3416 -0.0144 -0.0352
  145loPI   C6A 2316  14.685  15.984   7.954  0.2967 -0.1253 -0.2047
  145loPI   C1B 2317  13.439  15.279   9.297 -0.0607 -0.1491  0.2564
  145loPI   C2B 2318  13.429  15.389   8.916 -0.0010 -0.1282  0.1327
  145loPI   C3B 2319  13.473  15.363   8.512 -0.1509 -0.3284  0.1427
  145loPI   C4B 2320  13.506  15.527   8.051 -0.2378 -0.0477 -0.1659
  146loPI    C1 2321   6.999   3.941  10.178 -0.2493  0.1148 -0.0980
  146loPI    C2 2322   7.311   4.121  10.353 -0.0303 -0.0667 -0.2944
  146loPI    C3 2323   6.961   4.096  10.544  0.0648  0.1676 -0.0843
  146loPI   PO4 2324   7.063   4.045   9.914 -0.1850 -0.2212 -0.1053
  146loPI   GL1 2325   7.133   3.871   9.671 -0.1325  0.0650 -0.0597
  146loPI   GL2 2326   7.374   4.004   9.527 -0.0246 -0.0130  0.0211
  146loPI   C1A 2327   7.018   4.035   9.242 -0.2117 -0.0493  0.0148
  146loPI   C2A 2328   6.993   4.143   8.761  0.1386  0.0657 -0.0396
  146loPI   C3A 2329   7.049   4.264   8.273 -0.1386 -0.2155  0.2370
  146loPI   C4A 2330   7.097   4.423   7.951  0.1711 -0.0736  0.2188
  146loPI   C5A 2331   7.399   4.336   7.549  0.4192 -0.0616 -0.3706
  146loPI   C6A 2332   7.745   4.126   7.363 -0.0226  0.1409 -0.0906
  146loPI   C1B 2333   7.500   4.090   8.955  0.1555  0.2188 -0.2825
  146loPI   C2B 2334   7.452   4.110   8.550 -0.1120 -0.1292  0.2926
  146loPI   C3B 2335   7.478   4.550   8.221 -0.1500 -0.0461 -0.0671
  146loPI   C4B 2336   7.621   4.708   7.901  0.0396  0.2058 -0.0144
  147loPI    C1 2337   7.172  11.645  10.474 -0.1371  0.0026  0.0455
  147loPI    C2 2338   7.284  11.556  10.848 -0.0957  0.0997  0.0565
  147loPI    C3 2339   6.900  11.637  10.768 -0.0991  0.1110  0.0842
  147loPI   PO4 2340   7.184  11.444  10.183 -0.2449 -0.0333  0.1646
  147loPI   GL1 2341   7.092  11.219   9.827 -0.0577 -0.0858  0.0109
  147loPI   GL2 2342   6.804  11.192   9.676 -0.1301 -0.1288  0.0001
  147loPI   C1A 2343   7.147  11.270   9.315  0.0211  0.1048 -0.1136
  147loPI   C2A 2344   7.219  11.380   8.905 -0.0274  0.3533 -0.2750
  147loPI   C3A 2345   7.277  11.441   8.422 -0.1896 -0.3853  0.0635
  147loPI   C4A 2346   7.226  11.616   8.083  0.2710  0.0436  0.1296
  147loPI   C5A 2347   7.245  11.842   7.720  0.0989  0.1956 -0.0723
  147loPI   C6A 2348   6.937  12.227   7.603  0.2100 -0.1722  0.0372
  147loPI   C1B 2349   6.613  11.179   9.277 -0.2324  0.0349  0.1759
  147loPI   C2B 2350   6.556  11.125   8.864  0.0159 -0.1823 -0.2469
  147loPI   C3B 2351   6.454  10.949   8.507  0.0536  0.2126  0.1524
  147loPI   C4B 2352   6.617  10.674   8.414  0.0319 -0.1871  0.2937
  148loPI    C1 2353   0.794  11.521  10.275 -0.1205 -0.0458 -0.1815
  148loPI    C2 2354   1.171  11.387  10.288 -0.0013  0.2787 -0.1925
  148loPI    C3 2355   0.935  11.349  10.608  0.0388  0.0727 -0.1862
  148loPI   PO4 2356   0.715  11.496  10.019 -0.0461 -0.2751  0.1176
  148loPI   GL1 2357   0.756  11.691   9.746 -0.1273 -0.1325  0.2254
  148loPI   GL2 2358   0.477  11.915   9.914 -0.2078 -0.0239 -0.0305
  148loPI   C1A 2359   0.525  11.860   9.406  0.0107  0.4592  0.0752
  148loPI   C2A 2360   0.478  11.813   8.992  0.1427  0.2002  0.3607
  148loPI   C3A 2361   0.495  11.649   8.573  0.1159  0.0130  0.1898
  148loPI   C4A 2362   0.805  11.687   8.256  0.1608 -0.0656  0.0140
  148loPI   C5A 2363   0.812  11.656   7.782 -0.0532 -0.0090  0.0875
  148loPI   C6A 2364   1.131  11.523   7.433  0.1796 -0.1189 -0.1145
  148loPI   C1B 2365   0.184  12.162   9.744  0.1809  0.4303  0.0878
  148loPI   C2B 2366   0.094  12.210   9.368  0.0265  0.0863  0.1564
  148loPI   C3B 2367   0.067  12.081   8.895  0.1296 -0.0190  0.0349
  148loPI   C4B 2368   0.126  12.060   8.470  0.1227  0.0459 -0.1642
  149loPI    C1 2369  12.713  16.665  10.770  0.1732 -0.0226  0.2142
  149loPI    C2 2370  12.396  16.489  10.937 -0.0677  0.2187  0.0210
  149loPI    C3 2371  12.623  16.739  11.152 -0.0858  0.1481  0.1228
  149loPI   PO4 2372  12.580  16.760  10.540 -0.0198  0.4088 -0.2057
  149loPI   GL1 2373  12.519  16.630  10.142  0.4592 -0.3290  0.0503
  149loPI   GL2 2374  12.260  16.709   9.911 -0.2585 -0.0484 -0.0759
  149loPI   C1A 2375  12.744  16.771   9.822  0.2117 -0.1458  0.3707
  149loPI   C2A 2376  12.775  16.686   9.383 -0.2001  0.1936  0.2156
  149loPI   C3A 2377  12.674  16.667   8.966  0.4085 -0.1090  0.0108
  149loPI   C4A 2378  12.810  16.968   8.641 -0.1846  0.0803  0.0725
  149loPI   C5A 2379  13.002  17.096   8.299 -0.1271 -0.1001  0.2895
  149loPI   C6A 2380  13.186  17.500   8.096 -0.0658  0.0168  0.2035
  149loPI   C1B 2381  12.285  16.807   9.508 -0.0666 -0.1190 -0.2070
  149loPI   C2B 2382  12.371  16.975   9.163 -0.0200 -0.2510 -0.1067
  149loPI   C3B 2383  12.316  16.961   8.693 -0.0274  0.0432 -0.3472
  149loPI   C4B 2384  12.398  17.121   8.268  0.2147 -0.0697 -0.0951
  150loPI    C1 2385  15.884   8.741  10.968  0.1607  0.1660  0.0414
  150loPI    C2 2386  15.797   8.362  11.060 -0.0143  0.1669 -0.1140
  150loPI    C3 2387  16.045   8.573  11.293 -0.0396  0.0071  0.0602
  150loPI   PO4 2388  15.979   8.778  10.697  0.0413  0.4412  0.1278
  150loPI   GL1 2389  15.875   8.852  10.344 -0.1304  0.1298  0.3102
  150loPI   GL2 2390  15.908   9.220  10.180  0.2760  0.0382  0.0433
  150loPI   C1A 2391  15.950   8.755   9.954 -0.2172  0.1059  0.2054
  150loPI   C2A 2392  16.271   8.600   9.523 -0.3654 -0.2476 -0.2134
  150loPI   C3A 2393  16.125   8.596   9.101  0.1111 -0.0919  0.0673
  150loPI   C4A 2394  16.023   8.617   8.689 -0.2841 -0.0446  0.0247
  150loPI   C5A 2395  15.989   8.439   8.265 -0.2651 -0.0868 -0.0724
  150loPI   C6A 2396  15.941   8.112   7.935  0.0219 -0.1709  0.0607
  150loPI   C1B 2397  15.672   9.248   9.825 -0.1643 -0.0421 -0.2836
  150loPI   C2B 2398  15.402   9.233   9.426 -0.1195  0.3267  0.0382
  150loPI   C3B 2399  15.203   9.026   9.071  0.1153  0.0894  0.0670
  150loPI   C4B 2400  14.930   8.723   9.135 -0.2192  0.1844  0.1775
  151loPI    C1 2401   8.924   2.247  10.364 -0.1408 -0.0428 -0.1088
  151loPI    C2 2402   8.913   2.002  10.681 -0.3366 -0.1379 -0.1873
  151loPI    C3 2403   9.005   2.389  10.730 -0.0585 -0.2177 -0.0582
  151loPI   PO4 2404   8.812   2.076  10.216 -0.0214 -0.1746 -0.0943
  151loPI   GL1 2405   8.790   1.737   9.882 -0.1583 -0.0611  0.0359
  151loPI   GL2 2406   8.507   1.703   9.967  0.0071 -0.2282 -0.2025
  151loPI   C1A 2407   8.817   1.648   9.449 -0.0022 -0.0764  0.2057
  151loPI   C2A 2408   8.821   1.436   9.111 -0.0286 -0.0980 -0.3076
  151loPI   C3A 2409   8.743   1.502   8.747 -0.1904  0.0908  0.3362
  151loPI   C4A 2410   8.611   1.441   8.342 -0.1185  0.1750 -0.4155
  151loPI   C5A 2411   8.626   1.005   8.103  0.0458 -0.0492 -0.1262
  151loPI   C6A 2412   8.295   0.621   8.145  0.0332  0.0051  0.2612
  151loPI   C1B 2413   8.378   1.519   9.565  0.0598  0.0078  0.0285
  151loPI   C2B 2414   8.267   1.497   9.068 -0.0493 -0.2344  0.0234
  151loPI   C3B 2415   8.296   1.203   8.834  0.1942  0.2144 -0.3800
  151loPI   C4B 2416   8.277   1.075   8.459  0.1835 -0.0273 -0.2072
  152loPI    C1 2417  14.174   8.095  10.349 -0.0514 -0.0937 -0.1048
  152loPI    C2 2418  13.934   7.834  10.164  0.0433 -0.2621  0.0074
  152loPI    C3 2419  13.934   7.857  10.563  0.0831 -0.1358  0.0004
  152loPI   PO4 2420  14.115   8.318  10.277  0.0110 -0.0044 -0.2297
  152loPI   GL1 2421  13.866   8.479  10.008 -0.1158  0.2407 -0.1561
  152loPI   GL2 2422  13.899   8.821   9.843  0.1731  0.0725  0.0105
  152loPI   C1A 2423  13.908   8.280   9.674 -0.2686 -0.2758 -0.2891
  152loPI   C2A 2424  13.998   7.924   9.528  0.0838  0.1453  0.1047
  152loPI   C3A 2425  14.284   7.630   9.324 -0.2523  0.1334 -0.1604
  152loPI   C4A 2426  14.261   7.539   8.987 -0.1569  0.0722  0.2181
  152loPI   C5A 2427  14.296   7.367   8.521  0.1153  0.0495 -0.1018
  152loPI   C6A 2428  14.248   6.959   8.373 -0.1993  0.0369 -0.0530
  152loPI   C1B 2429  13.714   8.726   9.491  0.0549  0.0619 -0.1863
  152loPI   C2B 2430  13.629   8.731   9.035  0.0061  0.0045 -0.0261
  152loPI   C3B 2431  13.465   8.800   8.588 -0.0418 -0.2475 -0.0652
  152loPI   C4B 2432  13.593   8.943   8.244 -0.0102 -0.0804  0.2971
  153loPI    C1 2433   4.008  16.542  10.794 -0.0508  0.1457 -0.3018
  153loPI    C2 2434   3.653  16.442  10.640 -0.1779  0.1276 -0.0035
  153loPI    C3 2435   3.688  16.511  11.032  0.2305 -0.2656  0.0375
  153loPI   PO4 2436   4.257  16.486  10.651 -0.5272  0.1854 -0.2904
  153loPI   GL1 2437   4.323  16.588  10.239 -0.3151  0.0959 -0.0376
  153loPI   GL2 2438   4.474  16.320  10.090 -0.0569 -0.0567 -0.0673
  153loPI   C1A 2439   4.524  16.856   9.906  0.1546  0.1574  0.0213
  153loPI   C2A 2440   4.556  17.001   9.465  0.0657 -0.0614 -0.0047
  153loPI   C3A 2441   4.699  16.913   9.069 -0.1031 -0.2348  0.0137
  153loPI   C4A 2442   4.766  16.866   8.597  0.0286 -0.1538  0.3477
  153loPI   C5A 2443   5.111  17.054   8.257 -0.1631  0.2868  0.2636
  153loPI   C6A 2444   5.250  17.056   7.883 -0.0496  0.1243 -0.4007
  153loPI   C1B 2445   4.415  16.193   9.614 -0.0017  0.1250 -0.0038
  153loPI   C2B 2446   4.451  16.092   9.227 -0.0284  0.2584 -0.2927
  153loPI   C3B 2447   4.442  16.140   8.741 -0.1496  0.1980 -0.1398
  153loPI   C4B 2448   4.577  16.393   8.364 -0.2164 -0.1439 -0.2994
  154loPI    C1 2449  16.440  11.659  10.717 -0.2057  0.0358 -0.0216
  154loPI    C2 2450  16.094  11.560  10.542 -0.3075 -0.0338  0.2141
  154loPI    C3 2451  16.335  11.274  10.682 -0.2136  0.0203  0.1644
  154loPI   PO4 2452  16.447  11.884  10.557 -0.0250  0.0568 -0.0573
  154loPI   GL1 2453  16.302  11.953  10.103  0.0724 -0.0452  0.0300
  154loPI   GL2 2454  15.970  11.938  10.204 -0.0224  0.2224 -0.0998
  154loPI   C1A 2455  16.574  11.842   9.704  0.1564  0.0471 -0.0928
  154loPI   C2A 2456  16.714  11.859   9.306  0.0659 -0.0826 -0.2955
  154loPI   C3A 2457  16.620  11.801   8.965 -0.1390  0.1618 -0.0838
  154loPI   C4A 2458  16.438  11.747   8.543 -0.0920 -0.1032 -0.2020
  154loPI   C5A 2459  16.178  11.657   8.158 -0.0739 -0.2744 -0.0415
  154loPI   C6A 2460  16.052  11.415   7.735 -0.0404 -0.1075  0.1351
  154loPI   C1B 2461  15.968  11.922   9.734  0.1373  0.3223  0.0301
  154loPI   C2B 2462  16.062  11.884   9.309 -0.1513  0.0789 -0.0494
  154loPI   C3B 2463  16.061  11.751   8.900  0.0517  0.0490 -0.1838
  154loPI   C4B 2464  15.963  11.471   8.620  0.0902  0.1392 -0.1446
  155loPI    C1 2465   7.359   7.966  10.312 -0.0574 -0.0024 -0.1579
  155loPI    C2 2466   7.716   8.004  10.488 -0.0771  0.1458 -0.1491
  155loPI    C3 2467   7.395   7.907  10.706 -0.0694  0.1591 -0.1319
  155loPI   PO4 2468   7.450   7.945  10.078  0.0799  0.1489 -0.2123
  155loPI   GL1 2469   7.642   8.096   9.751  0.0145  0.3053 -0.3210
  155loPI   GL2 2470   7.761   8.361   9.884 -0.1710  0.4807  0.1619
  155loPI   C1A 2471   7.757   8.097   9.377 -0.0497 -0.1259 -0.2263
  155loPI   C2A 2472   7.712   8.157   8.993 -0.0837  0.0287 -0.0541
  155loPI   C3A 2473   7.786   8.218   8.561 -0.0170 -0.1092 -0.1202
  155loPI   C4A 2474   7.873   8.281   8.084 -0.1927  0.2804  0.0823
  155loPI   C5A 2475   7.909   8.559   7.697  0.2060  0.2478 -0.0235
  155loPI   C6A 2476   7.853   9.030   7.510  0.0204 -0.1832 -0.0486
  155loPI   C1B 2477   7.823   8.613   9.455  0.4123  0.1450  0.1573
  155loPI   C2B 2478   7.774   8.621   8.971  0.0137 -0.1252  0.2671
  155loPI   C3B 2479   7.790   8.716   8.495  0.0430  0.1431  0.0238
  155loPI   C4B 2480   7.869   8.893   8.064 -0.2058 -0.2697 -0.3725
  156loPI    C1 2481  17.115   7.366  11.052  0.1762 -0.0834  0.0874
  156loPI    C2 2482  16.730   7.262  11.022  0.1791 -0.0816  0.0435
  156loPI    C3 2483  16.837   7.563  11.263  0.1414 -0.0182 -0.0183
  156loPI   PO4 2484  17.166   7.210  10.774  0.1794 -0.0673 -0.1701
  156loPI   GL1 2485  17.336   6.881  10.489 -0.0013 -0.4752 -0.1469
  156loPI   GL2 2486  17.221   6.598  10.515 -0.0441  0.1693 -0.0445
  156loPI   C1A 2487  17.535   6.744  10.083 -0.0771  0.0144  0.2469
  156loPI   C2A 2488  17.507   6.541   9.701  0.0370 -0.2142 -0.1136
  156loPI   C3A 2489  17.543   6.592   9.316  0.2497  0.0382 -0.3486
  156loPI   C4A 2490  17.571   6.598   8.816  0.1563 -0.2072 -0.1902
  156loPI   C5A 2491  17.475   6.782   8.507  0.1623  0.0091 -0.4137
  156loPI   C6A 2492  17.064   7.078   8.386  0.1110 -0.3082  0.0953
  156loPI   C1B 2493  17.040   6.634  10.132 -0.0302 -0.2537 -0.0541
  156loPI   C2B 2494  16.999   6.571   9.674  0.3609 -0.1664  0.3613
  156loPI   C3B 2495  16.983   6.669   9.245 -0.1548  0.0569 -0.0316
  156loPI   C4B 2496  17.031   6.693   8.775  0.1606 -0.1112  0.0591
  157loPI    C1 2497   8.677  16.153  10.893 -0.0974 -0.1283 -0.2011
  157loPI    C2 2498   8.449  16.408  11.101 -0.1211 -0.0086 -0.3711
  157loPI    C3 2499   8.838  16.374  11.185 -0.0584  0.2915 -0.5306
  157loPI   PO4 2500   8.643  16.247  10.663 -0.1067 -0.1847 -0.0610
  157loPI   GL1 2501   8.590  16.115  10.175 -0.1197  0.0318 -0.4283
  157loPI   GL2 2502   8.811  16.421  10.129 -0.0183  0.3882  0.1229
  157loPI   C1A 2503   8.398  16.223   9.931  0.0650 -0.0425  0.1845
  157loPI   C2A 2504   8.308  16.253   9.495 -0.0539  0.0958  0.0552
  157loPI   C3A 2505   8.280  16.285   9.066 -0.0163  0.0006 -0.0454
  157loPI   C4A 2506   8.315  16.407   8.669  0.0313 -0.2894  0.1765
  157loPI   C5A 2507   8.587  16.161   8.337  0.2371  0.0410  0.0217
  157loPI   C6A 2508   8.685  15.728   8.326 -0.1554 -0.2329 -0.2285
  157loPI   C1B 2509   8.698  16.668   9.899  0.0294 -0.0117  0.2240
  157loPI   C2B 2510   8.479  16.715   9.506 -0.2336  0.0574  0.1839
  157loPI   C3B 2511   8.537  16.729   9.201  0.1271 -0.0976 -0.2204
  157loPI   C4B 2512   8.535  16.832   8.748 -0.0448 -0.1032 -0.0999
  158loPI    C1 2513   0.295   4.076  10.996 -0.2725  0.0715  0.1823
  158loPI    C2 2514   0.178   3.752  10.793 -0.1042  0.0497  0.1188
  158loPI    C3 2515   0.425   3.714  11.106 -0.0478  0.1204  0.0833
  158loPI   PO4 2516   0.342   4.250  10.732  0.2938 -0.0504 -0.0935
  158loPI   GL1 2517   0.504   4.325  10.323  0.0833  0.0596  0.0934
  158loPI   GL2 2518   0.228   4.428  10.258 -0.1415 -0.1098  0.2332
  158loPI   C1A 2519   0.385   3.856  10.194 -0.1941 -0.2139 -0.2133
  158loPI   C2A 2520   0.143   3.532   9.911 -0.1529 -0.0082 -0.1136
  158loPI   C3A 2521   0.277   3.392   9.508 -0.0464 -0.0275  0.0045
  158loPI   C4A 2522   0.275   3.351   9.052 -0.0631 -0.2683 -0.0399
  158loPI   C5A 2523   0.415   3.472   8.602  0.0882 -0.1326  0.0600
  158loPI   C6A 2524   0.594   3.653   8.217  0.1911 -0.0052 -0.0775
  158loPI   C1B 2525  -0.022   4.209   9.935 -0.0520 -0.2051  0.2308
  158loPI   C2B 2526   0.110   4.270   9.442  0.0835  0.1831 -0.0982
  158loPI   C3B 2527   0.189   4.227   9.046  0.0332  0.0778  0.2588
  158loPI   C4B 2528   0.353   3.949   8.724  0.0183 -0.0816  0.1495
  159loPI    C1 2529   6.350   9.954  10.424  0.2709 -0.1271  0.1589
  159loPI    C2 2530   5.992   9.888  10.590 -0.0131  0.2208 -0.2907
  159loPI    C3 2531   6.302   9.997  10.819 -0.1946 -0.0601  0.1002
  159loPI   PO4 2532   6.233  10.010  10.193 -0.0755 -0.1259  0.1403
  159loPI   GL1 2533   6.042  10.095   9.852  0.0368  0.1831 -0.0426
  159loPI   GL2 2534   6.121   9.767   9.733 -0.1826  0.0141  0.2661
  159loPI   C1A 2535   5.568  10.176   9.669 -0.1384 -0.0849 -0.1478
  159loPI   C2A 2536   5.497  10.247   9.328  0.2553 -0.1277 -0.1184
  159loPI   C3A 2537   5.431  10.151   8.917  0.1442 -0.2125  0.0216
  159loPI   C4A 2538   5.421   9.875   8.558 -0.1299  0.0353  0.5239
  159loPI   C5A 2539   5.528   9.584   8.119 -0.2230 -0.2748  0.2693
  159loPI   C6A 2540   5.848   9.186   8.080 -0.0470 -0.0241 -0.0159
  159loPI   C1B 2541   6.326   9.857   9.327  0.3776 -0.2559  0.2909
  159loPI   C2B 2542   6.273   9.881   8.823  0.0259  0.0755  0.0505
  159loPI   C3B 2543   6.304   9.953   8.383  0.0264 -0.2196 -0.1424
  159loPI   C4B 2544   6.104   9.849   7.964  0.3991 -0.2093 -0.0039
  160loPI    C1 2545   6.344   6.999  10.231  0.2623  0.3810  0.0202
  160loPI    C2 2546   6.545   6.837  10.536  0.0484  0.0181 -0.0260
  160loPI    C3 2547   6.151   6.900  10.568  0.0795  0.2678 -0.1158
  160loPI   PO4 2548   6.481   6.718  10.021 -0.2750 -0.1676 -0.0543
  160loPI   GL1 2549   6.327   6.657   9.679 -0.1593 -0.4095 -0.2977
  160loPI   GL2 2550   6.672   6.603   9.613  0.3694 -0.0428  0.2284
  160loPI   C1A 2551   6.044   6.782   9.334 -0.0352 -0.0021  0.2304
  160loPI   C2A 2552   6.069   6.905   8.876 -0.1158  0.2893  0.0799
  160loPI   C3A 2553   6.186   7.059   8.482  0.0864  0.0950  0.1340
  160loPI   C4A 2554   6.158   7.188   8.083  0.3493 -0.2161  0.0570
  160loPI   C5A 2555   6.286   7.252   7.637 -0.0648 -0.1531  0.1800
  160loPI   C6A 2556   6.188   7.476   7.207  0.0446 -0.2373 -0.0624
  160loPI   C1B 2557   6.510   6.798   9.258  0.1377  0.0691  0.2038
  160loPI   C2B 2558   6.601   6.931   8.800  0.0933  0.0890 -0.1291
  160loPI   C3B 2559   6.876   7.085   8.569 -0.0245  0.0130 -0.1921
  160loPI   C4B 2560   7.130   6.985   8.213 -0.0692  0.0985  0.0337
  161loPI    C1 2561   8.688   9.335  10.406 -0.1893 -0.0146  0.0994
  161loPI    C2 2562   8.477   9.643  10.264 -0.1000 -0.0400 -0.0908
  161loPI    C3 2563   8.826   9.708  10.447 -0.1282 -0.0209 -0.0438
  161loPI   PO4 2564   8.566   9.149  10.225 -0.0055 -0.0174  0.0323
  161loPI   GL1 2565   8.460   9.306   9.841  0.1239  0.1553  0.3167
  161loPI   GL2 2566   8.686   9.043   9.721  0.1200 -0.0432  0.0675
  161loPI   C1A 2567   8.204   9.322   9.498 -0.0995  0.1089 -0.2479
  161loPI   C2A 2568   8.256   9.357   9.067 -0.0938  0.0099  0.0002
  161loPI   C3A 2569   8.250   9.388   8.668 -0.1482 -0.1980 -0.3508
  161loPI   C4A 2570   8.431   9.653   8.346  0.2378  0.1109 -0.0790
  161loPI   C5A 2571   8.515  10.028   8.181  0.3397  0.1704 -0.0335
  161loPI   C6A 2572   8.724  10.080   7.842  0.0358  0.0151 -0.0107
  161loPI   C1B 2573   8.839   9.024   9.409  0.0324  0.1272 -0.1040
  161loPI   C2B 2574   8.732   9.067   8.989 -0.0140  0.2538 -0.3241
  161loPI   C3B 2575   8.727   8.968   8.587 -0.1086 -0.0645 -0.1397
  161loPI   C4B 2576   8.690   9.216   8.184 -0.3122  0.0971  0.2390
  162loPI    C1 2577   8.916  15.308  10.777  0.2663 -0.1566 -0.3097
  162loPI    C2 2578   8.671  15.122  10.522 -0.0942 -0.2923  0.1219
  162loPI    C3 2579   8.880  14.910  10.789  0.0880 -0.1334  0.1079
  162loPI   PO4 2580   9.067  15.436  10.596  0.0095 -0.0092 -0.1678
  162loPI   GL1 2581   9.103  15.109  10.278  0.0743 -0.1702 -0.0243
  162loPI   GL2 2582   9.376  15.140   9.950 -0.3227 -0.5010  0.2089
  162loPI   C1A 2583   8.847  14.946   9.991 -0.0687  0.0613  0.2029
  162loPI   C2A 2584   8.860  14.907   9.542 -0.2994 -0.0922  0.0717
  162loPI   C3A 2585   8.925  15.100   9.138 -0.0915 -0.1947  0.0566
  162loPI   C4A 2586   8.832  15.257   8.767  0.3668 -0.0714  0.1148
  162loPI   C5A 2587   9.070  15.508   8.578 -0.1129 -0.3369  0.1425
  162loPI   C6A 2588   9.001  15.999   8.574 -0.0510 -0.0556 -0.1803
  162loPI   C1B 2589   9.305  15.230   9.543 -0.0769  0.1811  0.0743
  162loPI   C2B 2590   9.388  15.308   9.035  0.2193 -0.0275 -0.0734
  162loPI   C3B 2591   9.707  15.341   8.780 -0.0815 -0.1619  0.2119
  162loPI   C4B 2592  10.069  15.243   8.600  0.0131 -0.2373  0.3960
  163loPI    C1 2593   8.897  14.089  10.347  0.0803 -0.0094 -0.1704
  163loPI    C2 2594   8.839  14.259  10.704  0.1150 -0.1528 -0.0958
  163loPI    C3 2595   8.761  13.870  10.653 -0.0552 -0.0944 -0.2904
  163loPI   PO4 2596   8.905  14.274  10.188  0.1493  0.1047 -0.0893
  163loPI   GL1 2597   8.935  14.391   9.871  0.2137  0.1824 -0.2333
  163loPI   GL2 2598   8.620  14.422   9.747 -0.0374  0.0027 -0.0750
  163loPI   C1A 2599   8.925  14.340   9.377  0.2614  0.1615 -0.0813
  163loPI   C2A 2600   8.896  14.602   9.002 -0.1191  0.0211 -0.1724
  163loPI   C3A 2601   8.975  14.827   8.671  0.2272 -0.1034 -0.0718
  163loPI   C4A 2602   9.272  15.039   8.494 -0.3782  0.0863  0.1724
  163loPI   C5A 2603   9.453  15.381   8.266 -0.1259 -0.0952 -0.1379
  163loPI   C6A 2604   9.159  15.766   8.138 -0.1702 -0.0285 -0.0965
  163loPI   C1B 2605   8.518  14.643   9.297  0.1235 -0.1662  0.3033
  163loPI   C2B 2606   8.452  14.849   8.918  0.0924 -0.0336  0.2569
  163loPI   C3B 2607   8.287  14.981   8.585 -0.3862 -0.1055  0.2259
  163loPI   C4B 2608   8.050  14.800   8.279 -0.0669  0.1408  0.1091
  164loPI    C1 2609   9.498   2.153  10.441 -0.0038 -0.2622  0.1587
  164loPI    C2 2610   9.828   2.377  10.471 -0.0652 -0.1541  0.0400
  164loPI    C3 2611   9.612   2.294  10.797 -0.1738  0.1627  0.0511
  164loPI   PO4 2612   9.409   2.268  10.236 -0.0987  0.2012 -0.2479
  164loPI   GL1 2613   9.199   2.132   9.832 -0.2248 -0.0015  0.0884
  164loPI   GL2 2614   9.465   2.352   9.705  0.1506 -0.0873 -0.1066
  164loPI   C1A 2615   9.165   2.018   9.425 -0.1457  0.1746  0.3466
  164loPI   C2A 2616   9.156   2.045   9.026  0.0925  0.3510 -0.0414
  164loPI   C3A 2617   9.058   1.939   8.672 -0.0633  0.2174 -0.0675
  164loPI   C4A 2618   9.088   1.641   8.395  0.2025  0.0456 -0.0895
  164loPI   C5A 2619   9.025   1.429   7.987  0.0195 -0.0682 -0.2160
  164loPI   C6A 2620   9.210   1.480   7.543  0.1798 -0.1844 -0.0831
  164loPI   C1B 2621   9.458   2.395   9.242  0.0209  0.0289 -0.0219
  164loPI   C2B 2622   9.456   2.456   8.828 -0.1207  0.1421 -0.2210
  164loPI   C3B 2623   9.301   2.307   8.434  0.0119  0.1599  0.1621
  164loPI   C4B 2624   9.312   2.017   8.105  0.1552  0.0393 -0.2163
  165loPI    C1 2625  15.404   6.858  10.658 -0.1297 -0.1148 -0.1512
  165loPI    C2 2626  15.538   6.766  11.023  0.1151 -0.2339 -0.2687
  165loPI    C3 2627  15.736   7.031  10.798 -0.1003 -0.0727 -0.2709
  165loPI   PO4 2628  15.212   6.717  10.618  0.0616  0.0424  0.0032
  165loPI   GL1 2629  14.851   6.781  10.354 -0.1670  0.0730 -0.0831
  165loPI   GL2 2630  15.059   6.977  10.181  0.0865  0.2728  0.0132
  165loPI   C1A 2631  14.652   6.628  10.043 -0.0957  0.1286  0.1263
  165loPI   C2A 2632  14.382   6.437   9.691 -0.0276  0.1239  0.0034
  165loPI   C3A 2633  14.072   6.511   9.339 -0.1448 -0.0178 -0.0338
  165loPI   C4A 2634  14.056   6.543   8.906  0.1353  0.1065  0.0071
  165loPI   C5A 2635  14.158   6.465   8.476  0.0941  0.0357  0.0002
  165loPI   C6A 2636  13.937   6.223   8.305 -0.2052 -0.1549  0.3398
  165loPI   C1B 2637  14.920   7.060   9.843 -0.3188  0.0751  0.1560
  165loPI   C2B 2638  15.016   6.998   9.445 -0.0354  0.1910  0.1335
  165loPI   C3B 2639  14.937   6.886   8.984  0.1043 -0.1829  0.2192
  165loPI   C4B 2640  14.545   6.806   8.765 -0.1196  0.4406  0.0773
  166loPI    C1 2641  14.682  15.029  11.042  0.1180  0.1760 -0.1504
  166loPI    C2 2642  14.879  15.375  11.085  0.0127  0.2038  0.1257
  166loPI    C3 2643  14.663  15.228  11.388  0.3746 -0.3047  0.1507
  166loPI   PO4 2644  14.738  15.042  10.710 -0.1424 -0.0736 -0.1619
  166loPI   GL1 2645  15.041  14.933  10.399 -0.2848  0.3168  0.0793
  166loPI   GL2 2646  14.783  15.028  10.189 -0.3432 -0.3146  0.0900
  166loPI   C1A 2647  15.118  14.622  10.086 -0.0594 -0.1025 -0.2704
  166loPI   C2A 2648  15.026  14.421   9.639  0.0904  0.0061  0.3163
  166loPI   C3A 2649  15.124  14.418   9.108  0.1037  0.0025 -0.1205
  166loPI   C4A 2650  15.335  14.513   8.702  0.1131 -0.2843  0.0406
  166loPI   C5A 2651  15.376  14.297   8.366 -0.2478  0.1267 -0.1004
  166loPI   C6A 2652  15.410  13.876   8.350  0.0808  0.2764  0.0164
  166loPI   C1B 2653  14.740  14.908   9.745  0.0856  0.1157 -0.0476
  166loPI   C2B 2654  14.711  14.719   9.398  0.1623  0.1302  0.1462
  166loPI   C3B 2655  14.811  14.750   8.918 -0.0878  0.1579 -0.1364
  166loPI   C4B 2656  14.872  14.897   8.541 -0.0993  0.1686  0.0059
  167loPI    C1 2657   3.570  14.550  10.596  0.0511 -0.0166 -0.0202
  167loPI    C2 2658   3.733  14.802  10.860  0.2572 -0.1343 -0.0331
  167loPI    C3 2659   3.406  14.594  10.958 -0.1072  0.3726 -0.1339
  167loPI   PO4 2660   3.613  14.693  10.319  0.0034 -0.0193  0.0220
  167loPI   GL1 2661   3.930  14.773  10.029  0.0881 -0.0510 -0.0503
  167loPI   GL2 2662   4.307  14.785   9.934  0.1835  0.0963  0.0240
  167loPI   C1A 2663   3.746  14.789   9.663 -0.2451 -0.2482  0.3412
  167loPI   C2A 2664   3.652  14.982   9.407 -0.2846  0.2366 -0.1883
  167loPI   C3A 2665   3.725  14.952   8.965  0.2864 -0.1491 -0.1148
  167loPI   C4A 2666   3.865  15.059   8.585 -0.2493  0.0084  0.0371
  167loPI   C5A 2667   3.875  14.715   8.154  0.0093  0.0413  0.2128
  167loPI   C6A 2668   4.079  14.460   7.859 -0.4530 -0.0415 -0.0302
  167loPI   C1B 2669   4.224  14.494   9.645 -0.0865 -0.1712  0.0389
  167loPI   C2B 2670   3.871  14.399   9.374 -0.2174 -0.2310 -0.0974
  167loPI   C3B 2671   3.732  14.455   8.952 -0.2367 -0.1907 -0.0883
  167loPI   C4B 2672   3.777  14.379   8.544 -0.1757 -0.2682 -0.1441
  168loPI    C1 2673   0.110  14.236  10.627 -0.0166  0.0059  0.1760
  168loPI    C2 2674   0.057  14.472  10.945  0.2318  0.1282  0.1289
  168loPI    C3 2675   0.136  14.083  10.996  0.2673  0.1467  0.2172
  168loPI   PO4 2676  -0.122  14.338  10.485 -0.1801  0.2421 -0.1015
  168loPI   GL1 2677  -0.230  14.298  10.101  0.1206 -0.2009 -0.0855
  168loPI   GL2 2678  -0.005  14.158   9.866  0.0349  0.3633 -0.0551
  168loPI   C1A 2679  -0.430  14.424   9.777 -0.1352 -0.2755 -0.0616
  168loPI   C2A 2680  -0.466  14.456   9.278  0.0494 -0.1240 -0.1045
  168loPI   C3A 2681  -0.538  14.562   8.833  0.1589 -0.2177  0.1421
  168loPI   C4A 2682  -0.710  14.523   8.459  0.1715  0.0075  0.3194
  168loPI   C5A 2683  -1.100  14.257   8.355  0.0075 -0.0696  0.1089
  168loPI   C6A 2684  -1.530  14.477   8.320 -0.3503  0.2191  0.0104
  168loPI   C1B 2685  -0.116  14.155   9.470  0.2945  0.3409 -0.0108
  168loPI   C2B 2686  -0.100  14.144   9.087  0.0281 -0.0789 -0.0118
  168loPI   C3B 2687  -0.126  14.136   8.729 -0.1994  0.3366 -0.0952
  168loPI   C4B 2688  -0.186  13.941   8.397 -0.1683 -0.2221  0.4100
  169loPI    C1 2689   3.334   1.674  10.671  0.2690  0.2110 -0.3623
  169loPI    C2 2690   3.452   2.052  10.724 -0.0635  0.2905 -0.1621
  169loPI    C3 2691   3.063   1.960  10.741  0.0072 -0.0468 -0.3020
  169loPI   PO4 2692   3.489   1.583  10.445  0.0247 -0.1157  0.1256
  169loPI   GL1 2693   3.686   1.555  10.055  0.1347 -0.2488  0.2168
  169loPI   GL2 2694   4.011   1.558   9.953  0.3946  0.0593 -0.1497
  169loPI   C1A 2695   3.538   1.450   9.704 -0.3638 -0.1272 -0.3288
  169loPI   C2A 2696   3.550   1.397   9.379 -0.3176 -0.1419 -0.0335
  169loPI   C3A 2697   3.671   1.388   9.021 -0.1260 -0.4836  0.0625
  169loPI   C4A 2698   3.817   1.522   8.770 -0.0667  0.1722 -0.2165
  169loPI   C5A 2699   3.876   1.318   8.419 -0.3145 -0.2895 -0.0282
  169loPI   C6A 2700   3.765   1.268   7.978  0.1783  0.1099  0.2235
  169loPI   C1B 2701   4.066   1.537   9.471  0.1210  0.0613  0.0659
  169loPI   C2B 2702   4.206   1.550   9.000 -0.0186  0.0168 -0.0033
  169loPI   C3B 2703   4.270   1.723   8.618 -0.2509 -0.1056 -0.0883
  169loPI   C4B 2704   4.324   2.112   8.372 -0.1172  0.4967 -0.0611
  170loPI    C1 2705  10.142  12.147  10.660 -0.3428  0.0353  0.0062
  170loPI    C2 2706  10.131  11.823  10.894  0.1648 -0.0397 -0.0623
  170loPI    C3 2707  10.362  12.133  10.993 -0.0093  0.1385 -0.2051
  170loPI   PO4 2708  10.160  12.022  10.404 -0.1087 -0.0900  0.0470
  170loPI   GL1 2709   9.928  12.091  10.142 -0.1786 -0.0012 -0.0811
  170loPI   GL2 2710   9.839  11.746  10.110 -0.2388  0.0028 -0.1669
  170loPI   C1A 2711   9.750  12.122   9.820  0.0773 -0.1264  0.2047
  170loPI   C2A 2712   9.776  12.133   9.388  0.1956  0.0811 -0.3893
  170loPI   C3A 2713   9.817  12.287   8.966 -0.2399 -0.1310 -0.3767
  170loPI   C4A 2714   9.879  12.238   8.589  0.1659  0.0556 -0.0501
  170loPI   C5A 2715   9.651  12.183   8.136  0.0012 -0.0393  0.1351
  170loPI   C6A 2716   9.519  11.883   7.879  0.0109 -0.0074  0.0730
  170loPI   C1B 2717   9.764  11.669   9.724 -0.1349  0.0870  0.0341
  170loPI   C2B 2718   9.810  11.586   9.303 -0.0137 -0.0559 -0.1673
  170loPI   C3B 2719   9.848  11.747   8.911 -0.0044 -0.2700  0.0787
  170loPI   C4B 2720   9.842  11.790   8.497 -0.0026  0.5200 -0.0896
  171loPI    C1 2721  16.381  15.962  10.616 -0.0523 -0.2144 -0.0302
  171loPI    C2 2722  16.447  16.331  10.757 -0.0454 -0.2457  0.0484
  171loPI    C3 2723  16.274  16.055  10.990 -0.2152 -0.2397 -0.0697
  171loPI   PO4 2724  16.203  15.948  10.440  0.1656 -0.2380 -0.0399
  171loPI   GL1 2725  16.089  15.793  10.113 -0.0911  0.0700  0.2386
  171loPI   GL2 2726  15.845  15.639  10.300 -0.2386  0.0138 -0.1020
  171loPI   C1A 2727  15.846  15.717   9.719  0.0984  0.1520 -0.4559
  171loPI   C2A 2728  15.828  15.732   9.303 -0.1690  0.0419  0.2096
  171loPI   C3A 2729  15.864  15.806   8.814 -0.1697  0.2451  0.1708
  171loPI   C4A 2730  15.938  15.831   8.345  0.0653 -0.1246 -0.0320
  171loPI   C5A 2731  16.180  16.031   8.035 -0.0431  0.1164 -0.1803
  171loPI   C6A 2732  16.428  16.414   7.833  0.0866 -0.1006 -0.2655
  171loPI   C1B 2733  15.741  15.287   9.920  0.0456 -0.2865 -0.1794
  171loPI   C2B 2734  15.782  15.240   9.551 -0.0470 -0.2550 -0.0289
  171loPI   C3B 2735  15.887  15.251   9.140 -0.0522  0.0411 -0.0578
  171loPI   C4B 2736  15.876  15.271   8.785  0.0292  0.0764  0.0295
  172loPI    C1 2737   8.492   7.867  10.239  0.0759 -0.4594 -0.0188
  172loPI    C2 2738   8.810   7.913  10.477  0.0894 -0.2422 -0.0766
  172loPI    C3 2739   8.546   7.621  10.549  0.1476 -0.2414  0.1437
  172loPI   PO4 2740   8.466   8.093  10.089 -0.2022 -0.0175 -0.0043
  172loPI   GL1 2741   8.208   8.159   9.674 -0.2144 -0.2200 -0.1225
  172loPI   GL2 2742   8.093   7.823   9.554  0.0334 -0.1432 -0.1981
  172loPI   C1A 2743   8.194   8.334   9.240 -0.4782 -0.1254  0.0313
  172loPI   C2A 2744   8.242   8.436   8.850 -0.2764 -0.0034 -0.0261
  172loPI   C3A 2745   8.224   8.436   8.383  0.2234 -0.2047 -0.4937
  172loPI   C4A 2746   8.366   8.589   7.964 -0.0343  0.0760  0.0230
  172loPI   C5A 2747   8.688   8.792   7.753 -0.3812  0.2853  0.2359
  172loPI   C6A 2748   8.854   9.256   7.639 -0.3042  0.1987 -0.1262
  172loPI   C1B 2749   8.044   7.702   9.117 -0.2822  0.1498 -0.0722
  172loPI   C2B 2750   8.084   7.899   8.775 -0.1841  0.0628  0.0747
  172loPI   C3B 2751   8.196   7.910   8.336 -0.1216  0.0638  0.3486
  172loPI   C4B 2752   8.289   8.076   7.894  0.3529  0.1912 -0.0355
  173loPI    C1 2753   3.233  14.998  10.668 -0.2213 -0.0824  0.1731
  173loPI    C2 2754   3.118  15.210  10.987 -0.0765  0.1003  0.1063
  173loPI    C3 2755   2.844  15.064  10.735 -0.1785  0.1988  0.1587
  173loPI   PO4 2756   3.338  15.078  10.491 -0.0973 -0.0907 -0.1777
  173loPI   GL1 2757   3.259  15.210  10.041 -0.1635 -0.0898  0.1158
  173loPI   GL2 2758   3.258  14.890   9.946 -0.0809  0.0227 -0.1183
  173loPI   C1A 2759   3.504  15.332   9.755  0.2001  0.0569  0.0683
  173loPI   C2A 2760   3.643  15.443   9.342  0.0664 -0.0089 -0.3671
  173loPI   C3A 2761   3.609  15.507   8.911  0.2730  0.2314 -0.1028
  173loPI   C4A 2762   3.504  15.674   8.495 -0.2233 -0.2137 -0.1979
  173loPI   C5A 2763   3.669  15.998   8.258 -0.0006  0.0765  0.1999
  173loPI   C6A 2764   3.911  16.091   7.946 -0.1126  0.0051  0.1751
  173loPI   C1B 2765   3.163  15.043   9.509 -0.1489 -0.1573  0.2150
  173loPI   C2B 2766   3.272  15.130   9.101 -0.0736  0.2212 -0.1806
  173loPI   C3B 2767   3.388  15.161   8.638  0.2332  0.5381 -0.2410
  173loPI   C4B 2768   3.435  15.024   8.238 -0.2664  0.1672 -0.3062
  174loPI    C1 2769  14.383  18.105  10.838 -0.1426 -0.1842  0.0927
  174loPI    C2 2770  14.438  18.168  11.229  0.3551  0.1825 -0.0269
  174loPI    C3 2771  14.714  17.970  11.018  0.1609  0.1191 -0.2244
  174loPI   PO4 2772  14.222  18.176  10.610  0.0703 -0.1245  0.0588
  174loPI   GL1 2773  14.349  18.375  10.233  0.2091 -0.0332 -0.2548
  174loPI   GL2 2774  14.246  18.006  10.149 -0.3938 -0.0299 -0.0145
  174loPI   C1A 2775  14.038  18.456   9.942  0.0968  0.0762  0.0549
  174loPI   C2A 2776  14.005  18.545   9.547 -0.0331  0.2595 -0.2908
  174loPI   C3A 2777  13.978  18.525   9.115  0.0968 -0.2287 -0.1522
  174loPI   C4A 2778  13.980  18.481   8.695 -0.1080  0.3590 -0.0915
  174loPI   C5A 2779  13.826  18.349   8.423 -0.0703 -0.0783  0.2546
  174loPI   C6A 2780  14.049  18.381   8.061 -0.1443 -0.1281 -0.0703
  174loPI   C1B 2781  14.370  18.172   9.698  0.0476  0.1184 -0.1236
  174loPI   C2B 2782  14.380  18.235   9.287  0.2497  0.0361  0.0785
  174loPI   C3B 2783  14.352  18.259   8.896 -0.0351 -0.0149  0.1858
  174loPI   C4B 2784  14.300  18.133   8.424  0.0623 -0.0994  0.1165
  175loPI    C1 2785   1.666   7.452  10.642  0.1268 -0.0030  0.1378
  175loPI    C2 2786   1.581   7.319  11.010  0.2579  0.0837  0.2002
  175loPI    C3 2787   1.705   7.696  10.957 -0.1351  0.1933  0.0225
  175loPI   PO4 2788   1.476   7.316  10.493 -0.1381 -0.0987 -0.0377
  175loPI   GL1 2789   1.687   7.375  10.093  0.1069 -0.3651  0.0020
  175loPI   GL2 2790   1.643   7.572   9.847 -0.1031 -0.3827 -0.2332
  175loPI   C1A 2791   1.960   7.123   9.852 -0.1945  0.0218  0.1124
  175loPI   C2A 2792   1.966   6.967   9.427  0.0852  0.1037  0.1131
  175loPI   C3A 2793   1.971   6.908   8.991  0.1158  0.0161 -0.2375
  175loPI   C4A 2794   1.912   6.865   8.555  0.0803 -0.0488  0.3455
  175loPI   C5A 2795   1.819   6.793   8.151  0.0438 -0.1938  0.3728
  175loPI   C6A 2796   1.707   7.051   7.796 -0.1769  0.1856  0.1551
  175loPI   C1B 2797   1.703   7.376   9.535 -0.1160 -0.0058 -0.0237
  175loPI   C2B 2798   1.634   7.373   9.103  0.0797 -0.3000  0.0982
  175loPI   C3B 2799   1.651   7.289   8.674  0.2204 -0.3582 -0.1810
  175loPI   C4B 2800   1.525   7.193   8.275 -0.1483 -0.4205  0.1418
  176loPI    C1 2801  15.298  16.368  10.808 -0.2925  0.0074 -0.2337
  176loPI    C2 2802  14.961  16.570  10.881 -0.1689  0.1794 -0.1332
  176loPI    C3 2803  15.040  16.234  11.082 -0.2203  0.2074 -0.0659
  176loPI   PO4 2804  15.432  16.539  10.569  0.3512 -0.2739  0.1719
  176loPI   GL1 2805  15.415  16.660  10.203  0.0010 -0.1832 -0.0085
  176loPI   GL2 2806  15.710  16.639  10.145  0.0307  0.1322 -0.1057
  176loPI   C1A 2807  15.075  16.620   9.922  0.0660  0.0364 -0.0160
  176loPI   C2A 2808  15.021  16.471   9.497 -0.1969  0.2665 -0.1538
  176loPI   C3A 2809  14.980  16.418   9.084 -0.1680  0.3337  0.1422
  176loPI   C4A 2810  15.083  16.298   8.586 -0.0906 -0.2273 -0.2719
  176loPI   C5A 2811  15.142  16.509   8.201  0.1154  0.1601  0.0475
  176loPI   C6A 2812  15.351  16.418   7.785 -0.0165  0.1846 -0.1554
  176loPI   C1B 2813  15.457  16.412   9.785 -0.1117 -0.1225  0.2989
  176loPI   C2B 2814  15.475  16.513   9.220  0.1568 -0.1355  0.1524
  176loPI   C3B 2815  15.504  16.578   8.792 -0.1727  0.2285 -0.1339
  176loPI   C4B 2816  15.559  16.668   8.433 -0.0388  0.0779  0.2000
  177loPI    C1 2817   9.562   9.775  10.381  0.0497  0.0726  0.0672
  177loPI    C2 2818   9.300   9.823  10.679  0.0247  0.0104  0.0553
  177loPI    C3 2819   9.657  10.002  10.697 -0.0425  0.1471  0.0419
  177loPI   PO4 2820   9.383   9.824  10.144  0.2730 -0.0645  0.3723
  177loPI   GL1 2821   9.287   9.827   9.656 -0.0713  0.1981  0.3806
  177loPI   GL2 2822   9.224   9.453   9.544  0.1561 -0.6318 -0.1606
  177loPI   C1A 2823   9.118   9.904   9.219 -0.0688 -0.0006 -0.0604
  177loPI   C2A 2824   9.227   9.910   8.760  0.2645  0.0531  0.2780
  177loPI   C3A 2825   9.519   9.978   8.402  0.3580 -0.1668  0.0286
  177loPI   C4A 2826   9.826  10.117   8.164 -0.2189 -0.3308  0.0338
  177loPI   C5A 2827  10.069  10.099   7.800  0.0031 -0.0891 -0.1562
  177loPI   C6A 2828  10.391  10.337   7.589  0.1582  0.3499 -0.0865
  177loPI   C1B 2829   9.243   9.301   9.100  0.0236 -0.2262 -0.2152
  177loPI   C2B 2830   9.196   9.251   8.711 -0.1936 -0.3853  0.4352
  177loPI   C3B 2831   9.376   9.331   8.313  0.1152  0.2722  0.1635
  177loPI   C4B 2832   9.313   9.322   7.844 -0.1650  0.0273 -0.0630
  178loPI    C1 2833   6.146  15.551  10.631  0.0164  0.0374 -0.1330
  178loPI    C2 2834   6.211  15.322  10.952 -0.0395  0.2016 -0.0033
  178loPI    C3 2835   5.852  15.322  10.777 -0.0208  0.1426 -0.0419
  178loPI   PO4 2836   6.323  15.736  10.694 -0.1867 -0.0668 -0.3059
  178loPI   GL1 2837   6.609  15.782  10.377  0.2917  0.1886 -0.2468
  178loPI   GL2 2838   6.858  15.591  10.358  0.3160 -0.0594  0.1104
  178loPI   C1A 2839   6.332  15.912  10.031  0.3186  0.1399 -0.3008
  178loPI   C2A 2840   6.364  16.133   9.591  0.1121 -0.0228 -0.1837
  178loPI   C3A 2841   6.307  15.952   9.186 -0.1929 -0.2229  0.1855
  178loPI   C4A 2842   6.230  16.048   8.794 -0.0329  0.1698 -0.0787
  178loPI   C5A 2843   6.331  15.917   8.441 -0.1951  0.1104  0.2691
  178loPI   C6A 2844   6.078  15.801   8.054 -0.1550 -0.1060 -0.1506
  178loPI   C1B 2845   6.912  15.798   9.929  0.0956 -0.2386  0.0187
  178loPI   C2B 2846   6.872  15.985   9.534 -0.1902 -0.2263  0.0246
  178loPI   C3B 2847   6.832  15.877   9.128 -0.0674 -0.0571 -0.1304
  178loPI   C4B 2848   6.779  15.968   8.695 -0.0461  0.2081 -0.1703
  179loPI    C1 2849   2.700   4.843  10.385  0.1129  0.1697  0.1518
  179loPI    C2 2850   3.063   4.817  10.551  0.1970  0.1424 -0.0328
  179loPI    C3 2851   2.820   5.121  10.646  0.2677  0.1609  0.0910
  179loPI   PO4 2852   2.782   4.834  10.118 -0.0956 -0.0505 -0.1086
  179loPI   GL1 2853   2.671   4.625   9.750  0.2313  0.1617  0.3231
  179loPI   GL2 2854   2.639   4.300   9.794 -0.1529  0.0088  0.2552
  179loPI   C1A 2855   2.638   4.501   9.319 -0.0237 -0.0459 -0.1602
  179loPI   C2A 2856   2.685   4.443   8.874  0.0937  0.2582  0.1423
  179loPI   C3A 2857   2.752   4.389   8.435 -0.1552  0.0250 -0.2576
  179loPI   C4A 2858   3.125   4.489   8.106  0.0635  0.0041 -0.0134
  179loPI   C5A 2859   3.465   4.535   8.114 -0.0405 -0.2956  0.3756
  179loPI   C6A 2860   3.685   4.281   7.969  0.1771 -0.1973 -0.1521
  179loPI   C1B 2861   2.442   4.028   9.561  0.0199  0.0715 -0.0384
  179loPI   C2B 2862   2.452   3.975   9.134 -0.0804  0.2400 -0.1545
  179loPI   C3B 2863   2.310   3.950   8.674  0.1540 -0.0540  0.1210
  179loPI   C4B 2864   2.320   4.145   8.262  0.2869 -0.2006 -0.0424
  180loPI    C1 2865   2.778   5.679  10.409  0.0691 -0.1296 -0.2540
  180loPI    C2 2866   3.029   5.945  10.570  0.0222 -0.2000 -0.0613
  180loPI    C3 2867   3.050   5.561  10.677 -0.0424 -0.2393 -0.1877
  180loPI   PO4 2868   2.783   5.748  10.191 -0.1229  0.0948 -0.1406
  180loPI   GL1 2869   2.703   5.430   9.851  0.0945  0.0224 -0.1408
  180loPI   GL2 2870   2.944   5.169   9.747 -0.0623 -0.1248 -0.2152
  180loPI   C1A 2871   2.574   5.520   9.398 -0.0420  0.4210  0.1038
  180loPI   C2A 2872   2.879   5.837   9.090  0.1017 -0.1825  0.1942
  180loPI   C3A 2873   3.034   5.975   8.691 -0.1883 -0.0298 -0.2026
  180loPI   C4A 2874   2.889   6.027   8.367  0.1255  0.0409  0.1103
  180loPI   C5A 2875   2.750   5.970   8.000  0.1532 -0.2694  0.2556
  180loPI   C6A 2876   2.537   6.340   7.725 -0.1216 -0.1889  0.0528
  180loPI   C1B 2877   3.001   4.884   9.378 -0.1721 -0.1216 -0.2869
  180loPI   C2B 2878   3.025   4.808   9.010 -0.0846  0.0972  0.1618
  180loPI   C3B 2879   2.896   4.938   8.609  0.0240 -0.0131  0.0056
  180loPI   C4B 2880   2.931   4.919   8.136 -0.0851 -0.1356 -0.2328
  181loPI    C1 2881   0.518  12.909  10.641 -0.0856 -0.0869  0.1896
  181loPI    C2 2882   0.770  13.207  10.550 -0.0422 -0.1817 -0.0061
  181loPI    C3 2883   0.464  13.273  10.800  0.0735 -0.0210  0.0950
  181loPI   PO4 2884   0.442  12.797  10.343  0.1862  0.0515  0.0377
  181loPI   GL1 2885   0.140  13.000  10.094  0.1501 -0.1010 -0.1693
  181loPI   GL2 2886  -0.205  13.027  10.149 -0.3459  0.0735  0.1704
  181loPI   C1A 2887   0.199  13.020   9.556 -0.1237 -0.0032  0.1825
  181loPI   C2A 2888   0.173  12.924   9.152 -0.2031  0.1967 -0.0171
  181loPI   C3A 2889   0.180  12.581   8.969  0.1218 -0.0930 -0.0952
  181loPI   C4A 2890   0.237  12.541   8.519 -0.0040 -0.1313 -0.1040
  181loPI   C5A 2891   0.084  12.584   8.094 -0.0749  0.3212 -0.1382
  181loPI   C6A 2892  -0.078  12.612   7.702 -0.2065 -0.1242  0.1854
  181loPI   C1B 2893  -0.255  13.108   9.730 -0.1118  0.1083  0.0151
  181loPI   C2B 2894  -0.303  13.039   9.252  0.2011  0.1022  0.0233
  181loPI   C3B 2895  -0.417  13.143   8.854  0.3834 -0.2159  0.3727
  181loPI   C4B 2896  -0.626  13.047   8.405  0.0069 -0.3160  0.0288
  182loPI    C1 2897   5.251   5.314  10.359 -0.2000  0.1775 -0.1118
  182loPI    C2 2898   4.955   5.199  10.603 -0.0763 -0.3710 -0.2054
  182loPI    C3 2899   5.322   5.046  10.648  0.2152  0.3291 -0.0664
  182loPI   PO4 2900   5.199   5.254  10.150  0.0453 -0.2473  0.1538
  182loPI   GL1 2901   5.006   5.070   9.726 -0.0696  0.2122 -0.0058
  182loPI   GL2 2902   5.265   5.072   9.497  0.0416  0.0238 -0.3127
  182loPI   C1A 2903   4.901   4.775   9.390  0.1690  0.0179 -0.0394
  182loPI   C2A 2904   4.812   4.869   8.970  0.0302  0.1447 -0.0382
  182loPI   C3A 2905   4.842   4.668   8.595  0.1051  0.0317 -0.1325
  182loPI   C4A 2906   4.676   4.588   8.164 -0.2175  0.2176 -0.0034
  182loPI   C5A 2907   4.746   4.910   7.876  0.1292  0.0654 -0.0645
  182loPI   C6A 2908   4.614   5.196   7.609  0.1256 -0.1257  0.3180
  182loPI   C1B 2909   5.259   5.008   9.007  0.0829 -0.0632 -0.0740
  182loPI   C2B 2910   5.196   4.978   8.638  0.0113 -0.0035  0.1754
  182loPI   C3B 2911   5.093   4.932   8.186  0.0422  0.2342  0.2104
  182loPI   C4B 2912   4.995   5.313   7.941  0.3428 -0.3900  0.0651
  183loPI    C1 2913  13.391   0.091  10.611 -0.0145 -0.1741 -0.0540
  183loPI    C2 2914  13.105   0.116  10.889  0.0963 -0.0650  0.0518
  183loPI    C3 2915  13.407  -0.142  10.936  0.0643 -0.1151 -0.0153
  183loPI   PO4 2916  13.287   0.364  10.496  0.3822  0.0395 -0.1340
  183loPI   GL1 2917  13.496   0.541  10.082  0.2323 -0.0773 -0.2662
  183loPI   GL2 2918  13.341   0.739  10.080 -0.1219 -0.1787 -0.0379
  183loPI   C1A 2919  13.584   0.758   9.654  0.2091  0.0327 -0.0231
  183loPI   C2A 2920  13.574   0.719   9.225 -0.1847  0.0108 -0.1015
  183loPI   C3A 2921  13.571   0.795   8.824  0.0702 -0.2949 -0.0161
  183loPI   C4A 2922  13.706   0.687   8.450  0.2026  0.0393 -0.4580
  183loPI   C5A 2923  13.610   0.625   8.003  0.2027  0.1992  0.2531
  183loPI   C6A 2924  13.635   0.150   7.805  0.1111 -0.0478 -0.0897
  183loPI   C1B 2925  13.040   0.558   9.750 -0.1675  0.0847 -0.2286
  183loPI   C2B 2926  13.109   0.579   9.286 -0.1241 -0.1636 -0.2241
  183loPI   C3B 2927  13.238   0.371   8.990  0.2214  0.2705  0.1790
  183loPI   C4B 2928  13.488   0.227   8.834 -0.2393 -0.1565 -0.2260
  184loPI    C1 2929  14.818   1.722  10.644  0.0772  0.0004  0.0808
  184loPI    C2 2930  14.826   2.111  10.737 -0.1411 -0.0034  0.1218
  184loPI    C3 2931  14.786   1.837  11.026 -0.0922 -0.0514  0.0834
  184loPI   PO4 2932  14.606   1.705  10.403 -0.0773 -0.2444  0.2032
  184loPI   GL1 2933  14.626   1.580  10.048 -0.3234 -0.1186 -0.0713
  184loPI   GL2 2934  15.022   1.428  10.162  0.2107 -0.2484 -0.1017
  184loPI   C1A 2935  14.474   1.316   9.815 -0.0009  0.1823 -0.1367
  184loPI   C2A 2936  14.550   1.127   9.535  0.1445 -0.0072 -0.0030
  184loPI   C3A 2937  14.524   1.070   9.128 -0.3065  0.1107 -0.0020
  184loPI   C4A 2938  14.613   1.133   8.734  0.1652  0.1012  0.1071
  184loPI   C5A 2939  14.666   0.963   8.344  0.0404  0.1825 -0.0543
  184loPI   C6A 2940  14.624   1.167   7.949 -0.1048  0.2639  0.2155
  184loPI   C1B 2941  14.968   1.328   9.780 -0.0749  0.1409  0.1232
  184loPI   C2B 2942  14.966   1.322   9.378  0.0108  0.1615  0.2690
  184loPI   C3B 2943  14.987   1.224   8.973  0.2458 -0.1487 -0.0105
  184loPI   C4B 2944  15.085   1.316   8.542 -0.0638  0.3721 -0.1316
  185loPI    C1 2945   4.398  11.367  10.351  0.2245 -0.0642  0.0904
  185loPI    C2 2946   4.414  11.018  10.545  0.1658  0.0741  0.3485
  185loPI    C3 2947   4.685  11.302  10.622  0.2647  0.0563  0.0777
  185loPI   PO4 2948   4.293  11.297  10.098 -0.1059 -0.0985  0.0188
  185loPI   GL1 2949   4.006  11.426   9.848 -0.2667 -0.0438  0.2180
  185loPI   GL2 2950   3.967  11.804   9.782  0.0901  0.0963  0.1481
  185loPI   C1A 2951   4.232  11.468   9.498 -0.0407 -0.0302 -0.0558
  185loPI   C2A 2952   4.215  11.577   9.029  0.0672  0.0023  0.0848
  185loPI   C3A 2953   4.213  11.711   8.646  0.0205  0.2016 -0.1410
  185loPI   C4A 2954   3.992  11.663   8.223  0.1280  0.0541 -0.0119
  185loPI   C5A 2955   3.848  11.987   7.941  0.0967 -0.0301  0.2175
  185loPI   C6A 2956   4.041  12.107   7.540 -0.1988  0.2244 -0.0973
  185loPI   C1B 2957   4.072  11.945   9.341 -0.0963  0.0343  0.1420
  185loPI   C2B 2958   4.061  12.104   8.970  0.2083 -0.1294 -0.1050
  185loPI   C3B 2959   4.171  12.227   8.605  0.1739  0.1896  0.2389
  185loPI   C4B 2960   4.267  12.041   8.262 -0.1404  0.0413 -0.2020
  186loPI    C1 2961  10.842  12.224  10.599 -0.2019 -0.0732  0.1173
  186loPI    C2 2962  10.885  12.456  10.922  0.1270 -0.1851  0.1581
  186loPI    C3 2963  10.905  12.058  10.957 -0.0007 -0.2045  0.0234
  186loPI   PO4 2964  10.606  12.268  10.418  0.0215  0.0818 -0.1322
  186loPI   GL1 2965  10.529  12.217  10.019  0.1744 -0.4253 -0.0613
  186loPI   GL2 2966  10.672  12.074   9.806  0.0098 -0.1116 -0.0163
  186loPI   C1A 2967  10.164  12.372   9.711 -0.2824  0.2054 -0.0227
  186loPI   C2A 2968  10.207  12.386   9.332  0.0563  0.1882 -0.0447
  186loPI   C3A 2969  10.299  12.529   8.983  0.2553  0.0152  0.2882
  186loPI   C4A 2970  10.542  12.847   8.773  0.2408  0.0516  0.0241
  186loPI   C5A 2971  10.580  12.958   8.327  0.0575  0.1238 -0.0957
  186loPI   C6A 2972  10.690  13.352   8.159 -0.2078 -0.0031  0.0013
  186loPI   C1B 2973  10.650  12.191   9.374  0.0856  0.0081  0.1193
  186loPI   C2B 2974  10.715  12.233   8.992 -0.1030 -0.1373  0.0565
  186loPI   C3B 2975  10.537  12.341   8.585 -0.0072 -0.0702  0.0713
  186loPI   C4B 2976  10.248  12.569   8.431 -0.1583  0.0251 -0.3128
  187loPI    C1 2977   6.013   8.171  10.209  0.0402 -0.2762 -0.0619
  187loPI    C2 2978   5.831   8.142  10.564  0.2244 -0.2165  0.0389
  187loPI    C3 2979   6.228   8.106  10.540  0.2270 -0.0806 -0.1425
  187loPI   PO4 2980   5.827   8.050  10.022  0.0495 -0.0829 -0.0807
  187loPI   GL1 2981   5.953   7.799   9.707  0.1286  0.2689  0.0637
  187loPI   GL2 2982   5.803   7.540   9.655  0.0052  0.2673 -0.1995
  187loPI   C1A 2983   5.963   7.865   9.223 -0.2192  0.1338  0.1330
  187loPI   C2A 2984   5.927   7.778   8.895 -0.3156 -0.2585 -0.0471
  187loPI   C3A 2985   6.065   7.631   8.519  0.3790 -0.0664 -0.1671
  187loPI   C4A 2986   5.924   7.702   8.064  0.0980 -0.0064 -0.2628
  187loPI   C5A 2987   6.131   7.739   7.636 -0.3686 -0.0819 -0.0214
  187loPI   C6A 2988   6.548   7.710   7.399  0.0584  0.0524 -0.0170
  187loPI   C1B 2989   5.518   7.538   9.341 -0.0458 -0.0196  0.1834
  187loPI   C2B 2990   5.358   7.653   9.016  0.0916  0.1878 -0.1215
  187loPI   C3B 2991   5.350   7.640   8.563 -0.0630  0.2625 -0.3556
  187loPI   C4B 2992   5.407   7.719   8.148 -0.2398  0.3500 -0.1621
  188loPI    C1 2993  17.073   4.118  10.748 -0.0835 -0.2971 -0.4103
  188loPI    C2 2994  16.899   4.463  10.641 -0.2118 -0.1241  0.3046
  188loPI    C3 2995  16.677   4.135  10.694 -0.1427 -0.2209  0.0122
  188loPI   PO4 2996  17.296   4.065  10.521 -0.4284 -0.0506 -0.0326
  188loPI   GL1 2997  17.693   4.150  10.208  0.2863 -0.0782  0.1411
  188loPI   GL2 2998  17.720   3.827  10.070  0.3092  0.2611  0.3301
  188loPI   C1A 2999  17.471   4.264   9.893  0.0119  0.0331 -0.3475
  188loPI   C2A 3000  17.373   4.267   9.406  0.1729 -0.0688  0.0223
  188loPI   C3A 3001  17.351   4.328   8.981  0.2913 -0.0644 -0.2494
  188loPI   C4A 3002  17.176   4.393   8.556  0.4059 -0.1696 -0.3980
  188loPI   C5A 3003  17.191   4.646   8.222  0.0868  0.4167  0.1074
  188loPI   C6A 3004  17.122   4.298   7.890  0.1841 -0.1521 -0.0809
  188loPI   C1B 3005  17.848   3.871   9.676 -0.0004 -0.0963 -0.1679
  188loPI   C2B 3006  17.838   4.036   9.267  0.0307 -0.2323 -0.1956
  188loPI   C3B 3007  17.842   4.173   8.877  0.2017 -0.0342  0.1346
  188loPI   C4B 3008  18.056   4.234   8.533  0.3268  0.0017  0.3075
  189loPI    C1 3009  16.796   1.112  10.604  0.3985  0.3091  0.0838
  189loPI    C2 3010  16.430   1.175  10.751  0.2410 -0.1198 -0.1078
  189loPI    C3 3011  16.747   1.190  10.993  0.1055  0.2882  0.0530
  189loPI   PO4 3012  16.787   1.252  10.316 -0.0420 -0.1614  0.1399
  189loPI   GL1 3013  16.997   1.369  10.022  0.2093  0.3138 -0.0202
  189loPI   GL2 3014  16.922   1.661   9.930  0.1523  0.1008 -0.2957
  189loPI   C1A 3015  16.778   1.205   9.665  0.2848 -0.1090 -0.2968
  189loPI   C2A 3016  16.718   1.100   9.214  0.0954 -0.0234 -0.0122
  189loPI   C3A 3017  16.698   1.043   8.761 -0.0593 -0.1501  0.0798
  189loPI   C4A 3018  16.497   0.727   8.444  0.1500  0.0132 -0.2411
  189loPI   C5A 3019  16.497   0.440   8.188 -0.3030  0.2729  0.3542
  189loPI   C6A 3020  16.525   0.394   7.752  0.0332 -0.1984 -0.2168
  189loPI   C1B 3021  16.860   1.716   9.555  0.1564 -0.0086 -0.1095
  189loPI   C2B 3022  16.721   1.651   9.184 -0.0311 -0.1640  0.1403
  189loPI   C3B 3023  16.713   1.616   8.676  0.0324 -0.0364  0.0391
  189loPI   C4B 3024  17.032   1.464   8.324 -0.0646 -0.0876 -0.1624
  190loPI    C1 3025   2.321  17.040  10.802 -0.0418 -0.0474  0.1401
  190loPI    C2 3026   2.085  16.826  11.044  0.0370 -0.1223  0.1511
  190loPI    C3 3027   2.342  16.641  10.800  0.0027 -0.0449  0.0558
  190loPI   PO4 3028   2.203  17.246  10.587  0.1942  0.2772  0.3083
  190loPI   GL1 3029   1.979  17.379  10.145 -0.0124  0.0277 -0.0500
  190loPI   GL2 3030   2.265  17.576  10.158  0.1588  0.1620 -0.0996
  190loPI   C1A 3031   1.987  17.233   9.807 -0.0232 -0.1302 -0.1428
  190loPI   C2A 3032   2.028  17.272   9.343  0.1319  0.0866  0.1915
  190loPI   C3A 3033   1.995  17.225   8.882  0.1145  0.0149 -0.2206
  190loPI   C4A 3034   2.217  17.328   8.538 -0.0275 -0.2139  0.1069
  190loPI   C5A 3035   2.543  17.474   8.226 -0.0165 -0.0014  0.0613
  190loPI   C6A 3036   2.911  17.511   7.963 -0.1563 -0.1186 -0.0849
  190loPI   C1B 3037   2.378  17.567   9.764  0.0318  0.0500 -0.3686
  190loPI   C2B 3038   2.432  17.585   9.287 -0.2911  0.1033 -0.1634
  190loPI   C3B 3039   2.364  17.540   8.909 -0.1443 -0.0215 -0.0794
  190loPI   C4B 3040   2.313  17.816   8.517  0.1355 -0.3026 -0.0636
  191loPI    C1 3041  15.748   5.899  10.960 -0.4010 -0.1079 -0.2182
  191loPI    C2 3042  15.801   6.275  11.086  0.0739 -0.1861 -0.1683
  191loPI    C3 3043  15.531   6.040  11.264  0.2692 -0.0874  0.2724
  191loPI   PO4 3044  15.744   5.897  10.781 -0.2731 -0.2254 -0.2194
  191loPI   GL1 3045  15.723   6.127  10.454 -0.1491  0.3404 -0.0515
  191loPI   GL2 3046  15.967   5.887  10.289  0.1808  0.2149  0.0445
  191loPI   C1A 3047  15.737   6.375  10.097 -0.1175 -0.1633 -0.1269
  191loPI   C2A 3048  15.607   6.403   9.761  0.1525  0.2947  0.0331
  191loPI   C3A 3049  15.609   6.384   9.311  0.5950 -0.0667  0.0168
  191loPI   C4A 3050  15.687   6.312   8.827  0.3513 -0.0445  0.0264
  191loPI   C5A 3051  15.627   6.319   8.397 -0.0732  0.5151  0.1799
  191loPI   C6A 3052  15.784   5.986   8.186 -0.0406  0.0007  0.3009
  191loPI   C1B 3053  15.824   5.827   9.886 -0.3197 -0.2538  0.1261
  191loPI   C2B 3054  15.842   5.856   9.413 -0.2332  0.2673  0.0614
  191loPI   C3B 3055  15.965   5.842   9.019  0.3088  0.1820 -0.1752
  191loPI   C4B 3056  15.927   5.776   8.602 -0.0253 -0.4028  0.0018
  192loPI    C1 3057  11.835  17.252  10.476 -0.1884 -0.0603  0.0860
  192loPI    C2 3058  12.011  17.577  10.322 -0.1131 -0.1506 -0.0206
  192loPI    C3 3059  12.118  17.444  10.684 -0.0221 -0.1562 -0.0493
  192loPI   PO4 3060  11.539  17.225  10.333 -0.1900 -0.0772  0.3351
  192loPI   GL1 3061  11.465  17.332  10.026 -0.1413 -0.1022 -0.1120
  192loPI   GL2 3062  11.504  17.664  10.148 -0.1865 -0.2827 -0.1838
  192loPI   C1A 3063  11.415  17.555   9.614  0.0316  0.3847  0.2495
  192loPI   C2A 3064  11.399  17.621   9.228 -0.2678 -0.0151  0.0358
  192loPI   C3A 3065  11.517  17.581   8.754 -0.1301 -0.2452  0.1500
  192loPI   C4A 3066  11.417  17.584   8.308  0.2682 -0.3249 -0.2402
  192loPI   C5A 3067  11.026  17.680   8.004  0.3388  0.0261 -0.0969
  192loPI   C6A 3068  10.655  17.864   8.033  0.0908  0.0440  0.2576
  192loPI   C1B 3069  11.854  17.675   9.699  0.0115 -0.0878 -0.0517
  192loPI   C2B 3070  11.955  17.704   9.200 -0.1265  0.0631  0.0161
  192loPI   C3B 3071  12.029  17.805   8.762 -0.2330 -0.0424 -0.0336
  192loPI   C4B 3072  11.833  17.828   8.394 -0.1414 -0.3070  0.0597
  193loPI    C1 3073  15.956  16.399  10.756  0.1688  0.0986 -0.2582
  193loPI    C2 3074  15.726  16.669  10.941  0.0719  0.0357 -0.2857
  193loPI    C3 3075  16.066  16.545  11.111 -0.0215 -0.0290 -0.1449
  193loPI   PO4 3076  16.008  16.526  10.525  0.0919  0.0277  0.4662
  193loPI   GL1 3077  16.219  16.374  10.137  0.2361  0.0773 -0.2115
  193loPI   GL2 3078  16.012  16.243   9.964 -0.0924  0.0176  0.0400
  193loPI   C1A 3079  16.471  16.517   9.741 -0.2859 -0.0725 -0.0158
  193loPI   C2A 3080  16.419  16.474   9.254  0.2372  0.2095 -0.0438
  193loPI   C3A 3081  16.414  16.465   8.777 -0.1144 -0.0677  0.0051
  193loPI   C4A 3082  16.474  16.586   8.405  0.0003  0.0425 -0.1285
  193loPI   C5A 3083  16.340  16.851   8.087 -0.0888 -0.0265 -0.1516
  193loPI   C6A 3084  16.187  17.189   7.829 -0.0846 -0.3263 -0.0770
  193loPI   C1B 3085  15.903  16.214   9.524  0.0608 -0.0317  0.1875
  193loPI   C2B 3086  15.892  16.324   9.158 -0.0495 -0.1515 -0.1425
  193loPI   C3B 3087  15.936  16.354   8.688 -0.0593 -0.1185 -0.1272
  193loPI   C4B 3088  16.019  16.533   8.281 -0.0758  0.0419  0.0272
  194loPI    C1 3089  15.705  15.524  10.814 -0.0261 -0.0374  0.1514
  194loPI    C2 3090  15.938  15.661  11.108  0.0197 -0.2191  0.2014
  194loPI    C3 3091  15.854  15.894  10.794 -0.1715  0.0404  0.4393
  194loPI   PO4 3092  15.781  15.313  10.787 -0.1259 -0.1957 -0.2879
  194loPI   GL1 3093  15.998  15.011  10.550 -0.2962 -0.2284 -0.2871
  194loPI   GL2 3094  15.657  14.869  10.510 -0.0901 -0.3245 -0.0286
  194loPI   C1A 3095  16.167  15.144  10.145  0.1470  0.1379  0.0806
  194loPI   C2A 3096  16.254  14.970   9.715  0.0415  0.5059 -0.1988
  194loPI   C3A 3097  16.277  14.912   9.324  0.0360  0.0008 -0.1825
  194loPI   C4A 3098  16.298  15.002   8.868  0.1433  0.2573 -0.0348
  194loPI   C5A 3099  16.177  14.811   8.494 -0.2285 -0.2955 -0.1737
  194loPI   C6A 3100  15.769  14.600   8.344  0.3123  0.1117 -0.2946
  194loPI   C1B 3101  15.587  14.816  10.183 -0.2518  0.0117 -0.0861
  194loPI   C2B 3102  15.768  14.778   9.772 -0.1039 -0.2972 -0.0840
  194loPI   C3B 3103  15.827  14.789   9.373  0.1177 -0.0032 -0.2879
  194loPI   C4B 3104  15.745  14.779   8.948  0.0549  0.2264  0.3472
  195loPI    C1 3105  16.488   3.413  10.764  0.0618 -0.1937 -0.0989
  195loPI    C2 3106  16.158   3.285  10.950 -0.0100  0.0746 -0.0370
  195loPI    C3 3107  16.365   3.036  10.716 -0.2558 -0.0965 -0.0766
  195loPI   PO4 3108  16.329   3.698  10.689 -0.0383 -0.0137  0.3972
  195loPI   GL1 3109  16.242   4.054  10.407 -0.0176 -0.0609  0.0652
  195loPI   GL2 3110  16.067   3.849  10.285 -0.1782 -0.1223  0.0925
  195loPI   C1A 3111  16.496   3.911  10.004  0.0827 -0.0134 -0.0709
  195loPI   C2A 3112  16.436   3.948   9.692 -0.2375  0.1499  0.1001
  195loPI   C3A 3113  16.363   3.874   9.328  0.0548  0.2275 -0.2675
  195loPI   C4A 3114  16.425   3.978   8.829 -0.0018 -0.0783  0.1102
  195loPI   C5A 3115  16.353   3.838   8.433  0.1437 -0.3000 -0.0193
  195loPI   C6A 3116  16.239   4.051   7.958 -0.0965 -0.2611  0.0711
  195loPI   C1B 3117  16.004   3.739   9.929 -0.1094 -0.0770 -0.2593
  195loPI   C2B 3118  15.952   3.698   9.572 -0.0847 -0.0138 -0.0339
  195loPI   C3B 3119  15.908   3.742   9.206  0.2870  0.0516 -0.2841
  195loPI   C4B 3120  15.698   3.663   8.859 -0.1601  0.3124 -0.0901
  196loPI    C1 3121   4.223  14.350  10.209  0.0924 -0.0021 -0.0501
  196loPI    C2 3122   4.150  14.193  10.570 -0.1420 -0.0101 -0.0992
  196loPI    C3 3123   4.142  14.590  10.520 -0.0059 -0.0038 -0.0738
  196loPI   PO4 3124   4.430  14.173  10.156 -0.2316 -0.1610 -0.0579
  196loPI   GL1 3125   4.641  14.280   9.831  0.2178  0.0886  0.1178
  196loPI   GL2 3126   4.466  14.051   9.706  0.1018 -0.1158 -0.1516
  196loPI   C1A 3127   4.720  14.601   9.548  0.0302  0.2077 -0.1334
  196loPI   C2A 3128   4.765  14.657   9.206 -0.0868 -0.1689 -0.0741
  196loPI   C3A 3129   4.890  14.692   8.821 -0.2725  0.1733 -0.1388
  196loPI   C4A 3130   4.875  14.579   8.398  0.0730  0.1852  0.1213
  196loPI   C5A 3131   5.022  14.415   8.046  0.0786  0.1248 -0.2695
  196loPI   C6A 3132   4.795  14.199   7.654  0.0311  0.1554  0.0910
  196loPI   C1B 3133   4.401  14.202   9.326 -0.2477  0.2463 -0.0033
  196loPI   C2B 3134   4.438  14.257   8.890  0.0004 -0.1153 -0.0072
  196loPI   C3B 3135   4.504  14.208   8.488  0.1679  0.0898  0.1409
  196loPI   C4B 3136   4.502  14.281   8.062 -0.0014 -0.2508 -0.1260
  197loPI    C1 3137   0.355  12.060  10.648 -0.1369 -0.1943 -0.3000
  197loPI    C2 3138   0.646  12.009  10.378 -0.0007  0.0046 -0.1940
  197loPI    C3 3139   0.650  11.799  10.719  0.1602  0.1900 -0.0799
  197loPI   PO4 3140   0.176  12.094  10.406 -0.0428  0.0301 -0.2895
  197loPI   GL1 3141  -0.208  12.225  10.124 -0.1922  0.1858 -0.1081
  197loPI   GL2 3142  -0.038  12.512  10.178 -0.2059  0.0144  0.0368
  197loPI   C1A 3143  -0.338  12.063   9.770  0.0016  0.0653  0.0944
  197loPI   C2A 3144  -0.350  12.013   9.350 -0.0349  0.1117 -0.1623
  197loPI   C3A 3145  -0.380  11.788   8.938  0.0055  0.1013 -0.0231
  197loPI   C4A 3146  -0.296  11.707   8.620 -0.0644  0.3234  0.0278
  197loPI   C5A 3147   0.025  11.616   8.298  0.3421 -0.1266 -0.0069
  197loPI   C6A 3148   0.274  11.941   8.023  0.0312  0.1528 -0.0150
  197loPI   C1B 3149  -0.059  12.593   9.815 -0.1397  0.1101  0.2214
  197loPI   C2B 3150  -0.193  12.620   9.444 -0.1219  0.0282  0.1500
  197loPI   C3B 3151  -0.333  12.472   9.063 -0.2942 -0.3563 -0.1150
  197loPI   C4B 3152  -0.183  12.734   8.673 -0.2114  0.0262 -0.0157
  198loPI    C1 3153   7.575  10.101  10.449 -0.5204 -0.3106  0.0842
  198loPI    C2 3154   7.588   9.909  10.800  0.0147 -0.0074  0.2422
  198loPI    C3 3155   7.509  10.301  10.790  0.1246  0.0109  0.0368
  198loPI   PO4 3156   7.543   9.927  10.289  0.1980  0.0835  0.0294
  198loPI   GL1 3157   7.427  10.000   9.870 -0.2118  0.2842 -0.1853
  198loPI   GL2 3158   7.135  10.192   9.751  0.2632  0.3346  0.1460
  198loPI   C1A 3159   7.358   9.774   9.495  0.1908 -0.2322 -0.2494
  198loPI   C2A 3160   7.410   9.832   9.099  0.3625  0.1845  0.0235
  198loPI   C3A 3161   7.379  10.023   8.695 -0.2314  0.2466  0.1400
  198loPI   C4A 3162   7.242  10.069   8.235 -0.2001 -0.3673  0.1118
  198loPI   C5A 3163   7.005  10.175   7.833 -0.1871 -0.0526 -0.4271
  198loPI   C6A 3164   6.808  10.276   7.412  0.0460  0.0750  0.1598
  198loPI   C1B 3165   7.154  10.223   9.263 -0.0836 -0.2769  0.0509
  198loPI   C2B 3166   7.120  10.423   8.900 -0.2893 -0.0179  0.0307
  198loPI   C3B 3167   7.094  10.546   8.401 -0.2397  0.3173 -0.0939
  198loPI   C4B 3168   7.300  10.576   8.044  0.1624  0.1785  0.3221
  199loPI    C1 3169  13.502  12.622  10.744  0.0133 -0.1774  0.0137
  199loPI    C2 3170  13.351  12.750  11.091 -0.2083 -0.0992 -0.1092
  199loPI    C3 3171  13.644  12.956  10.912 -0.0440 -0.1784  0.0642
  199loPI   PO4 3172  13.351  12.456  10.585  0.0623  0.2072 -0.1545
  199loPI   GL1 3173  13.304  12.328  10.188  0.0232 -0.0659 -0.0521
  199loPI   GL2 3174  13.245  12.051  10.275  0.0671 -0.1900  0.0785
  199loPI   C1A 3175  13.614  12.579   9.843  0.1211 -0.0391  0.1204
  199loPI   C2A 3176  13.644  12.621   9.464  0.1289  0.1069 -0.1011
  199loPI   C3A 3177  13.605  12.542   9.014 -0.0611  0.1726 -0.0630
  199loPI   C4A 3178  13.588  12.466   8.683 -0.1341 -0.4821  0.0065
  199loPI   C5A 3179  13.747  12.313   8.300  0.0164  0.0712 -0.3012
  199loPI   C6A 3180  13.512  12.118   7.941 -0.1522 -0.0990  0.2107
  199loPI   C1B 3181  13.241  11.975   9.820 -0.0364  0.2164 -0.2822
  199loPI   C2B 3182  12.992  11.998   9.409  0.0759 -0.1629 -0.0702
  199loPI   C3B 3183  12.760  12.123   9.149  0.0734  0.1807  0.2922
  199loPI   C4B 3184  12.510  12.122   8.834  0.0900  0.2162  0.0056
  200loPI    C1 3185  16.649   2.719  10.470  0.2415  0.2023  0.2397
  200loPI    C2 3186  16.297   2.546  10.548  0.2670 -0.0670 -0.2074
  200loPI    C3 3187  16.610   2.480  10.788  0.0134  0.1947  0.2077
  200loPI   PO4 3188  16.745   2.727  10.255  0.0609 -0.1683  0.2097
  200loPI   GL1 3189  16.699   2.969   9.921  0.3583  0.2484 -0.4464
  200loPI   GL2 3190  16.964   3.034   9.906  0.1027  0.2413 -0.0487
  200loPI   C1A 3191  16.697   2.923   9.511 -0.1586 -0.3990  0.2993
  200loPI   C2A 3192  16.760   3.103   9.119  0.1025 -0.2766 -0.1761
  200loPI   C3A 3193  16.799   2.870   8.725  0.0391 -0.1140  0.0557
  200loPI   C4A 3194  16.855   3.045   8.361  0.1031  0.1960  0.0137
  200loPI   C5A 3195  16.560   3.196   8.032  0.0978  0.1760  0.2806
  200loPI   C6A 3196  16.517   3.299   7.555  0.3536 -0.0477 -0.3576
  200loPI   C1B 3197  17.207   3.282   9.698  0.2978  0.0027 -0.3007
  200loPI   C2B 3198  17.200   3.326   9.268 -0.0598  0.2611 -0.1620
  200loPI   C3B 3199  17.160   3.413   8.846 -0.0126 -0.1505  0.2772
  200loPI   C4B 3200  16.907   3.544   8.547 -0.2029 -0.1197 -0.0126
  201loPI    C1 3201  10.347   0.612  10.454  0.2018  0.1378  0.1212
  201loPI    C2 3202  10.601   0.637  10.762 -0.1538  0.3284  0.4068
  201loPI    C3 3203  10.281   0.397  10.785  0.0559 -0.0031  0.0027
  201loPI   PO4 3204  10.508   0.581  10.206  0.2129  0.6114  0.3145
  201loPI   GL1 3205  10.333   0.514   9.818 -0.2403  0.1859 -0.2828
  201loPI   GL2 3206  10.044   0.439  10.069 -0.0953  0.0283  0.0421
  201loPI   C1A 3207  10.222   0.387   9.401 -0.0520 -0.2145 -0.0221
  201loPI   C2A 3208  10.169   0.405   8.956  0.2942  0.1490 -0.0618
  201loPI   C3A 3209  10.381   0.308   8.691 -0.0495 -0.1277  0.1727
  201loPI   C4A 3210  10.338   0.405   8.262  0.2336  0.1034  0.0003
  201loPI   C5A 3211  10.467   0.553   7.950  0.1907 -0.4111  0.0758
  201loPI   C6A 3212  10.582   0.935   7.829 -0.0013 -0.3327  0.1251
  201loPI   C1B 3213   9.921   0.684   9.651 -0.2254  0.0884 -0.1593
  201loPI   C2B 3214   9.844   0.684   9.197 -0.0041  0.2726 -0.2029
  201loPI   C3B 3215   9.862   0.682   8.622 -0.1613 -0.0158 -0.1518
  201loPI   C4B 3216   9.727   1.010   8.318  0.2570 -0.1088  0.1412
  202loPI    C1 3217   1.608   3.408  10.811 -0.1349 -0.0012 -0.3871
  202loPI    C2 3218   1.389   3.281  11.121  0.0471  0.1029 -0.2133
  202loPI    C3 3219   1.771   3.167  11.086  0.1377  0.3925 -0.1937
  202loPI   PO4 3220   1.518   3.406  10.475 -0.2840  0.0042 -0.1074
  202loPI   GL1 3221   1.541   3.461  10.101 -0.1014  0.0862  0.2978
  202loPI   GL2 3222   1.558   3.765  10.064 -0.1112  0.2556 -0.3236
  202loPI   C1A 3223   1.381   3.095   9.731  0.0264 -0.1680  0.2467
  202loPI   C2A 3224   1.470   3.073   9.283 -0.2479 -0.2446 -0.0588
  202loPI   C3A 3225   1.423   2.932   8.893  0.2732  0.5075 -0.0902
  202loPI   C4A 3226   1.267   2.968   8.436  0.1282 -0.0188 -0.1698
  202loPI   C5A 3227   1.308   3.288   8.164  0.1042  0.0566 -0.1128
  202loPI   C6A 3228   1.083   3.731   8.240  0.1349 -0.0887  0.0505
  202loPI   C1B 3229   1.197   3.595   9.731  0.2072  0.1490 -0.2807
  202loPI   C2B 3230   1.088   3.364   9.306 -0.0627  0.2846  0.3262
  202loPI   C3B 3231   1.054   3.273   8.868 -0.1916 -0.1420 -0.2251
  202loPI   C4B 3232   0.842   3.273   8.467  0.3323 -0.0424 -0.2757
  203loPI    C1 3233   1.923   2.304  10.657  0.0476 -0.1374  0.2203
  203loPI    C2 3234   2.265   2.321  10.451 -0.0263  0.1923  0.1190
  203loPI    C3 3235   2.260   2.421  10.838 -0.0247  0.2749  0.0978
  203loPI   PO4 3236   1.720   2.400  10.510 -0.0359 -0.1594  0.1419
  203loPI   GL1 3237   1.620   2.727  10.137 -0.1206  0.4420 -0.3066
  203loPI   GL2 3238   1.766   3.005  10.146  0.2603 -0.3203  0.1301
  203loPI   C1A 3239   1.723   2.694   9.657 -0.0886  0.0479 -0.1176
  203loPI   C2A 3240   1.749   2.662   9.276  0.1748  0.1340  0.1738
  203loPI   C3A 3241   1.670   2.492   8.895 -0.2606 -0.2859  0.4731
  203loPI   C4A 3242   1.652   2.610   8.449 -0.0311  0.0110 -0.0313
  203loPI   C5A 3243   1.709   2.710   8.098 -0.0819  0.1166 -0.1453
  203loPI   C6A 3244   1.947   2.517   7.792 -0.0786  0.1401 -0.1626
  203loPI   C1B 3245   1.902   3.165   9.758 -0.1001  0.0984  0.3458
  203loPI   C2B 3246   1.948   3.180   9.241  0.1046  0.0699 -0.0951
  203loPI   C3B 3247   1.914   3.072   8.919 -0.0659 -0.0386 -0.1730
  203loPI   C4B 3248   1.743   3.148   8.525 -0.2087 -0.0635  0.0724
  204loPI    C1 3249  12.092  14.593  10.461  0.0749 -0.2192 -0.1385
  204loPI    C2 3250  12.210  14.368  10.770  0.0448  0.0682  0.0869
  204loPI    C3 3251  11.829  14.488  10.744 -0.0081 -0.1474 -0.1885
  204loPI   PO4 3252  12.059  14.480  10.251  0.1352 -0.1665 -0.1283
  204loPI   GL1 3253  12.183  14.194   9.990  0.1989  0.0113 -0.1209
  204loPI   GL2 3254  12.303  14.440   9.763  0.2775  0.0667  0.1734
  204loPI   C1A 3255  11.957  14.030   9.733  0.0948  0.1267 -0.0228
  204loPI   C2A 3256  11.864  14.104   9.382 -0.3980 -0.4444 -0.1555
  204loPI   C3A 3257  12.058  14.073   8.991 -0.0812 -0.0882  0.0493
  204loPI   C4A 3258  12.151  13.921   8.544  0.1810 -0.1337  0.0955
  204loPI   C5A 3259  12.335  13.798   8.046  0.1634 -0.4968 -0.3065
  204loPI   C6A 3260  12.627  13.799   7.632  0.1755  0.0130  0.0544
  204loPI   C1B 3261  12.333  14.432   9.323 -0.0697 -0.0912  0.0442
  204loPI   C2B 3262  12.395  14.386   8.963  0.0205 -0.0430  0.3916
  204loPI   C3B 3263  12.253  14.456   8.503  0.0886 -0.1366  0.1525
  204loPI   C4B 3264  12.290  14.333   8.144 -0.0163  0.1850  0.0823
  205loPI    C1 3265   2.562   2.034  10.939 -0.0888  0.0507 -0.0254
  205loPI    C2 3266   2.715   1.691  11.077  0.1434  0.2041  0.1055
  205loPI    C3 3267   2.443   1.889  11.293 -0.0672  0.0527 -0.0173
  205loPI   PO4 3268   2.536   1.891  10.636 -0.0986 -0.1525  0.3622
  205loPI   GL1 3269   2.529   1.807  10.144 -0.1234  0.2423 -0.0278
  205loPI   GL2 3270   2.422   1.487  10.230  0.3497 -0.0496 -0.0252
  205loPI   C1A 3271   2.746   1.876   9.730 -0.0158 -0.2236 -0.0493
  205loPI   C2A 3272   2.871   1.711   9.372  0.0064  0.0102  0.1148
  205loPI   C3A 3273   2.867   1.841   8.926 -0.0306  0.0384  0.4351
  205loPI   C4A 3274   2.636   1.835   8.501 -0.1273  0.0776 -0.1666
  205loPI   C5A 3275   2.558   2.018   8.098  0.0342  0.0949  0.0737
  205loPI   C6A 3276   2.527   2.348   7.885 -0.0115  0.2033  0.0680
  205loPI   C1B 3277   2.653   1.306   9.901 -0.0394  0.2925  0.2603
  205loPI   C2B 3278   2.534   1.335   9.521  0.0265  0.1498  0.1318
  205loPI   C3B 3279   2.580   1.369   9.109  0.0718  0.1677  0.1271
  205loPI   C4B 3280   2.501   1.396   8.629 -0.3933 -0.0478  0.0571
  206loPI    C1 3281   3.678   0.495  10.497  0.1134  0.0339 -0.1607
  206loPI    C2 3282   3.644   0.527  10.894  0.1012 -0.0655 -0.1533
  206loPI    C3 3283   3.407   0.743  10.654  0.1014 -0.0133 -0.1066
  206loPI   PO4 3284   3.989   0.381  10.513  0.0997 -0.1103 -0.0177
  206loPI   GL1 3285   4.125   0.286  10.056 -0.0493 -0.2602 -0.0434
  206loPI   GL2 3286   3.896   0.636  10.037  0.0747 -0.1064 -0.0469
  206loPI   C1A 3287   4.120   0.390   9.611  0.3039 -0.1340 -0.2915
  206loPI   C2A 3288   4.067   0.345   9.222 -0.2784 -0.1707  0.0911
  206loPI   C3A 3289   4.017   0.378   8.747  0.0424 -0.1433 -0.0275
  206loPI   C4A 3290   4.179   0.616   8.420 -0.1640 -0.0690  0.2673
  206loPI   C5A 3291   3.898   0.804   8.036 -0.0905 -0.1031  0.1236
  206loPI   C6A 3292   3.756   0.856   7.582 -0.0790  0.1680  0.2942
  206loPI   C1B 3293   3.672   0.541   9.746 -0.2779 -0.0523  0.0480
  206loPI   C2B 3294   3.654   0.537   9.324  0.3505  0.1286 -0.1353
  206loPI   C3B 3295   3.532   0.572   8.974 -0.2899  0.1303 -0.0417
  206loPI   C4B 3296   3.441   0.484   8.597 -0.2064 -0.0273 -0.0022
  207loPI    C1 3297  16.829  11.394  10.674  0.1668  0.2518  0.0159
  207loPI    C2 3298  16.717  11.496  11.044 -0.0663  0.1534 -0.0256
  207loPI    C3 3299  16.699  11.114  10.928  0.2188  0.1510 -0.0679
  207loPI   PO4 3300  17.050  11.475  10.598  0.0779 -0.1156 -0.1725
  207loPI   GL1 3301  17.112  11.759  10.279 -0.0098  0.0642 -0.1683
  207loPI   GL2 3302  16.920  11.701  10.041 -0.1348 -0.1376  0.1756
  207loPI   C1A 3303  17.491  11.707  10.042  0.1292 -0.1946 -0.1425
  207loPI   C2A 3304  17.658  11.565   9.548  0.0180  0.1618  0.1725
  207loPI   C3A 3305  17.812  11.277   9.120 -0.0536  0.1621 -0.0215
  207loPI   C4A 3306  17.817  11.174   8.711 -0.2901  0.1369 -0.0932
  207loPI   C5A 3307  17.885  11.158   8.246  0.3192 -0.1144 -0.1701
  207loPI   C6A 3308  17.860  11.424   7.860  0.2266 -0.3627 -0.4185
  207loPI   C1B 3309  16.910  11.367   9.646  0.0137  0.0079  0.0218
  207loPI   C2B 3310  16.878  11.282   9.190 -0.3732 -0.0341 -0.0094
  207loPI   C3B 3311  16.892  11.393   8.736 -0.1053 -0.3748 -0.1694
  207loPI   C4B 3312  16.838  11.331   8.274  0.1056 -0.1446  0.0406
  208loPI    C1 3313  17.587  15.148  10.658  0.0642 -0.1397  0.2061
  208loPI    C2 3314  17.314  15.145  10.366  0.0822 -0.4693  0.1884
  208loPI    C3 3315  17.215  15.279  10.730  0.0946  0.0625  0.0057
  208loPI   PO4 3316  17.829  15.114  10.420  0.0754  0.1701 -0.2508
  208loPI   GL1 3317  17.715  15.021  10.047  0.0987  0.2269 -0.1358
  208loPI   GL2 3318  17.547  15.372   9.982 -0.0693  0.2306  0.2378
  208loPI   C1A 3319  17.739  15.068   9.606  0.0815  0.0503  0.3059
  208loPI   C2A 3320  17.751  14.951   9.208 -0.3317 -0.1708 -0.2299
  208loPI   C3A 3321  17.595  15.055   8.791  0.2999  0.1048  0.3203
  208loPI   C4A 3322  17.782  14.905   8.317  0.0625  0.0049  0.1355
  208loPI   C5A 3323  17.895  14.787   7.880 -0.1189 -0.0921  0.0518
  208loPI   C6A 3324  17.929  14.622   7.453 -0.0085 -0.1429 -0.0013
  208loPI   C1B 3325  17.336  15.445   9.628 -0.0916 -0.0798 -0.0448
  208loPI   C2B 3326  17.266  15.307   9.182 -0.3374 -0.3207 -0.0782
  208loPI   C3B 3327  17.209  15.437   8.735 -0.0643  0.6440  0.1685
  208loPI   C4B 3328  17.040  15.397   8.278 -0.1862 -0.1258 -0.2139
  209loPI    C1 3329  13.362  17.550  10.595 -0.1002 -0.1987  0.0016
  209loPI    C2 3330  13.370  17.225  10.362  0.0836 -0.1082 -0.1209
  209loPI    C3 3331  13.699  17.338  10.558  0.0173 -0.0029 -0.0691
  209loPI   PO4 3332  13.321  17.702  10.497  0.0502 -0.2545  0.0678
  209loPI   GL1 3333  13.336  18.019  10.071 -0.0292  0.0086  0.1061
  209loPI   GL2 3334  13.153  18.238  10.031  0.1881 -0.4409 -0.1995
  209loPI   C1A 3335  13.566  18.318   9.726  0.2547  0.2939  0.0703
  209loPI   C2A 3336  13.520  18.356   9.323 -0.1608 -0.1729 -0.2231
  209loPI   C3A 3337  13.340  17.908   9.123 -0.0166  0.2060 -0.0408
  209loPI   C4A 3338  13.477  17.509   8.952 -0.0132 -0.3931  0.1065
  209loPI   C5A 3339  13.337  17.387   8.604 -0.1152 -0.0179 -0.1005
  209loPI   C6A 3340  13.589  17.212   8.338  0.0402  0.2583  0.1150
  209loPI   C1B 3341  13.152  18.099   9.571  0.1510 -0.0220 -0.2031
  209loPI   C2B 3342  12.908  18.125   9.206 -0.0416  0.0675  0.1145
  209loPI   C3B 3343  12.953  18.102   8.764 -0.1377  0.0957 -0.3095
  209loPI   C4B 3344  12.900  18.224   8.298 -0.0701  0.0408 -0.0907
  210loPI    C1 3345   9.199  13.178  10.609  0.1227 -0.0975  0.0289
  210loPI    C2 3346   9.260  13.195  11.004  0.0170 -0.2301  0.0517
  210loPI    C3 3347   8.972  13.416  10.836  0.1641 -0.0552  0.0261
  210loPI   PO4 3348   9.437  13.269  10.465  0.0383 -0.1313  0.0054
  210loPI   GL1 3349   9.546  13.074  10.022  0.0590  0.0951 -0.1228
  210loPI   GL2 3350   9.332  12.847   9.882 -0.1971 -0.1305 -0.3446
  210loPI   C1A 3351   9.813  13.165   9.731  0.0809 -0.2131 -0.1658
  210loPI   C2A 3352   9.806  13.224   9.365  0.1791 -0.1469 -0.3563
  210loPI   C3A 3353   9.875  13.302   8.935  0.0841  0.0090 -0.1578
  210loPI   C4A 3354   9.709  13.563   8.588 -0.0304  0.1065  0.2282
  210loPI   C5A 3355   9.691  13.722   8.112  0.4252  0.0711  0.0530
  210loPI   C6A 3356   9.633  14.070   7.834  0.1261  0.0936 -0.0263
  210loPI   C1B 3357   9.434  12.961   9.481 -0.2866  0.0763  0.0226
  210loPI   C2B 3358   9.422  13.016   9.050  0.2363 -0.1961  0.4405
  210loPI   C3B 3359   9.385  13.117   8.642  0.5016  0.2119 -0.0666
  210loPI   C4B 3360   9.613  13.129   8.268 -0.0420 -0.2523 -0.1399
  211loPI    C1 3361   5.028   1.052  11.106  0.2197 -0.1300  0.0526
  211loPI    C2 3362   5.089   0.672  10.998  0.1443 -0.1531  0.0904
  211loPI    C3 3363   5.106   0.775  11.384  0.1663 -0.1176  0.0800
  211loPI   PO4 3364   5.046   1.169  10.745  0.1659  0.0046 -0.1584
  211loPI   GL1 3365   5.349   1.254  10.435  0.1223 -0.1399  0.0944
  211loPI   GL2 3366   5.194   1.021  10.196 -0.0477  0.1634  0.0375
  211loPI   C1A 3367   5.455   1.408  10.030  0.2620 -0.1342 -0.1150
  211loPI   C2A 3368   5.381   1.174   9.697 -0.1671  0.1106 -0.1122
  211loPI   C3A 3369   5.458   1.219   9.250  0.2442 -0.1033  0.0783
  211loPI   C4A 3370   5.508   1.131   8.818 -0.1045 -0.0266 -0.2169
  211loPI   C5A 3371   5.236   1.236   8.462  0.0360 -0.0581 -0.3517
  211loPI   C6A 3372   4.765   1.298   8.402  0.0316  0.3298 -0.0807
  211loPI   C1B 3373   5.286   0.639   9.862  0.2872  0.0937  0.0637
  211loPI   C2B 3374   5.350   0.618   9.356  0.0807  0.0731 -0.0276
  211loPI   C3B 3375   5.360   0.626   8.920 -0.0445 -0.2177 -0.0563
  211loPI   C4B 3376   5.454   0.742   8.481  0.0032  0.3649  0.0770
  212loPI    C1 3377  15.505   1.413  10.568  0.0026 -0.0543  0.0744
  212loPI    C2 3378  15.635   1.487  10.939  0.0792  0.0704  0.0233
  212loPI    C3 3379  15.312   1.677  10.799  0.1037  0.0910 -0.0055
  212loPI   PO4 3380  15.691   1.451  10.372  0.1200 -0.2696 -0.1233
  212loPI   GL1 3381  16.101   1.566  10.162 -0.1810 -0.1535 -0.0306
  212loPI   GL2 3382  16.165   1.298  10.238  0.0423  0.4055 -0.0133
  212loPI   C1A 3383  15.885   1.332   9.818  0.1345  0.2862 -0.2133
  212loPI   C2A 3384  15.784   1.286   9.420  0.1310 -0.0301  0.5426
  212loPI   C3A 3385  15.760   1.267   8.918  0.2049  0.0527 -0.0545
  212loPI   C4A 3386  15.735   1.280   8.483  0.0588 -0.0185  0.1363
  212loPI   C5A 3387  15.511   1.048   8.252 -0.0249  0.0305 -0.0440
  212loPI   C6A 3388  15.102   1.004   8.077 -0.3210  0.0708  0.0464
  212loPI   C1B 3389  16.321   1.039   9.852  0.0454  0.0786 -0.1043
  212loPI   C2B 3390  16.242   0.932   9.384  0.2899 -0.1059 -0.3480
  212loPI   C3B 3391  16.303   0.789   8.989  0.2034  0.2102 -0.1290
  212loPI   C4B 3392  16.074   0.925   8.664 -0.0309  0.1116  0.1479
  213loPI    C1 3393  15.345   4.514  10.670  0.0121  0.3444 -0.0075
  213loPI    C2 3394  15.621   4.512  10.959  0.1632 -0.1300 -0.1445
  213loPI    C3 3395  15.238   4.586  11.048  0.2283 -0.1397  0.1542
  213loPI   PO4 3396  15.459   4.635  10.463  0.1748 -0.0954  0.3324
  213loPI   GL1 3397  15.235   4.622  10.088 -0.0954  0.0983  0.1110
  213loPI   GL2 3398  15.278   4.839   9.794 -0.3299 -0.1503 -0.0144
  213loPI   C1A 3399  14.936   4.502   9.772 -0.1673 -0.0656  0.1237
  213loPI   C2A 3400  14.913   4.598   9.390  0.1488  0.1896  0.2713
  213loPI   C3A 3401  14.870   4.754   8.993  0.3707 -0.0270  0.0286
  213loPI   C4A 3402  14.910   4.969   8.639 -0.0764  0.0418 -0.0761
  213loPI   C5A 3403  14.642   5.175   8.366 -0.0863  0.1207  0.0986
  213loPI   C6A 3404  14.452   5.597   8.383  0.0438 -0.0280 -0.0569
  213loPI   C1B 3405  15.243   5.015   9.461 -0.2439 -0.1960  0.0567
  213loPI   C2B 3406  15.314   4.989   9.022  0.1372 -0.1606 -0.1826
  213loPI   C3B 3407  15.380   5.223   8.596 -0.1433 -0.0022  0.4811
  213loPI   C4B 3408  15.432   5.503   8.365 -0.4170  0.0477 -0.2187
  214loPI    C1 3409   5.141  14.765  10.505 -0.1638  0.2187  0.1697
  214loPI    C2 3410   5.458  14.996  10.584  0.0572  0.0026 -0.0672
  214loPI    C3 3411   5.326  14.737  10.859  0.2501 -0.0922 -0.0624
  214loPI   PO4 3412   5.058  14.880  10.324 -0.2042 -0.2585 -0.1428
  214loPI   GL1 3413   5.180  14.906   9.872  0.3480 -0.0686  0.1643
  214loPI   GL2 3414   5.140  14.579   9.895  0.0446 -0.0656  0.2464
  214loPI   C1A 3415   5.143  15.004   9.522  0.1104 -0.0995  0.2008
  214loPI   C2A 3416   5.081  15.037   9.116 -0.1502  0.1051  0.0350
  214loPI   C3A 3417   5.253  15.072   8.603  0.0312 -0.0116  0.0432
  214loPI   C4A 3418   5.374  14.811   8.246 -0.0103  0.0038 -0.0491
  214loPI   C5A 3419   5.427  14.612   7.822 -0.1866  0.2044 -0.2135
  214loPI   C6A 3420   5.623  14.812   7.461 -0.0642  0.0167  0.0158
  214loPI   C1B 3421   5.357  14.479   9.477  0.0379  0.0385  0.2108
  214loPI   C2B 3422   5.278  14.558   9.094  0.3496  0.1772 -0.0251
  214loPI   C3B 3423   5.320  14.419   8.670  0.1553  0.2526 -0.0290
  214loPI   C4B 3424   5.475  14.269   8.332 -0.1153  0.2476 -0.0247
  215loPI    C1 3425   0.848  15.707  10.911  0.3658 -0.0381 -0.2949
  215loPI    C2 3426   0.808  15.914  11.252 -0.0042  0.1301 -0.4351
  215loPI    C3 3427   0.643  15.551  11.217  0.0004  0.1293 -0.4481
  215loPI   PO4 3428   0.721  15.920  10.681 -0.1565 -0.2712 -0.0182
  215loPI   GL1 3429   0.682  16.039  10.221  0.4942 -0.1298  0.0491
  215loPI   GL2 3430   0.762  16.268  10.036  0.0431  0.2126  0.1329
  215loPI   C1A 3431   0.807  15.788   9.923 -0.0104  0.0620 -0.0358
  215loPI   C2A 3432   0.533  15.584   9.574  0.1179 -0.0423 -0.0130
  215loPI   C3A 3433   0.475  15.512   9.132  0.0435  0.4448 -0.1607
  215loPI   C4A 3434   0.487  15.429   8.766  0.1936 -0.1216  0.2869
  215loPI   C5A 3435   0.431  15.380   8.344 -0.2066 -0.1548  0.3645
  215loPI   C6A 3436   0.625  15.488   7.927  0.0469 -0.1091  0.0299
  215loPI   C1B 3437   0.641  16.127   9.681 -0.0709  0.0681  0.2996
  215loPI   C2B 3438   0.702  16.050   9.288  0.1279 -0.0924 -0.1438
  215loPI   C3B 3439   0.495  15.996   8.819 -0.1721  0.0445 -0.1668
  215loPI   C4B 3440   0.596  15.898   8.444 -0.1661  0.0742 -0.0576
  216loPI    C1 3441   0.414   1.972  10.756 -0.1777  0.2902 -0.1011
  216loPI    C2 3442   0.136   1.694  10.829  0.1696 -0.0226  0.0641
  216loPI    C3 3443   0.155   2.022  11.057  0.0161 -0.0599  0.1316
  216loPI   PO4 3444   0.416   1.978  10.523 -0.1259 -0.1308  0.1675
  216loPI   GL1 3445   0.589   2.053  10.187 -0.0976 -0.2016 -0.1967
  216loPI   GL2 3446   0.708   1.803  10.046 -0.0403 -0.1762  0.3503
  216loPI   C1A 3447   0.494   2.361   9.765  0.0755  0.2548 -0.1616
  216loPI   C2A 3448   0.480   2.441   9.317 -0.0789  0.0044 -0.3255
  216loPI   C3A 3449   0.518   2.513   8.859 -0.0327 -0.0273  0.1743
  216loPI   C4A 3450   0.701   2.293   8.497 -0.0879 -0.0533 -0.0439
  216loPI   C5A 3451   0.919   1.968   8.282  0.1021 -0.0714 -0.1783
  216loPI   C6A 3452   0.733   1.650   7.988 -0.1100  0.1006 -0.0930
  216loPI   C1B 3453   0.663   1.791   9.590 -0.1179 -0.1845 -0.0877
  216loPI   C2B 3454   0.687   1.661   9.277  0.1634 -0.1184 -0.1661
  216loPI   C3B 3455   0.727   1.287   9.060  0.1775  0.1795 -0.0846
  216loPI   C4B 3456   0.785   1.049   8.777  0.1238 -0.2906  0.1117
  217loPI    C1 3457  10.356   4.686  10.180  0.3361 -0.0381  0.0816
  217loPI    C2 3458  10.542   4.829  10.504  0.2712 -0.0340  0.1174
  217loPI    C3 3459  10.320   4.498  10.532  0.1842  0.0226  0.0993
  217loPI   PO4 3460  10.500   4.849   9.979  0.0811  0.1306 -0.0044
  217loPI   GL1 3461  10.384   5.108   9.633  0.1881 -0.0949  0.4626
  217loPI   GL2 3462  10.133   5.128   9.523 -0.0209 -0.0462 -0.0036
  217loPI   C1A 3463  10.368   4.748   9.314  0.2252  0.1767  0.0359
  217loPI   C2A 3464  10.353   4.687   8.837 -0.1168  0.0321 -0.2247
  217loPI   C3A 3465  10.565   4.728   8.436 -0.0866  0.1106 -0.1565
  217loPI   C4A 3466  10.817   4.710   8.082  0.1345  0.0136  0.0262
  217loPI   C5A 3467  11.105   4.658   7.845 -0.2160 -0.0762 -0.0306
  217loPI   C6A 3468  11.468   4.917   7.621 -0.0899  0.0568 -0.3247
  217loPI   C1B 3469  10.129   5.113   9.022 -0.0260 -0.2243  0.1685
  217loPI   C2B 3470  10.167   5.123   8.598  0.1003  0.2905 -0.1117
  217loPI   C3B 3471  10.143   5.026   8.193 -0.2534  0.3778  0.0785
  217loPI   C4B 3472  10.184   5.091   7.887  0.1500 -0.3020  0.1800
  218loPI    C1 3473   8.183  16.153  10.616 -0.1111 -0.1046  0.2202
  218loPI    C2 3474   7.792  16.078  10.657 -0.0973 -0.2005  0.1779
  218loPI    C3 3475   7.917  16.448  10.568 -0.1729 -0.1512  0.2760
  218loPI   PO4 3476   8.246  15.903  10.557  0.0837 -0.0768 -0.1616
  218loPI   GL1 3477   8.553  15.599  10.327 -0.2733 -0.0490 -0.2597
  218loPI   GL2 3478   8.828  15.562  10.180  0.0597  0.0832  0.0043
  218loPI   C1A 3479   8.341  15.742   9.913 -0.0429  0.2186 -0.0038
  218loPI   C2A 3480   8.436  15.773   9.468 -0.0901 -0.1973 -0.0463
  218loPI   C3A 3481   8.146  15.835   9.107  0.1829 -0.2149 -0.1820
  218loPI   C4A 3482   8.023  15.984   8.745 -0.0917  0.2289  0.0171
  218loPI   C5A 3483   8.136  15.712   8.318  0.2770  0.0846 -0.1210
  218loPI   C6A 3484   8.368  15.333   8.274  0.1476 -0.0083  0.3717
  218loPI   C1B 3485   8.767  15.486   9.763 -0.5816  0.0504 -0.2645
  218loPI   C2B 3486   8.910  15.584   9.360 -0.1488  0.0121 -0.0792
  218loPI   C3B 3487   8.830  15.700   8.958 -0.1646 -0.2153 -0.1997
  218loPI   C4B 3488   8.545  15.895   8.767 -0.0035 -0.0815 -0.0548
  219loPI    C1 3489  16.579   1.617  10.585 -0.0254 -0.0112 -0.1652
  219loPI    C2 3490  16.750   1.931  10.764  0.1287 -0.0534 -0.2366
  219loPI    C3 3491  16.564   1.653  10.983  0.2094 -0.0414 -0.1522
  219loPI   PO4 3492  16.504   1.665  10.389 -0.0165  0.1553 -0.2828
  219loPI   GL1 3493  16.468   1.849  10.025 -0.0783  0.0543 -0.0580
  219loPI   GL2 3494  16.462   1.537   9.796  0.1007  0.1394 -0.1820
  219loPI   C1A 3495  16.466   1.982   9.571 -0.0884 -0.0751 -0.2811
  219loPI   C2A 3496  16.391   2.019   9.150 -0.1045  0.0543 -0.1237
  219loPI   C3A 3497  16.392   1.965   8.617  0.0436 -0.0646 -0.1954
  219loPI   C4A 3498  16.468   1.777   8.227  0.0054 -0.1221  0.1358
  219loPI   C5A 3499  16.699   1.612   7.982 -0.1035 -0.1249  0.2986
  219loPI   C6A 3500  16.992   1.373   7.765  0.1867  0.2019 -0.1706
  219loPI   C1B 3501  16.328   1.401   9.470 -0.0306 -0.1038 -0.0177
  219loPI   C2B 3502  16.354   1.322   8.947  0.0707 -0.1103  0.0299
  219loPI   C3B 3503  16.305   1.288   8.466 -0.2830  0.0304 -0.0515
  219loPI   C4B 3504  16.653   1.186   8.166  0.2252  0.0092  0.0616
  220loPI    C1 3505   4.246   6.594  10.422 -0.3195  0.0525 -0.0797
  220loPI    C2 3506   3.950   6.357  10.548 -0.1075 -0.1473  0.0498
  220loPI    C3 3507   4.153   6.581  10.811 -0.1481 -0.0044 -0.0395
  220loPI   PO4 3508   4.033   6.759  10.143  0.1376 -0.0513  0.0922
  220loPI   GL1 3509   3.846   6.816   9.843 -0.1374 -0.1983 -0.2035
  220loPI   GL2 3510   4.109   6.695   9.651 -0.0289 -0.5587  0.3097
  220loPI   C1A 3511   3.619   6.858   9.486 -0.1037  0.1133  0.1351
  220loPI   C2A 3512   3.528   6.852   9.046  0.0728 -0.0125  0.0298
  220loPI   C3A 3513   3.448   6.928   8.644  0.2743 -0.1873  0.1494
  220loPI   C4A 3514   3.457   6.754   8.244 -0.0351  0.1111  0.1702
  220loPI   C5A 3515   3.617   6.669   7.811  0.2051 -0.0433 -0.3616
  220loPI   C6A 3516   3.557   6.975   7.463  0.1543  0.0228  0.0375
  220loPI   C1B 3517   3.945   6.535   9.316  0.1020 -0.2393  0.0108
  220loPI   C2B 3518   3.954   6.499   8.823 -0.1590 -0.3439  0.1484
  220loPI   C3B 3519   3.847   6.593   8.465 -0.3493  0.0507 -0.1691
  220loPI   C4B 3520   4.033   6.750   8.046 -0.2689  0.0658 -0.0003
  221loPI    C1 3521  14.220   9.303  10.476 -0.2513  0.0272  0.0394
  221loPI    C2 3522  13.953   9.233  10.186 -0.0742 -0.0787 -0.1004
  221loPI    C3 3523  13.837   9.233  10.569 -0.3517  0.2675 -0.1790
  221loPI   PO4 3524  14.340   9.527  10.318 -0.5183 -0.0109  0.1567
  221loPI   GL1 3525  14.128   9.566   9.848 -0.0867 -0.1974 -0.1489
  221loPI   GL2 3526  13.957   9.732   9.868  0.2433 -0.3093 -0.2383
  221loPI   C1A 3527  13.751   9.276   9.686 -0.1337 -0.1290 -0.2960
  221loPI   C2A 3528  13.820   9.155   9.281  0.1340 -0.0885 -0.2613
  221loPI   C3A 3529  13.719   9.199   8.925 -0.0127  0.4079  0.1236
  221loPI   C4A 3530  13.655   9.388   8.564  0.0227 -0.4134 -0.1600
  221loPI   C5A 3531  13.614   9.423   8.084 -0.1008  0.0286  0.0070
  221loPI   C6A 3532  13.871   9.478   7.643 -0.0721  0.3067  0.1415
  221loPI   C1B 3533  14.003   9.622   9.379 -0.2574  0.1598 -0.1038
  221loPI   C2B 3534  13.941   9.646   8.883  0.1143 -0.0005  0.0941
  221loPI   C3B 3535  14.052   9.829   8.453  0.1003  0.2302  0.3089
  221loPI   C4B 3536  14.181   9.700   8.041 -0.2076  0.3264  0.0917
  222loPI    C1 3537  10.339  13.510  10.730  0.0583  0.2113 -0.0382
  222loPI    C2 3538   9.975  13.353  10.680  0.0241  0.1793  0.2863
  222loPI    C3 3539  10.016  13.713  10.848  0.1266  0.3331 -0.0599
  222loPI   PO4 3540  10.463  13.494  10.469 -0.1343 -0.0245 -0.0600
  222loPI   GL1 3541  10.297  13.475  10.128 -0.0054  0.0118 -0.4420
  222loPI   GL2 3542   9.897  13.371  10.164 -0.1611  0.0494  0.1091
  222loPI   C1A 3543  10.629  13.457   9.854 -0.2753 -0.1227 -0.0134
  222loPI   C2A 3544  10.595  13.558   9.431 -0.3363 -0.0532  0.0434
  222loPI   C3A 3545  10.576  13.764   9.047  0.0663  0.0140 -0.2385
  222loPI   C4A 3546  10.763  13.966   8.726 -0.2494 -0.1819 -0.0543
  222loPI   C5A 3547  10.976  14.094   8.367 -0.2386 -0.1918  0.1060
  222loPI   C6A 3548  10.967  14.418   7.999  0.4137 -0.1187  0.1048
  222loPI   C1B 3549  10.089  13.574   9.677 -0.0618 -0.3987  0.3537
  222loPI   C2B 3550  10.122  13.590   9.236 -0.3352 -0.3131 -0.1410
  222loPI   C3B 3551  10.163  13.688   8.786 -0.0368  0.0364  0.0984
  222loPI   C4B 3552  10.054  13.954   8.484 -0.3441  0.1710  0.2441
  223loPI    C1 3553   4.734  15.373  10.887  0.0968  0.0893  0.1425
  223loPI    C2 3554   5.056  15.216  10.708 -0.1732 -0.1970 -0.1046
  223loPI    C3 3555   4.898  15.037  11.029 -0.1456 -0.1117 -0.0431
  223loPI   PO4 3556   4.598  15.465  10.638 -0.3651  0.1234 -0.0272
  223loPI   GL1 3557   4.824  15.307  10.248  0.2832 -0.1560  0.2830
  223loPI   GL2 3558   4.716  15.050  10.028 -0.0088 -0.1149  0.0098
  223loPI   C1A 3559   4.912  15.422   9.759  0.1487 -0.0072 -0.3215
  223loPI   C2A 3560   5.068  15.512   9.390 -0.0523  0.0027 -0.0018
  223loPI   C3A 3561   5.014  15.580   9.018  0.1554 -0.1855  0.0298
  223loPI   C4A 3562   5.219  15.577   8.677 -0.1718 -0.1140  0.0272
  223loPI   C5A 3563   5.148  15.493   8.215 -0.1838 -0.1029  0.0921
  223loPI   C6A 3564   4.846  15.455   7.929  0.1027 -0.2721  0.0206
  223loPI   C1B 3565   4.512  15.068   9.584 -0.1627  0.1330 -0.0451
  223loPI   C2B 3566   4.590  15.113   9.135 -0.0458 -0.0350 -0.0035
  223loPI   C3B 3567   4.732  15.163   8.789  0.4033 -0.1304 -0.1797
  223loPI   C4B 3568   4.773  15.058   8.417 -0.0178 -0.0019 -0.1967
  224loPI    C1 3569  13.819   4.509  10.493 -0.2988  0.1639 -0.1195
  224loPI    C2 3570  13.547   4.626  10.762 -0.0709  0.3635  0.0285
  224loPI    C3 3571  13.710   4.893  10.513  0.0605  0.2640  0.0062
  224loPI   PO4 3572  13.711   4.295  10.352 -0.1189  0.0337  0.1278
  224loPI   GL1 3573  13.794   4.037  10.065 -0.0660 -0.1687 -0.0642
  224loPI   GL2 3574  13.644   3.782   9.939  0.1375 -0.0178  0.1495
  224loPI   C1A 3575  14.078   3.942   9.805  0.2640  0.2209 -0.1878
  224loPI   C2A 3576  14.120   3.797   9.429 -0.3152 -0.1107 -0.2594
  224loPI   C3A 3577  14.187   3.976   9.007  0.2087 -0.1552  0.1970
  224loPI   C4A 3578  14.244   3.726   8.602 -0.0362 -0.1655 -0.1967
  224loPI   C5A 3579  14.085   3.317   8.436 -0.2482  0.0993 -0.0153
  224loPI   C6A 3580  13.784   3.058   8.243 -0.0393 -0.4377  0.0776
  224loPI   C1B 3581  13.553   3.769   9.556 -0.0404  0.4986 -0.1745
  224loPI   C2B 3582  13.633   3.914   9.154  0.2720  0.0817 -0.1632
  224loPI   C3B 3583  13.684   4.036   8.743 -0.3027 -0.0713  0.1041
  224loPI   C4B 3584  13.774   3.811   8.354  0.0888  0.0694  0.1487
  225loPI    C1 3585   2.083  13.232  10.337 -0.0350  0.1020  0.1891
  225loPI    C2 3586   2.399  13.321  10.108 -0.0927 -0.1457  0.0087
  225loPI    C3 3587   2.441  13.293  10.505 -0.0019  0.3340  0.0393
  225loPI   PO4 3588   1.924  13.058  10.166 -0.0999 -0.1332 -0.1897
  225loPI   GL1 3589   1.624  13.038   9.937  0.0204  0.0110  0.2197
  225loPI   GL2 3590   1.387  12.906   9.731  0.2299  0.1797  0.2027
  225loPI   C1A 3591   1.779  13.144   9.548 -0.0893 -0.1181  0.3588
  225loPI   C2A 3592   1.622  13.302   9.095 -0.0546 -0.0333 -0.1136
  225loPI   C3A 3593   1.379  13.280   8.692  0.2863  0.4248  0.1674
  225loPI   C4A 3594   1.461  13.325   8.270  0.2151  0.0687  0.3538
  225loPI   C5A 3595   1.698  13.323   7.890  0.2100  0.4614 -0.1513
  225loPI   C6A 3596   1.986  13.182   7.641 -0.2071 -0.1431 -0.2891
  225loPI   C1B 3597   1.398  12.903   9.241 -0.1422 -0.1188 -0.0487
  225loPI   C2B 3598   1.306  12.854   8.884 -0.0702 -0.0820  0.0595
  225loPI   C3B 3599   1.252  12.793   8.470  0.2781  0.1616 -0.0217
  225loPI   C4B 3600   1.141  12.457   8.203  0.0191  0.0890  0.1976
  226loPI    C1 3601   0.880   5.973  10.854  0.2052 -0.1661 -0.0265
  226loPI    C2 3602   0.724   6.249  11.098  0.0007  0.0490 -0.3911
  226loPI    C3 3603   1.117   6.174  11.105  0.0149  0.1390 -0.0858
  226loPI   PO4 3604   0.774   6.059  10.591  0.2592  0.1753  0.1533
  226loPI   GL1 3605   0.707   6.292  10.383 -0.1916 -0.0010  0.0482
  226loPI   GL2 3606   0.787   6.625  10.213  0.1789 -0.0528  0.2587
  226loPI   C1A 3607   0.758   6.136   9.947 -0.0158  0.1192 -0.0517
  226loPI   C2A 3608   0.811   6.108   9.491  0.1234  0.0746  0.1395
  226loPI   C3A 3609   0.864   5.819   9.181  0.1787 -0.1346  0.1330
  226loPI   C4A 3610   0.878   6.040   8.763 -0.0617  0.0920  0.1931
  226loPI   C5A 3611   0.719   6.134   8.232 -0.1394  0.1336 -0.0462
  226loPI   C6A 3612   0.689   6.381   7.848  0.0480 -0.3897 -0.2300
  226loPI   C1B 3613   0.545   6.575   9.833 -0.3035  0.2599  0.0183
  226loPI   C2B 3614   0.444   6.558   9.425  0.2353 -0.0984 -0.0438
  226loPI   C3B 3615   0.620   6.420   9.119  0.1404  0.0404  0.1937
  226loPI   C4B 3616   0.643   6.574   8.691  0.0552 -0.0358 -0.5512
  227loPI    C1 3617  12.368  13.035  10.480  0.0121 -0.1660  0.0309
  227loPI    C2 3618  12.483  12.977  10.859 -0.0094  0.0704  0.0748
  227loPI    C3 3619  12.533  13.335  10.687  0.0781 -0.0591 -0.1741
  227loPI   PO4 3620  12.096  12.908  10.466  0.2311  0.0927  0.3115
  227loPI   GL1 3621  11.839  12.976  10.096 -0.0334  0.1268 -0.1616
  227loPI   GL2 3622  12.232  13.007   9.972  0.5452 -0.0142  0.1882
  227loPI   C1A 3623  11.642  13.015   9.720  0.1785 -0.2979 -0.0325
  227loPI   C2A 3624  11.336  13.114   9.416 -0.1140  0.1133  0.3204
  227loPI   C3A 3625  11.350  13.365   9.005 -0.1850 -0.0220 -0.2378
  227loPI   C4A 3626  11.483  13.345   8.595  0.0126  0.0790  0.1841
  227loPI   C5A 3627  11.559  13.230   8.131  0.1222  0.0605 -0.0075
  227loPI   C6A 3628  11.851  12.992   8.015 -0.2634  0.0624 -0.2124
  227loPI   C1B 3629  12.198  13.154   9.670  0.1626 -0.0556 -0.3491
  227loPI   C2B 3630  12.230  12.972   9.335 -0.2252 -0.1971  0.2093
  227loPI   C3B 3631  12.168  12.793   8.959  0.0373  0.0947  0.2187
  227loPI   C4B 3632  12.100  12.362   8.698 -0.2124  0.1734  0.0067
  228loPI    C1 3633   6.855   1.808  10.506 -0.1582 -0.0258 -0.0070
  228loPI    C2 3634   6.631   1.781  10.837 -0.3136  0.1307 -0.0980
  228loPI    C3 3635   6.457   1.778  10.476 -0.1392 -0.1149 -0.1829
  228loPI   PO4 3636   7.042   1.652  10.494  0.0476  0.0069  0.0553
  228loPI   GL1 3637   7.118   1.568  10.092 -0.1934  0.5598 -0.0361
  228loPI   GL2 3638   6.849   1.694  10.021  0.0528  0.0199  0.2481
  228loPI   C1A 3639   7.161   1.459   9.623  0.0726  0.1767  0.2091
  228loPI   C2A 3640   7.131   1.387   9.080 -0.0609  0.0073  0.0684
  228loPI   C3A 3641   7.248   1.448   8.616 -0.1877 -0.2125  0.2922
  228loPI   C4A 3642   7.174   1.570   8.223  0.2558  0.0979  0.0462
  228loPI   C5A 3643   7.096   1.547   7.799  0.3996  0.0475 -0.0832
  228loPI   C6A 3644   7.064   1.422   7.335 -0.2962 -0.4026  0.1016
  228loPI   C1B 3645   6.709   1.477   9.780  0.0364 -0.0529 -0.1298
  228loPI   C2B 3646   6.743   1.508   9.352  0.1052 -0.0224  0.0492
  228loPI   C3B 3647   6.559   1.446   8.923 -0.3836  0.0156 -0.2058
  228loPI   C4B 3648   6.202   1.316   8.679 -0.0535 -0.0383  0.1982
  229loPI    C1 3649   2.051  10.947  10.473  0.0886  0.0165 -0.2365
  229loPI    C2 3650   1.760  10.678  10.525  0.1767 -0.0006  0.1992
  229loPI    C3 3651   1.882  10.903  10.832  0.2576  0.3841 -0.1074
  229loPI   PO4 3652   2.017  10.878  10.150 -0.0104 -0.2131  0.1982
  229loPI   GL1 3653   1.985  10.892   9.809 -0.2866 -0.1260 -0.0770
  229loPI   GL2 3654   2.202  10.724   9.712 -0.3232 -0.0720 -0.0799
  229loPI   C1A 3655   1.837  11.283   9.588 -0.1374  0.2821 -0.3230
  229loPI   C2A 3656   1.579  11.300   9.164  0.0226 -0.0014 -0.0574
  229loPI   C3A 3657   1.644  11.369   8.744  0.0269  0.1364 -0.0867
  229loPI   C4A 3658   1.599  11.363   8.407  0.3450 -0.0763  0.5241
  229loPI   C5A 3659   1.455  11.471   8.073 -0.1730  0.1320  0.0300
  229loPI   C6A 3660   1.349  11.095   7.714 -0.0725  0.1367 -0.1223
  229loPI   C1B 3661   1.946  10.649   9.323 -0.0546 -0.2166 -0.2775
  229loPI   C2B 3662   2.048  10.493   8.948  0.1786 -0.1261  0.1749
  229loPI   C3B 3663   2.178  10.524   8.510 -0.1339  0.2196  0.0644
  229loPI   C4B 3664   2.249  10.520   8.117  0.2697  0.3593  0.0202
  230loPI    C1 3665  11.207  17.906  10.746  0.1561  0.1785 -0.0275
  230loPI    C2 3666  11.078  18.006  11.111 -0.1291  0.1439 -0.1165
  230loPI    C3 3667  11.420  17.803  11.069 -0.2038 -0.0421  0.1459
  230loPI   PO4 3668  11.181  18.027  10.593 -0.2906  0.0190 -0.1076
  230loPI   GL1 3669  11.165  18.007  10.171 -0.1192 -0.1616 -0.2677
  230loPI   GL2 3670  11.022  17.852   9.907 -0.1981  0.1826 -0.2902
  230loPI   C1A 3671  11.435  18.093   9.819  0.0564  0.0842 -0.1283
  230loPI   C2A 3672  11.492  18.034   9.422  0.0886 -0.2947 -0.1288
  230loPI   C3A 3673  11.580  18.035   8.968  0.2603 -0.2969  0.0301
  230loPI   C4A 3674  11.457  18.059   8.520 -0.0320 -0.1087 -0.1534
  230loPI   C5A 3675  11.381  18.076   8.144 -0.1438  0.0095  0.0958
  230loPI   C6A 3676  11.417  17.923   7.678  0.0664 -0.2208  0.2518
  230loPI   C1B 3677  11.025  17.925   9.616  0.0413 -0.0385 -0.2429
  230loPI   C2B 3678  10.895  17.855   9.266 -0.0288  0.3432  0.0066
  230loPI   C3B 3679  11.030  17.814   8.853 -0.4103 -0.1176 -0.2407
  230loPI   C4B 3680  10.845  17.754   8.464  0.2553  0.5115 -0.1892
  231loPI    C1 3681   4.045  12.122  10.326  0.1584  0.0280 -0.1255
  231loPI    C2 3682   3.993  12.338  10.659 -0.0837  0.0340 -0.1651
  231loPI    C3 3683   3.839  11.969  10.634  0.0264 -0.0079 -0.2305
  231loPI   PO4 3684   3.958  12.341  10.053  0.0799  0.1431  0.3073
  231loPI   GL1 3685   3.736  12.400   9.758 -0.0728 -0.1913  0.1791
  231loPI   GL2 3686   3.716  12.729   9.632  0.4374  0.0703 -0.2722
  231loPI   C1A 3687   3.696  12.329   9.323  0.2783 -0.0718 -0.1026
  231loPI   C2A 3688   3.618  12.476   8.837 -0.3498  0.0663 -0.0802
  231loPI   C3A 3689   3.737  12.577   8.523  0.0011  0.1592  0.1942
  231loPI   C4A 3690   3.944  12.439   8.164  0.1907 -0.1444  0.1080
  231loPI   C5A 3691   4.085  12.562   7.760 -0.0248  0.1376 -0.1779
  231loPI   C6A 3692   4.286  12.551   7.373  0.2356  0.2002 -0.0173
  231loPI   C1B 3693   3.738  12.851   9.244  0.0372  0.0984 -0.0371
  231loPI   C2B 3694   3.711  12.977   8.790 -0.1764  0.0566  0.0511
  231loPI   C3B 3695   3.757  13.132   8.373  0.0300 -0.0540  0.0372
  231loPI   C4B 3696   3.740  12.889   8.041  0.0417 -0.0289  0.1564
  232loPI    C1 3697   7.177   8.885  10.421  0.2207  0.1288  0.0060
  232loPI    C2 3698   7.242   9.110  10.745  0.3200 -0.0856  0.1379
  232loPI    C3 3699   7.083   8.745  10.784  0.1813 -0.0495 -0.0715
  232loPI   PO4 3700   7.255   8.939  10.163  0.0602 -0.2952 -0.0248
  232loPI   GL1 3701   6.928   8.961   9.751 -0.2798 -0.0959 -0.0351
  232loPI   GL2 3702   6.722   9.282   9.852  0.2218 -0.1032 -0.0857
  232loPI   C1A 3703   6.929   8.786   9.406  0.0831 -0.2776 -0.1644
  232loPI   C2A 3704   6.918   8.820   8.905 -0.1844  0.1989 -0.0710
  232loPI   C3A 3705   6.929   8.763   8.490  0.1933  0.0342 -0.0304
  232loPI   C4A 3706   6.858   8.705   8.011  0.0842 -0.2303  0.0748
  232loPI   C5A 3707   6.832   9.008   7.775 -0.4481  0.0287 -0.0049
  232loPI   C6A 3708   6.985   9.288   7.540  0.0757 -0.0749 -0.3825
  232loPI   C1B 3709   6.705   9.352   9.418 -0.1643 -0.0031  0.1492
  232loPI   C2B 3710   6.742   9.266   9.038 -0.2542 -0.1806 -0.2243
  232loPI   C3B 3711   6.889   9.258   8.625 -0.2477 -0.0561  0.0361
  232loPI   C4B 3712   6.824   9.190   8.229  0.1984 -0.0826 -0.2736
  233loPI    C1 3713  17.135   9.266  10.916  0.3486 -0.0604 -0.0709
  233loPI    C2 3714  17.363   9.578  10.812  0.0946  0.2071  0.1555
  233loPI    C3 3715  17.194   9.566  11.174 -0.0627 -0.0985  0.0754
  233loPI   PO4 3716  17.034   9.138  10.650 -0.0100 -0.2729  0.2255
  233loPI   GL1 3717  16.796   9.265  10.225  0.3013  0.0924 -0.3106
  233loPI   GL2 3718  16.897   9.399  10.032 -0.0811 -0.1222 -0.2141
  233loPI   C1A 3719  16.470   9.175  10.038 -0.0734 -0.1056 -0.1981
  233loPI   C2A 3720  16.150   9.078   9.697 -0.2402 -0.1959 -0.0990
  233loPI   C3A 3721  15.869   8.929   9.401 -0.0058 -0.3341 -0.0062
  233loPI   C4A 3722  15.819   9.047   9.076 -0.1634  0.1980  0.3030
  233loPI   C5A 3723  15.671   8.988   8.764 -0.0608 -0.0478  0.1232
  233loPI   C6A 3724  15.287   9.092   8.543  0.1092  0.2541 -0.2428
  233loPI   C1B 3725  16.971   9.409   9.606  0.1169  0.1783 -0.0145
  233loPI   C2B 3726  16.917   9.394   9.265  0.2145  0.1190 -0.2510
  233loPI   C3B 3727  16.780   9.253   8.917 -0.1810 -0.0030 -0.4295
  233loPI   C4B 3728  16.657   9.362   8.567 -0.1830 -0.0213  0.1473
  234loPI    C1 3729  15.202  17.951  10.676  0.2636 -0.2843 -0.0479
  234loPI    C2 3730  15.218  18.104  11.046  0.0090 -0.0238 -0.1405
  234loPI    C3 3731  15.508  17.860  10.917  0.2253  0.0768  0.1451
  234loPI   PO4 3732  15.095  18.165  10.582 -0.0763 -0.0020  0.0829
  234loPI   GL1 3733  14.839  18.286  10.200  0.1564 -0.3330 -0.0400
  234loPI   GL2 3734  14.782  18.049  10.026 -0.1724 -0.2620  0.1748
  234loPI   C1A 3735  14.800  18.442   9.698  0.0886 -0.0626 -0.0314
  234loPI   C2A 3736  14.879  18.446   9.299  0.2799 -0.2371 -0.0333
  234loPI   C3A 3737  14.926  18.379   8.861 -0.0125  0.2043  0.2953
  234loPI   C4A 3738  14.912  18.359   8.488  0.1701  0.0262  0.3422
  234loPI   C5A 3739  14.996  18.093   8.096  0.1498  0.1529  0.1643
  234loPI   C6A 3740  15.177  17.722   7.885  0.2142  0.0158 -0.3141
  234loPI   C1B 3741  14.805  17.975   9.557 -0.0042  0.2266 -0.4325
  234loPI   C2B 3742  14.721  17.960   9.066  0.1387 -0.1451  0.3196
  234loPI   C3B 3743  14.805  17.809   8.672  0.0555 -0.2441 -0.1638
  234loPI   C4B 3744  14.992  17.664   8.419 -0.0449  0.4445 -0.1541
  235loPI    C1 3745   5.031  13.375  10.499  0.0169  0.1318  0.0214
  235loPI    C2 3746   5.048  13.136  10.820 -0.0958  0.0310 -0.0466
  235loPI    C3 3747   4.907  13.509  10.855  0.3098  0.1751  0.1093
  235loPI   PO4 3748   4.950  13.295  10.274  0.0202  0.2800  0.2076
  235loPI   GL1 3749   4.988  13.303   9.919 -0.0308 -0.0026  0.0472
  235loPI   GL2 3750   5.192  13.020   9.795 -0.2412  0.1738  0.0681
  235loPI   C1A 3751   4.953  13.199   9.389 -0.2771 -0.2154 -0.1094
  235loPI   C2A 3752   5.062  12.924   8.966 -0.0983  0.0532 -0.1832
  235loPI   C3A 3753   4.970  12.954   8.577  0.0775  0.1406 -0.3110
  235loPI   C4A 3754   4.914  12.806   8.156  0.1698  0.2231  0.3627
  235loPI   C5A 3755   5.042  12.840   7.757 -0.4097  0.2190  0.2510
  235loPI   C6A 3756   5.543  12.694   7.726  0.0010 -0.0987 -0.2095
  235loPI   C1B 3757   5.232  12.775   9.420 -0.1358 -0.3733 -0.1327
  235loPI   C2B 3758   5.457  12.632   9.039 -0.1349 -0.0819  0.0033
  235loPI   C3B 3759   5.433  12.716   8.622  0.5023  0.1956  0.1316
  235loPI   C4B 3760   5.679  12.612   8.266 -0.1698  0.0980  0.0399
  236loPI    C1 3761   2.553   2.786  10.596 -0.0467 -0.0085  0.0262
  236loPI    C2 3762   2.649   3.159  10.703  0.2402 -0.0672 -0.0169
  236loPI    C3 3763   2.668   2.863  10.971  0.3660 -0.1112 -0.0736
  236loPI   PO4 3764   2.581   2.678  10.386 -0.3170 -0.0092 -0.0683
  236loPI   GL1 3765   2.363   2.718  10.083 -0.2837 -0.2196  0.1755
  236loPI   GL2 3766   2.145   2.742   9.892 -0.0602  0.3006  0.1320
  236loPI   C1A 3767   2.398   2.353   9.767 -0.2262 -0.0235  0.2772
  236loPI   C2A 3768   2.512   2.286   9.304 -0.0800  0.0014  0.0166
  236loPI   C3A 3769   2.587   2.236   8.897  0.0610 -0.0260 -0.0870
  236loPI   C4A 3770   2.520   2.369   8.488 -0.1378  0.0522 -0.0011
  236loPI   C5A 3771   2.564   2.768   8.196  0.1700 -0.0376 -0.1475
  236loPI   C6A 3772   2.848   3.056   8.262 -0.0384 -0.1247 -0.0488
  236loPI   C1B 3773   2.222   2.684   9.455 -0.0154  0.0584 -0.0914
  236loPI   C2B 3774   2.284   2.741   8.941  0.2442  0.2187  0.2984
  236loPI   C3B 3775   2.112   2.784   8.529  0.1613  0.0115 -0.4364
  236loPI   C4B 3776   2.184   3.054   8.116  0.2931  0.0631 -0.2855
  237loPI    C1 3777  12.125   1.937  10.502 -0.2580  0.1980 -0.2413
  237loPI    C2 3778  11.815   1.693  10.571  0.0543 -0.1757 -0.1207
  237loPI    C3 3779  11.977   1.901  10.872  0.1167 -0.2214 -0.1224
  237loPI   PO4 3780  12.079   1.963  10.249 -0.0772  0.2853 -0.0368
  237loPI   GL1 3781  12.092   2.211   9.885 -0.3259  0.1343 -0.4005
  237loPI   GL2 3782  12.421   2.401   9.924 -0.2141 -0.0000 -0.1540
  237loPI   C1A 3783  11.989   2.318   9.613  0.0690  0.3619 -0.0770
  237loPI   C2A 3784  12.104   2.384   9.113 -0.0052  0.2666 -0.3001
  237loPI   C3A 3785  11.994   2.425   8.659  0.0953  0.1453 -0.1917
  237loPI   C4A 3786  12.175   2.296   8.211  0.1122 -0.3523  0.1706
  237loPI   C5A 3787  12.579   1.973   8.093  0.1378  0.3197 -0.1521
  237loPI   C6A 3788  12.686   1.548   8.121 -0.1080 -0.2040 -0.1927
  237loPI   C1B 3789  12.516   2.269   9.469 -0.1063 -0.2679  0.0628
  237loPI   C2B 3790  12.597   2.201   9.074  0.1199 -0.0537 -0.0982
  237loPI   C3B 3791  12.475   2.323   8.718 -0.1597 -0.1116  0.0356
  237loPI   C4B 3792  12.670   2.439   8.347 -0.0053  0.0201 -0.0669
  238loPI    C1 3793  14.317   4.786  10.631 -0.1089 -0.3740  0.1758
  238loPI    C2 3794  14.401   4.755  11.021 -0.0567 -0.0162  0.1957
  238loPI    C3 3795  14.026   4.827  10.902 -0.0448  0.0331  0.1882
  238loPI   PO4 3796  14.458   4.909  10.579  0.0362 -0.5082 -0.1815
  238loPI   GL1 3797  14.469   5.122  10.231  0.1232  0.2188 -0.3671
  238loPI   GL2 3798  14.697   4.875  10.051  0.0550 -0.2587  0.1066
  238loPI   C1A 3799  14.219   4.961   9.818 -0.0193 -0.3201  0.1695
  238loPI   C2A 3800  14.243   4.793   9.474  0.1288 -0.0467 -0.1169
  238loPI   C3A 3801  14.255   4.818   9.135 -0.2929  0.0077  0.3419
  238loPI   C4A 3802  14.330   4.961   8.736 -0.0678 -0.1372 -0.1029
  238loPI   C5A 3803  14.507   4.719   8.520  0.3098  0.0526  0.4929
  238loPI   C6A 3804  14.753   4.580   8.119 -0.1456  0.1389 -0.2466
  238loPI   C1B 3805  14.739   4.959   9.622 -0.1119 -0.1234 -0.3558
  238loPI   C2B 3806  14.695   5.200   9.253  0.2154  0.2561  0.1615
  238loPI   C3B 3807  14.657   5.343   8.853 -0.0310  0.3063 -0.2666
  238loPI   C4B 3808  14.989   5.559   8.665 -0.2119 -0.0663 -0.0086
  239loPI    C1 3809  15.045   0.848  10.799  0.1898 -0.0991 -0.1189
  239loPI    C2 3810  15.411   1.004  10.837  0.1984 -0.1699  0.1063
  239loPI    C3 3811  15.227   0.847  11.155 -0.0194 -0.1550 -0.0101
  239loPI   PO4 3812  15.010   0.764  10.638 -0.1549  0.2872  0.4451
  239loPI   GL1 3813  15.056   0.900  10.167 -0.0616  0.0383  0.2531
  239loPI   GL2 3814  15.360   0.967  10.376 -0.1769 -0.1810 -0.0703
  239loPI   C1A 3815  14.918   0.824   9.725  0.0837  0.3205 -0.0288
  239loPI   C2A 3816  14.895   0.808   9.271 -0.1180  0.0073 -0.2477
  239loPI   C3A 3817  14.952   0.739   8.867  0.1556  0.0916  0.3886
  239loPI   C4A 3818  15.057   0.765   8.519  0.0137  0.3924  0.4369
  239loPI   C5A 3819  15.245   0.527   8.127 -0.0235  0.1773 -0.0407
  239loPI   C6A 3820  15.428   0.172   7.994 -0.0459 -0.0541 -0.0390
  239loPI   C1B 3821  15.447   1.071   9.931  0.0916 -0.0236  0.1924
  239loPI   C2B 3822  15.362   1.050   9.594  0.2781 -0.0398  0.2048
  239loPI   C3B 3823  15.356   1.044   9.220  0.0558 -0.1351  0.0588
  239loPI   C4B 3824  15.396   0.939   8.864 -0.1417  0.0557  0.3831
  240loPI    C1 3825  17.165  18.020  10.803  0.1998  0.0229 -0.0065
  240loPI    C2 3826  17.234  17.749  11.089 -0.4184 -0.2012 -0.0541
  240loPI    C3 3827  17.002  18.066  11.165  0.0260  0.1451 -0.0987
  240loPI   PO4 3828  17.164  17.840  10.615  0.1344 -0.0660 -0.1475
  240loPI   GL1 3829  17.015  17.772  10.220  0.1493 -0.0086  0.1043
  240loPI   GL2 3830  17.129  18.014  10.024  0.3542  0.2007  0.2727
  240loPI   C1A 3831  16.656  17.650   9.852  0.1881 -0.0353 -0.2880
  240loPI   C2A 3832  16.662  17.574   9.387 -0.0879  0.2586 -0.3526
  240loPI   C3A 3833  16.539  17.506   8.963 -0.0709  0.0677  0.3678
  240loPI   C4A 3834  16.487  17.492   8.509 -0.1541  0.0238 -0.0416
  240loPI   C5A 3835  16.450  17.549   8.071  0.0925 -0.0540  0.1456
  240loPI   C6A 3836  16.104  17.709   7.794 -0.2553 -0.3426 -0.0880
  240loPI   C1B 3837  17.059  17.846   9.574  0.1384  0.1661 -0.0112
  240loPI   C2B 3838  17.121  17.721   9.096  0.0049 -0.1008 -0.0974
  240loPI   C3B 3839  16.977  17.706   8.627 -0.1473 -0.0265 -0.1083
  240loPI   C4B 3840  16.879  17.905   8.152  0.1570 -0.0059  0.1607
  241loPI    C1 3841   2.396   0.304  10.673 -0.1049 -0.1545 -0.0506
  241loPI    C2 3842   2.096   0.526  10.815  0.0910  0.1396 -0.0865
  241loPI    C3 3843   2.352   0.352  11.067 -0.0962 -0.0977 -0.0563
  241loPI   PO4 3844   2.312   0.189  10.495  0.1987  0.0283 -0.1359
  241loPI   GL1 3845   2.400  -0.018  10.238  0.0732  0.0242 -0.3585
  241loPI   GL2 3846   1.990  -0.084  10.028 -0.2040  0.0792  0.0195
  241loPI   C1A 3847   2.337  -0.063   9.681  0.1490  0.1208  0.1441
  241loPI   C2A 3848   2.184  -0.103   9.205 -0.0333 -0.2544 -0.1965
  241loPI   C3A 3849   2.085   0.031   8.812 -0.2371  0.1271 -0.1467
  241loPI   C4A 3850   1.925   0.071   8.412  0.1247 -0.1191 -0.0533
  241loPI   C5A 3851   2.100  -0.067   8.078  0.0744  0.0232  0.2109
  241loPI   C6A 3852   2.404  -0.227   8.016 -0.2345 -0.1537 -0.0301
  241loPI   C1B 3853   1.868   0.127   9.664  0.1337  0.0772  0.1220
  241loPI   C2B 3854   1.736   0.059   9.232  0.1306  0.4343  0.0201
  241loPI   C3B 3855   1.606  -0.020   8.779 -0.0494 -0.0048 -0.0195
  241loPI   C4B 3856   1.445  -0.018   8.417  0.0795  0.2993 -0.2337
  242loPI    C1 3857  12.314   0.380  10.602  0.0857 -0.0593 -0.0028
  242loPI    C2 3858  11.919   0.350  10.553  0.0668  0.0136  0.1026
  242loPI    C3 3859  12.075   0.677  10.722  0.1806  0.0296 -0.0321
  242loPI   PO4 3860  12.455   0.288  10.354 -0.1221 -0.3230 -0.2095
  242loPI   GL1 3861  12.440   0.545   9.989 -0.2039  0.0217 -0.2551
  242loPI   GL2 3862  12.582   0.387   9.776 -0.1036 -0.3774  0.1043
  242loPI   C1A 3863  12.183   0.711   9.679  0.2412  0.1100 -0.0604
  242loPI   C2A 3864  12.226   0.663   9.246 -0.0629  0.3423  0.1233
  242loPI   C3A 3865  12.269   0.764   8.813  0.1593  0.0361  0.1160
  242loPI   C4A 3866  12.128   0.964   8.424 -0.0612 -0.1106 -0.0731
  242loPI   C5A 3867  11.882   1.077   8.064  0.0018 -0.3073 -0.1056
  242loPI   C6A 3868  11.489   1.094   7.953  0.1342 -0.0595 -0.0005
  242loPI   C1B 3869  12.665   0.396   9.403  0.2454  0.0624 -0.2197
  242loPI   C2B 3870  12.604   0.357   8.967 -0.0974  0.0817 -0.1032
  242loPI   C3B 3871  12.442   0.413   8.526  0.0860  0.1186  0.1004
  242loPI   C4B 3872  12.167   0.532   8.248  0.2028  0.0085 -0.3643
  243loPI    C1 3873   0.078   1.175  10.911  0.0636 -0.1645  0.1717
  243loPI    C2 3874   0.449   1.321  10.875  0.0809 -0.1957  0.2228
  243loPI    C3 3875   0.355   1.089  11.187  0.0096 -0.1613  0.2271
  243loPI   PO4 3876   0.041   1.211  10.604 -0.0319  0.0060  0.0973
  243loPI   GL1 3877  -0.154   1.025  10.169 -0.0467  0.0053  0.0116
  243loPI   GL2 3878   0.045   1.187  10.058  0.2300  0.0514 -0.1110
  243loPI   C1A 3879  -0.415   1.038   9.892 -0.1729 -0.2680  0.0061
  243loPI   C2A 3880  -0.526   1.107   9.445 -0.1114  0.0246 -0.0538
  243loPI   C3A 3881  -0.520   1.104   8.944 -0.2605  0.0654 -0.0055
  243loPI   C4A 3882  -0.585   0.792   8.668 -0.1760  0.0291 -0.3615
  243loPI   C5A 3883  -0.693   0.582   8.353  0.0936 -0.2384 -0.0107
  243loPI   C6A 3884  -0.379   0.504   8.028  0.0730 -0.2240 -0.3884
  243loPI   C1B 3885  -0.134   1.469   9.802  0.0299  0.3854  0.3830
  243loPI   C2B 3886  -0.263   1.505   9.393  0.3737 -0.1055 -0.0330
  243loPI   C3B 3887  -0.282   1.513   9.025  0.0197  0.0247 -0.0346
  243loPI   C4B 3888  -0.494   1.494   8.562  0.2669  0.0570 -0.0068
  244loPI    C1 3889   0.709  13.945  10.409 -0.0784 -0.0865 -0.1843
  244loPI    C2 3890   0.605  14.032  10.786  0.3157  0.0775 -0.1084
  244loPI    C3 3891   0.748  13.669  10.697  0.1178  0.0023 -0.1238
  244loPI   PO4 3892   0.571  13.990  10.229 -0.2785 -0.1462 -0.1745
  244loPI   GL1 3893   0.387  13.785   9.891  0.0736  0.1185  0.0091
  244loPI   GL2 3894   0.443  13.476   9.824  0.0853 -0.2515 -0.3378
  244loPI   C1A 3895   0.314  13.868   9.504  0.3838 -0.0640  0.2153
  244loPI   C2A 3896   0.282  13.799   9.158  0.0746 -0.1221  0.2272
  244loPI   C3A 3897   0.146  13.657   8.782 -0.0566 -0.1530 -0.0510
  244loPI   C4A 3898   0.023  13.446   8.510 -0.3035  0.4301 -0.1153
  244loPI   C5A 3899   0.198  13.498   8.149 -0.0596  0.0218  0.0257
  244loPI   C6A 3900   0.037  13.897   7.947  0.0934 -0.2199  0.0710
  244loPI   C1B 3901   0.596  13.437   9.380 -0.1056 -0.0034  0.1341
  244loPI   C2B 3902   0.413  13.264   8.927  0.0528 -0.3449  0.3577
  244loPI   C3B 3903   0.341  13.039   8.573 -0.4388  0.1246 -0.1513
  244loPI   C4B 3904   0.512  13.008   8.192 -0.1132 -0.0949  0.1631
  245loPI    C1 3905   9.964  11.333  10.632  0.1134 -0.0871 -0.1036
  245loPI    C2 3906  10.010  11.374  11.027 -0.2329  0.0965 -0.0783
  245loPI    C3 3907  10.048  11.014  10.858 -0.3115 -0.0240  0.1560
  245loPI   PO4 3908  10.091  11.537  10.533 -0.2100  0.1937 -0.4278
  245loPI   GL1 3909  10.427  11.697  10.136  0.4003  0.1100 -0.1812
  245loPI   GL2 3910  10.291  11.447  10.111 -0.2372  0.2103  0.1336
  245loPI   C1A 3911  10.206  11.882   9.796  0.1879 -0.0071 -0.1948
  245loPI   C2A 3912  10.261  11.872   9.339 -0.2194 -0.4312  0.1250
  245loPI   C3A 3913  10.239  12.048   8.991 -0.1898  0.0948 -0.1564
  245loPI   C4A 3914  10.300  11.943   8.699  0.1497 -0.0088 -0.1064
  245loPI   C5A 3915  10.206  12.086   8.232  0.5946 -0.0364 -0.1393
  245loPI   C6A 3916  10.159  12.269   7.909 -0.1536 -0.1035  0.0169
  245loPI   C1B 3917  10.158  11.423   9.623 -0.0708 -0.0871 -0.0069
  245loPI   C2B 3918  10.218  11.362   9.196  0.1120 -0.0872  0.3149
  245loPI   C3B 3919  10.238  11.460   8.794  0.0435 -0.2141 -0.0693
  245loPI   C4B 3920  10.281  11.521   8.344  0.0838 -0.0607 -0.2946
  246loPI    C1 3921  15.636  12.146  10.835  0.1003  0.0731  0.2502
  246loPI    C2 3922  15.529  11.777  10.723  0.2647  0.0943  0.0167
  246loPI    C3 3923  15.763  11.829  11.044 -0.1304  0.0269  0.3229
  246loPI   PO4 3924  15.652  12.176  10.485 -0.3259  0.2340 -0.1246
  246loPI   GL1 3925  15.658  12.300  10.048 -0.2365 -0.1001 -0.0250
  246loPI   GL2 3926  15.474  11.929   9.948 -0.1992 -0.0114 -0.2339
  246loPI   C1A 3927  15.758  12.349   9.628 -0.5188 -0.2418  0.0010
  246loPI   C2A 3928  15.718  12.300   9.266  0.0850  0.1231  0.1074
  246loPI   C3A 3929  15.834  12.169   8.910  0.1361 -0.0646  0.0730
  246loPI   C4A 3930  15.846  12.001   8.545  0.1934 -0.1421  0.1338
  246loPI   C5A 3931  15.605  12.049   8.215 -0.0376 -0.1073 -0.2049
  246loPI   C6A 3932  15.492  11.863   7.803  0.1075  0.3711  0.0626
  246loPI   C1B 3933  15.395  11.936   9.584  0.0648 -0.0886 -0.0146
  246loPI   C2B 3934  15.380  11.995   9.083 -0.1513 -0.1758 -0.0330
  246loPI   C3B 3935  15.279  11.987   8.654  0.3625 -0.1949 -0.1952
  246loPI   C4B 3936  15.039  11.820   8.245  0.0852 -0.0341 -0.0001
  247loPI    C1 3937  11.909   9.152  10.467  0.0391  0.0918  0.0715
  247loPI    C2 3938  12.039   8.974  10.801  0.1064  0.2057  0.1065
  247loPI    C3 3939  11.756   9.257  10.821 -0.0433  0.0622  0.0451
  247loPI   PO4 3940  12.150   9.193  10.350 -0.0731 -0.0816  0.0629
  247loPI   GL1 3941  12.406   9.255   9.915 -0.0694 -0.0136 -0.1029
  247loPI   GL2 3942  12.445   9.572   9.829 -0.1423 -0.0599  0.0753
  247loPI   C1A 3943  12.683   9.112   9.736  0.2518 -0.1161 -0.4226
  247loPI   C2A 3944  12.743   9.062   9.328 -0.2743 -0.0087 -0.3224
  247loPI   C3A 3945  12.754   8.992   8.900  0.4175  0.0689 -0.2217
  247loPI   C4A 3946  12.665   8.996   8.417  0.1462  0.1311 -0.1557
  247loPI   C5A 3947  12.736   9.273   8.039  0.2734  0.3573 -0.1888
  247loPI   C6A 3948  12.730   9.287   7.532 -0.0589  0.3312  0.0105
  247loPI   C1B 3949  12.341   9.468   9.410 -0.4821  0.0276  0.3974
  247loPI   C2B 3950  12.389   9.276   9.054  0.3013 -0.2375  0.0424
  247loPI   C3B 3951  12.234   9.114   8.600  0.0429  0.0246  0.0187
  247loPI   C4B 3952  12.175   8.794   8.320  0.2171  0.2023 -0.0027
  248loPI    C1 3953   7.320   7.097  10.222  0.0118 -0.0932  0.0324
  248loPI    C2 3954   7.061   6.888  10.444 -0.0220  0.0921  0.1708
  248loPI    C3 3955   7.393   7.037  10.611  0.0774  0.0218  0.0384
  248loPI   PO4 3956   7.360   6.904  10.012 -0.3317 -0.2068  0.0338
  248loPI   GL1 3957   7.136   6.849   9.628 -0.2627 -0.1996  0.1280
  248loPI   GL2 3958   7.209   7.182   9.617 -0.0465  0.0092 -0.2804
  248loPI   C1A 3959   7.321   6.938   9.182 -0.1499 -0.0513  0.0995
  248loPI   C2A 3960   7.331   6.959   8.680 -0.2284 -0.0608 -0.0958
  248loPI   C3A 3961   7.595   6.935   8.327  0.0153 -0.1195  0.1461
  248loPI   C4A 3962   7.560   7.273   8.094 -0.2233  0.2322 -0.1517
  248loPI   C5A 3963   7.302   7.296   7.676  0.1307 -0.0941 -0.0410
  248loPI   C6A 3964   7.132   7.026   7.347  0.1877  0.1648 -0.0981
  248loPI   C1B 3965   7.514   7.367   9.358  0.0588 -0.0492 -0.1561
  248loPI   C2B 3966   7.474   7.695   9.142 -0.1404 -0.0701 -0.0084
  248loPI   C3B 3967   7.381   7.822   8.782  0.1420  0.4626 -0.1868
  248loPI   C4B 3968   7.302   7.945   8.338 -0.0902  0.0582 -0.1093
  249loPI    C1 3969  12.093   1.147  10.791 -0.0521 -0.1934  0.2001
  249loPI    C2 3970  12.258   1.505  10.860 -0.0831 -0.1445  0.0256
  249loPI    C3 3971  11.930   1.393  11.061 -0.1380 -0.0288  0.0010
  249loPI   PO4 3972  12.127   1.130  10.538  0.1333 -0.1305 -0.0833
  249loPI   GL1 3973  12.222   1.497  10.262 -0.1739 -0.0181 -0.0548
  249loPI   GL2 3974  12.561   1.349  10.163 -0.2064  0.0059 -0.3678
  249loPI   C1A 3975  12.221   1.248   9.802  0.1036 -0.3007 -0.0396
  249loPI   C2A 3976  12.315   1.193   9.388  0.4600  0.0614 -0.1312
  249loPI   C3A 3977  12.343   1.235   8.949 -0.1446 -0.0941  0.4795
  249loPI   C4A 3978  12.614   1.090   8.599  0.3751  0.1774 -0.0973
  249loPI   C5A 3979  12.754   0.851   8.259 -0.1139 -0.0814  0.2159
  249loPI   C6A 3980  12.722   0.514   8.074  0.2984 -0.0975 -0.0606
  249loPI   C1B 3981  12.762   1.352   9.776  0.1354 -0.1020  0.1397
  249loPI   C2B 3982  12.772   1.362   9.368 -0.0333 -0.1949 -0.0061
  249loPI   C3B 3983  12.774   1.420   8.997 -0.1257 -0.0845 -0.0105
  249loPI   C4B 3984  12.972   1.476   8.526 -0.2581 -0.0032  0.3270
  250loPI    C1 3985   5.453  13.245  10.285 -0.0865  0.2160 -0.1497
  250loPI    C2 3986   5.687  13.503  10.482  0.2386 -0.1791 -0.0031
  250loPI    C3 3987   5.536  13.185  10.672 -0.1252 -0.1245 -0.1912
  250loPI   PO4 3988   5.597  13.220  10.047  0.0236 -0.0802 -0.1199
  250loPI   GL1 3989   5.749  12.954   9.668  0.3964 -0.0168  0.0781
  250loPI   GL2 3990   5.851  13.263   9.601  0.0002  0.0696 -0.0220
  250loPI   C1A 3991   5.815  12.843   9.313 -0.1374  0.1271  0.1575
  250loPI   C2A 3992   5.883  12.825   8.854 -0.0459  0.1477  0.0889
  250loPI   C3A 3993   5.866  13.007   8.449 -0.2170  0.1461  0.0588
  250loPI   C4A 3994   5.874  13.091   8.034 -0.2330  0.0073 -0.0377
  250loPI   C5A 3995   5.868  13.528   7.781  0.3843 -0.1546  0.1952
  250loPI   C6A 3996   5.777  13.885   7.543  0.1391  0.1494  0.1380
  250loPI   C1B 3997   5.945  13.395   9.144  0.3257  0.4835 -0.1735
  250loPI   C2B 3998   5.993  13.405   8.639  0.1018  0.0732 -0.3589
  250loPI   C3B 3999   6.070  13.624   8.300  0.0075 -0.1226 -0.2413
  250loPI   C4B 4000   6.269  13.878   8.130 -0.0464  0.2954 -0.0508
  251loPI    C1 4001  16.233   0.530  10.896  0.1464  0.0672 -0.1073
  251loPI    C2 4002  16.181   0.857  11.119 -0.0677 -0.2528  0.3267
  251loPI    C3 4003  16.550   0.720  11.049  0.0524  0.2891 -0.1839
  251loPI   PO4 4004  15.953   0.570  10.644 -0.0101  0.2860  0.0543
  251loPI   GL1 4005  15.922   0.812  10.205  0.0408  0.2691  0.0333
  251loPI   GL2 4006  15.720   0.617  10.165 -0.2192 -0.1181  0.0242
  251loPI   C1A 4007  15.854   0.876   9.701 -0.2032  0.2299  0.1077
  251loPI   C2A 4008  15.734   0.764   9.311 -0.1785 -0.0136 -0.1443
  251loPI   C3A 4009  15.765   0.605   8.903 -0.2002 -0.0720  0.1822
  251loPI   C4A 4010  15.759   0.639   8.432  0.1753 -0.1265  0.0181
  251loPI   C5A 4011  16.031   0.565   8.043  0.1902  0.0917 -0.0271
  251loPI   C6A 4012  16.137   0.654   7.544 -0.2498 -0.1603 -0.3157
  251loPI   C1B 4013  15.412   0.626   9.820  0.1255  0.0233  0.1455
  251loPI   C2B 4014  15.331   0.600   9.483  0.1319 -0.1286  0.1948
  251loPI   C3B 4015  15.337   0.529   9.115 -0.2011  0.0883 -0.1894
  251loPI   C4B 4016  15.410   0.411   8.692  0.1554  0.0498  0.0539
  252loPI    C1 4017   9.774  16.706  10.405 -0.2354 -0.2363  0.1456
  252loPI    C2 4018   9.601  16.491  10.694  0.0197 -0.1042  0.4012
  252loPI    C3 4019   9.584  16.890  10.705  0.0901 -0.0972  0.2711
  252loPI   PO4 4020   9.690  16.626  10.182  0.1245  0.1203 -0.0429
  252loPI   GL1 4021   9.833  16.465   9.886 -0.2268 -0.1115  0.0693
  252loPI   GL2 4022   9.498  16.266   9.842 -0.1247 -0.2937 -0.1414
  252loPI   C1A 4023   9.778  16.493   9.478 -0.0366  0.1638 -0.2291
  252loPI   C2A 4024   9.890  16.343   9.017  0.1853  0.2103  0.1380
  252loPI   C3A 4025   9.899  16.300   8.615  0.0830  0.0885  0.0227
  252loPI   C4A 4026   9.997  16.376   8.241  0.4045  0.0009 -0.4086
  252loPI   C5A 4027  10.063  16.707   8.004  0.2026  0.0741 -0.3570
  252loPI   C6A 4028  10.182  17.105   7.949 -0.0098 -0.1919 -0.0547
  252loPI   C1B 4029   9.409  16.174   9.469  0.2077  0.1270  0.3340
  252loPI   C2B 4030   9.244  15.986   9.038 -0.0916 -0.0477 -0.0674
  252loPI   C3B 4031   9.507  15.812   8.701  0.2187 -0.1414 -0.0270
  252loPI   C4B 4032   9.891  15.767   8.527 -0.0396 -0.1631  0.4551
  253loPI    C1 4033   1.263  10.626  10.636 -0.3199 -0.0459  0.1797
  253loPI    C2 4034   1.445  10.285  10.530  0.0526  0.2483 -0.1564
  253loPI    C3 4035   1.148  10.278  10.799  0.1150 -0.3253 -0.0901
  253loPI   PO4 4036   1.225  10.738  10.388  0.3244  0.1246 -0.0209
  253loPI   GL1 4037   1.240  10.939   9.929  0.1308 -0.0627 -0.0109
  253loPI   GL2 4038   1.081  10.663   9.904  0.1805 -0.2446 -0.0411
  253loPI   C1A 4039   1.487  10.887   9.584 -0.0094 -0.0269  0.0015
  253loPI   C2A 4040   1.426  10.765   9.159  0.0939 -0.3689 -0.2642
  253loPI   C3A 4041   1.770  10.866   8.803  0.2770  0.0100  0.0883
  253loPI   C4A 4042   1.931  10.980   8.352 -0.0042 -0.1481  0.0203
  253loPI   C5A 4043   1.789  11.163   7.940  0.0882  0.0684  0.2770
  253loPI   C6A 4044   1.851  11.101   7.450 -0.0659 -0.1007 -0.0623
  253loPI   C1B 4045   0.970  10.641   9.589  0.1070  0.0715  0.1066
  253loPI   C2B 4046   0.867  10.710   9.141  0.0441  0.1255 -0.0282
  253loPI   C3B 4047   1.013  10.558   8.711  0.0645 -0.0120 -0.0242
  253loPI   C4B 4048   1.149  10.448   8.325 -0.1673 -0.2267 -0.1335
  254loPI    C1 4049  12.150   2.439  10.405 -0.0213  0.3986 -0.1459
  254loPI    C2 4050  11.860   2.425  10.679  0.1113 -0.1189 -0.0214
  254loPI    C3 4051  12.243   2.431  10.794  0.1607  0.2847 -0.1904
  254loPI   PO4 4052  12.151   2.601  10.271 -0.1939  0.1424 -0.1201
  254loPI   GL1 4053  12.021   2.752   9.918  0.4007 -0.1262  0.2921
  254loPI   GL2 4054  11.690   2.987   9.911 -0.0910 -0.1295  0.0463
  254loPI   C1A 4055  12.280   2.744   9.586  0.0353 -0.2239  0.1513
  254loPI   C2A 4056  12.540   2.677   9.161  0.0763 -0.1614 -0.2365
  254loPI   C3A 4057  12.646   2.807   8.807  0.3166  0.4533  0.2760
  254loPI   C4A 4058  12.715   3.059   8.483  0.2387 -0.0888 -0.1153
  254loPI   C5A 4059  12.569   3.303   8.204  0.1080  0.1565 -0.1439
  254loPI   C6A 4060  12.584   3.507   7.868 -0.1739 -0.1865 -0.1893
  254loPI   C1B 4061  11.829   2.928   9.439  0.1382  0.1594 -0.0105
  254loPI   C2B 4062  12.003   2.872   9.045  0.0218  0.1658  0.1875
  254loPI   C3B 4063  12.090   2.967   8.561  0.3389 -0.2174 -0.2653
  254loPI   C4B 4064  12.295   2.783   8.282 -0.0153  0.0742  0.2069
  255loPI    C1 4065   4.713   7.842  10.325 -0.1828  0.0403 -0.2505
  255loPI    C2 4066   4.824   8.189  10.489 -0.1130 -0.0635 -0.0752
  255loPI    C3 4067   4.593   7.936  10.695 -0.1419 -0.1331 -0.1922
  255loPI   PO4 4068   4.988   7.737  10.203 -0.2648 -0.0750 -0.1914
  255loPI   GL1 4069   5.228   7.863   9.857  0.2075 -0.0196  0.0072
  255loPI   GL2 4070   5.425   7.987   9.677  0.4910  0.0023 -0.2497
  255loPI   C1A 4071   5.064   7.709   9.451 -0.2040  0.0574  0.1789
  255loPI   C2A 4072   4.970   7.408   9.183  0.0432  0.1866  0.0172
  255loPI   C3A 4073   5.082   7.239   8.813 -0.1466  0.3133 -0.1810
  255loPI   C4A 4074   5.282   7.144   8.446 -0.1270  0.2907  0.1043
  255loPI   C5A 4075   5.216   6.748   8.218  0.1788 -0.1203  0.0409
  255loPI   C6A 4076   5.554   6.444   8.062  0.0225  0.1413  0.2644
  255loPI   C1B 4077   5.490   8.027   9.295  0.0546  0.0850  0.3042
  255loPI   C2B 4078   5.571   8.125   8.855  0.2073 -0.3570  0.2936
  255loPI   C3B 4079   5.689   7.988   8.463 -0.2757  0.2611  0.4434
  255loPI   C4B 4080   5.652   8.147   8.135  0.0288  0.1918  0.0096
  256loPI    C1 4081   4.706  13.750  10.289 -0.2047 -0.1509 -0.0581
  256loPI    C2 4082   4.462  13.511  10.498 -0.0134 -0.2563  0.0467
  256loPI    C3 4083   4.524  13.887  10.618 -0.1463 -0.2200  0.0033
  256loPI   PO4 4084   4.692  13.721  10.061 -0.2049  0.3640 -0.2415
  256loPI   GL1 4085   4.929  13.808   9.722  0.0802 -0.5661 -0.2288
  256loPI   GL2 4086   5.079  14.102   9.748  0.3254  0.1526  0.0848
  256loPI   C1A 4087   5.025  13.662   9.216 -0.0664 -0.2069  0.1331
  256loPI   C2A 4088   5.007  13.399   8.811 -0.0193  0.2917  0.0919
  256loPI   C3A 4089   4.999  13.445   8.425  0.0837  0.4383  0.0332
  256loPI   C4A 4090   5.123  13.357   8.055 -0.1822  0.0115  0.1674
  256loPI   C5A 4091   5.448  13.189   7.821 -0.1709  0.0309 -0.3197
  256loPI   C6A 4092   5.356  12.945   7.357 -0.2845 -0.2740 -0.1968
  256loPI   C1B 4093   4.959  14.136   9.391 -0.1134 -0.1692 -0.2313
  256loPI   C2B 4094   4.977  14.169   8.976  0.0545  0.0845 -0.1117
  256loPI   C3B 4095   4.962  14.027   8.539  0.1422  0.0452  0.0757
  256loPI   C4B 4096   5.157  13.973   8.135 -0.1061  0.4641  0.2562
  257loPI    C1 4097   8.147  17.985  11.114 -0.0790  0.1187 -0.0648
  257loPI    C2 4098   7.892  17.791  11.354  0.1420 -0.1632 -0.0520
  257loPI    C3 4099   8.087  18.114  11.487  0.0153 -0.1227  0.0362
  257loPI   PO4 4100   8.021  18.070  10.856  0.2890  0.0397 -0.1542
  257loPI   GL1 4101   7.934  17.849  10.406 -0.2414  0.0278 -0.0919
  257loPI   GL2 4102   8.220  17.737  10.408  0.0839  0.0217 -0.0771
  257loPI   C1A 4103   7.762  18.298  10.264  0.0402  0.2010  0.3875
  257loPI   C2A 4104   7.639  18.550   9.908 -0.3521  0.0221 -0.0356
  257loPI   C3A 4105   7.646  18.561   9.477 -0.0871  0.2211 -0.0558
  257loPI   C4A 4106   7.768  18.383   9.074  0.2892  0.3405 -0.0180
  257loPI   C5A 4107   7.719  18.240   8.622 -0.1205  0.0361 -0.1801
  257loPI   C6A 4108   7.625  18.032   8.211  0.3139 -0.4004  0.2943
  257loPI   C1B 4109   8.156  18.049   9.988  0.0780  0.0230 -0.1453
  257loPI   C2B 4110   8.101  18.306   9.589 -0.0686  0.0439  0.2226
  257loPI   C3B 4111   8.234  18.324   9.146 -0.2594  0.1151 -0.0948
  257loPI   C4B 4112   8.171  18.596   8.791  0.1081 -0.0771  0.3247
  258loPI    C1 4113   1.306   8.429  10.282 -0.0004  0.0166  0.1298
  258loPI    C2 4114   1.521   8.384  10.617  0.0322  0.0151  0.1088
  258loPI    C3 4115   1.124   8.428  10.638  0.0552  0.2049  0.1597
  258loPI   PO4 4116   1.447   8.222  10.127  0.2986 -0.0909 -0.0193
  258loPI   GL1 4117   1.288   7.955   9.857 -0.2657 -0.1585  0.4595
  258loPI   GL2 4118   1.034   7.881   9.696 -0.0095 -0.0077 -0.3708
  258loPI   C1A 4119   1.457   7.787   9.408  0.1741 -0.1609  0.2976
  258loPI   C2A 4120   1.330   7.760   9.098  0.3243 -0.1389 -0.3143
  258loPI   C3A 4121   1.397   7.715   8.594 -0.1338  0.1432 -0.0092
  258loPI   C4A 4122   1.159   7.746   8.155 -0.0958 -0.0038 -0.3617
  258loPI   C5A 4123   1.222   7.885   7.776 -0.2450  0.0207 -0.1078
  258loPI   C6A 4124   1.384   7.848   7.448  0.0095  0.0749 -0.1842
  258loPI   C1B 4125   0.930   7.802   9.327  0.1356 -0.1947 -0.0852
  258loPI   C2B 4126   0.870   7.827   8.907 -0.0737  0.1077  0.1899
  258loPI   C3B 4127   1.019   8.033   8.507  0.0726  0.3811  0.0744
  258loPI   C4B 4128   0.866   8.118   8.099 -0.1256  0.2238  0.2915
  259loPI    C1 4129   0.421   8.985  10.726 -0.0211  0.0135  0.1983
  259loPI    C2 4130   0.552   9.359  10.672 -0.0642  0.0007 -0.0030
  259loPI    C3 4131   0.245   9.288  10.919  0.0002  0.0870  0.1030
  259loPI   PO4 4132   0.452   8.928  10.433 -0.0347  0.1610 -0.2647
  259loPI   GL1 4133   0.283   8.908  10.025 -0.1098 -0.0609  0.0902
  259loPI   GL2 4134   0.137   8.991   9.774  0.0754  0.0089 -0.0231
  259loPI   C1A 4135   0.618   8.872   9.653  0.0213  0.0095 -0.0497
  259loPI   C2A 4136   0.623   8.793   9.309 -0.1569  0.1822 -0.3590
  259loPI   C3A 4137   0.532   8.751   8.886  0.1882 -0.1994 -0.1266
  259loPI   C4A 4138   0.565   8.819   8.422 -0.4192  0.0683 -0.0697
  259loPI   C5A 4139   0.616   8.567   7.989 -0.0525 -0.1111 -0.2714
  259loPI   C6A 4140   0.669   8.433   7.566  0.0662 -0.0504  0.1000
  259loPI   C1B 4141  -0.034   8.811   9.476 -0.1383  0.0040  0.3161
  259loPI   C2B 4142   0.030   8.790   9.101  0.0588 -0.0640  0.0297
  259loPI   C3B 4143  -0.029   8.905   8.705 -0.0125 -0.0205  0.3035
  259loPI   C4B 4144  -0.175   8.897   8.295  0.2310  0.0871  0.2242
  260loPI    C1 4145   1.758  14.248  10.675  0.0615 -0.1090 -0.0354
  260loPI    C2 4146   1.470  14.259  10.952  0.2024  0.0133  0.1082
  260loPI    C3 4147   1.697  14.582  10.886  0.1528 -0.0060 -0.1695
  260loPI   PO4 4148   1.721  14.079  10.467 -0.0208  0.2899  0.1610
  260loPI   GL1 4149   1.376  13.882  10.107  0.2264  0.1013 -0.0985
  260loPI   GL2 4150   1.504  13.781   9.816 -0.4106  0.1401 -0.0943
  260loPI   C1A 4151   1.134  14.144   9.798  0.0745 -0.0708  0.3515
  260loPI   C2A 4152   1.054  14.243   9.441  0.0904  0.1764 -0.1835
  260loPI   C3A 4153   1.094  14.191   8.900 -0.1445 -0.1679 -0.0986
  260loPI   C4A 4154   1.067  13.983   8.566 -0.1512 -0.3423  0.0412
  260loPI   C5A 4155   1.003  13.595   8.422 -0.0195 -0.0448  0.3799
  260loPI   C6A 4156   0.589  13.481   8.469 -0.1922  0.0687 -0.0282
  260loPI   C1B 4157   1.486  13.712   9.408 -0.1616  0.0602  0.3701
  260loPI   C2B 4158   1.381  13.746   8.913 -0.2600  0.0091  0.0593
  260loPI   C3B 4159   1.595  13.741   8.523 -0.0324 -0.0764 -0.3451
  260loPI   C4B 4160   1.900  13.968   8.360 -0.1216 -0.2854 -0.1198
  261loPI    C1 4161   8.255  10.996  10.325 -0.2019  0.0077  0.0936
  261loPI    C2 4162   8.339  11.096  10.703  0.0555 -0.1917  0.0917
  261loPI    C3 4163   7.961  11.105  10.573 -0.0240 -0.0373  0.3276
  261loPI   PO4 4164   8.585  11.071  10.264  0.0028 -0.0044 -0.2252
  261loPI   GL1 4165   8.535  11.065   9.830 -0.0151  0.0764 -0.3265
  261loPI   GL2 4166   8.355  10.889   9.579  0.1388  0.0940  0.0905
  261loPI   C1A 4167   8.810  11.167   9.449 -0.0355  0.1815 -0.0453
  261loPI   C2A 4168   8.802  11.278   9.045 -0.1657 -0.0800 -0.0890
  261loPI   C3A 4169   8.895  11.250   8.636  0.0358 -0.1967 -0.1191
  261loPI   C4A 4170   9.068  11.433   8.239  0.2281 -0.1135  0.1330
  261loPI   C5A 4171   9.566  11.420   8.131  0.2188 -0.0059  0.2674
  261loPI   C6A 4172   9.815  11.288   8.415 -0.1058  0.0578  0.0214
  261loPI   C1B 4173   8.268  10.937   9.199 -0.2794  0.2015 -0.0201
  261loPI   C2B 4174   8.298  11.005   8.858 -0.3792  0.0762  0.0425
  261loPI   C3B 4175   8.456  10.925   8.483  0.0650  0.2227  0.3092
  261loPI   C4B 4176   8.538  10.942   7.994 -0.0312 -0.1807 -0.2760
  262loPI    C1 4177  16.355  13.888  11.070 -0.1934 -0.0291  0.0908
  262loPI    C2 4178  16.118  13.894  11.393  0.0215  0.0190  0.2505
  262loPI    C3 4179  16.215  13.545  11.221 -0.0367 -0.0119  0.2804
  262loPI   PO4 4180  16.224  14.136  10.875 -0.0605 -0.0577  0.1009
  262loPI   GL1 4181  16.346  14.328  10.527 -0.0881  0.0121 -0.0908
  262loPI   GL2 4182  16.442  14.597  10.376  0.1653 -0.0695 -0.3293
  262loPI   C1A 4183  16.445  14.132  10.148  0.2966 -0.0595  0.2135
  262loPI   C2A 4184  16.565  14.096   9.792 -0.1739  0.1243 -0.0242
  262loPI   C3A 4185  16.638  14.045   9.442  0.0179 -0.0123 -0.3083
  262loPI   C4A 4186  16.669  14.150   8.941  0.5516 -0.1637 -0.0198
  262loPI   C5A 4187  16.542  13.989   8.483 -0.0576 -0.1034  0.0746
  262loPI   C6A 4188  16.189  13.700   8.413  0.0649  0.0716  0.0229
  262loPI   C1B 4189  16.639  14.615  10.006  0.1268 -0.1217  0.0257
  262loPI   C2B 4190  16.671  14.642   9.672 -0.1144 -0.2058  0.1920
  262loPI   C3B 4191  16.766  14.645   9.264  0.4072 -0.0171 -0.0648
  262loPI   C4B 4192  16.649  14.665   8.827 -0.1391  0.0476  0.1876
  263loPI    C1 4193   7.433   4.610  10.167  0.0963 -0.1011 -0.5508
  263loPI    C2 4194   7.291   4.928   9.970 -0.2378  0.1116  0.0088
  263loPI    C3 4195   7.626   4.959  10.186 -0.3295  0.1159  0.1515
  263loPI   PO4 4196   7.469   4.400   9.972  0.4412 -0.0452  0.2043
  263loPI   GL1 4197   7.224   4.469   9.688  0.1203  0.0278 -0.0571
  263loPI   GL2 4198   6.873   4.407   9.621  0.0612  0.1393 -0.1019
  263loPI   C1A 4199   7.327   4.513   9.209 -0.0966 -0.1673  0.2976
  263loPI   C2A 4200   7.270   4.552   8.798  0.1057  0.1598  0.2972
  263loPI   C3A 4201   7.096   4.635   8.572  0.3133  0.0869 -0.2195
  263loPI   C4A 4202   7.055   4.846   8.227 -0.1141  0.2168  0.2436
  263loPI   C5A 4203   7.243   5.050   7.990  0.1236 -0.1435 -0.0078
  263loPI   C6A 4204   7.631   5.266   7.858 -0.1319 -0.1856 -0.0371
  263loPI   C1B 4205   6.733   4.529   9.182  0.1831 -0.1444  0.2936
  263loPI   C2B 4206   6.640   4.555   8.743  0.0970  0.2216 -0.1676
  263loPI   C3B 4207   6.610   4.539   8.359 -0.0010 -0.1219 -0.1674
  263loPI   C4B 4208   6.596   4.668   7.964 -0.0030 -0.1242  0.0676
  264loPI    C1 4209   6.777   7.307  10.418 -0.2934  0.1092  0.0627
  264loPI    C2 4210   7.064   7.554  10.546 -0.0534 -0.2148  0.1637
  264loPI    C3 4211   6.930   7.264  10.785 -0.3705 -0.1522  0.0661
  264loPI   PO4 4212   6.660   7.437  10.282  0.1172  0.4015 -0.0177
  264loPI   GL1 4213   6.645   7.500   9.883 -0.1440  0.0996  0.1289
  264loPI   GL2 4214   6.577   7.656   9.710  0.2305 -0.1411 -0.2478
  264loPI   C1A 4215   6.724   7.244   9.503  0.1405 -0.0544 -0.2031
  264loPI   C2A 4216   6.894   7.210   9.115 -0.1569  0.1150  0.0492
  264loPI   C3A 4217   7.171   7.405   8.895  0.0409  0.1335  0.2701
  264loPI   C4A 4218   7.239   7.457   8.443 -0.0101 -0.2466 -0.0811
  264loPI   C5A 4219   6.997   7.443   8.070 -0.2925  0.0308 -0.3003
  264loPI   C6A 4220   6.789   7.184   7.769  0.0029  0.1334  0.0739
  264loPI   C1B 4221   6.704   7.690   9.244 -0.0325  0.2612  0.1390
  264loPI   C2B 4222   6.847   7.771   8.860 -0.1217  0.0987  0.0105
  264loPI   C3B 4223   6.827   7.817   8.382  0.2072  0.1198 -0.0202
  264loPI   C4B 4224   6.539   7.916   8.059  0.5094  0.0271 -0.0723
  265loPI    C1 4225   1.010  16.348  10.764  0.1260 -0.0857  0.0216
  265loPI    C2 4226   1.275  16.076  10.890  0.2422  0.0881  0.1585
  265loPI    C3 4227   1.097  16.318  11.154 -0.0657 -0.0359  0.0692
  265loPI   PO4 4228   1.025  16.295  10.495  0.2504 -0.0022  0.2708
  265loPI   GL1 4229   1.135  16.603  10.120  0.0487  0.0607 -0.2134
  265loPI   GL2 4230   1.451  16.454   9.997  0.1675 -0.2585 -0.2144
  265loPI   C1A 4231   1.258  16.802   9.695 -0.1631  0.4764  0.4645
  265loPI   C2A 4232   1.184  16.759   9.203 -0.0832 -0.3746  0.2361
  265loPI   C3A 4233   1.142  16.599   8.839 -0.1377 -0.0659 -0.2007
  265loPI   C4A 4234   1.069  16.787   8.409  0.1052  0.1360  0.0242
  265loPI   C5A 4235   1.353  17.038   8.334  0.1595 -0.0013  0.1658
  265loPI   C6A 4236   1.714  17.159   8.338  0.0196  0.0801 -0.0491
  265loPI   C1B 4237   1.562  16.351   9.640  0.4279  0.0083 -0.2300
  265loPI   C2B 4238   1.670  16.304   9.158 -0.0604 -0.2670 -0.2649
  265loPI   C3B 4239   1.618  16.328   8.763  0.0324 -0.3854  0.0678
  265loPI   C4B 4240   1.688  16.204   8.361  0.0629 -0.2936 -0.2712
  266loPI    C1 4241  17.617  16.123  10.460 -0.1730 -0.1521 -0.0763
  266loPI    C2 4242  17.505  16.345  10.146 -0.0209  0.0366  0.0004
  266loPI    C3 4243  17.349  16.416  10.507  0.1419  0.1215  0.0549
  266loPI   PO4 4244  17.862  16.175  10.463 -0.0170 -0.1138 -0.1473
  266loPI   GL1 4245  18.013  16.312  10.144 -0.1447  0.0618 -0.2460
  266loPI   GL2 4246  18.354  16.266  10.015 -0.0711 -0.0121  0.0167
  266loPI   C1A 4247  17.853  16.202   9.740 -0.0492  0.0278  0.2882
  266loPI   C2A 4248  17.783  16.136   9.370 -0.0129  0.0238 -0.2886
  266loPI   C3A 4249  17.732  16.025   8.928  0.0447 -0.3340  0.5511
  266loPI   C4A 4250  17.843  16.045   8.478  0.2534  0.0926  0.1861
  266loPI   C5A 4251  17.693  16.103   8.172  0.0645  0.2951 -0.0834
  266loPI   C6A 4252  17.597  15.954   7.803  0.0044  0.1372 -0.0681
  266loPI   C1B 4253  18.288  16.459   9.760 -0.1666  0.3721  0.0763
  266loPI   C2B 4254  18.265  16.368   9.262  0.0806  0.0656 -0.2885
  266loPI   C3B 4255  18.218  16.263   8.776 -0.4516 -0.1343  0.0833
  266loPI   C4B 4256  18.396  16.355   8.391 -0.3709  0.0553  0.0633
  267loPI    C1 4257   0.149   2.935  10.849 -0.1399  0.0837  0.0965
  267loPI    C2 4258   0.318   3.256  11.017 -0.0467  0.0304  0.1057
  267loPI    C3 4259   0.139   2.981  11.246  0.2592 -0.1452  0.1391
  267loPI   PO4 4260   0.204   2.942  10.629  0.0560 -0.1708  0.0516
  267loPI   GL1 4261  -0.031   3.001  10.275  0.0392 -0.1050 -0.0764
  267loPI   GL2 4262  -0.392   2.864  10.245  0.1780  0.1060 -0.0587
  267loPI   C1A 4263   0.012   2.984   9.884 -0.2127 -0.0539 -0.2342
  267loPI   C2A 4264  -0.274   2.789   9.486 -0.0265  0.0230 -0.4447
  267loPI   C3A 4265  -0.547   2.969   9.111  0.4061  0.0243  0.1709
  267loPI   C4A 4266  -0.738   2.972   8.736 -0.0544 -0.0843  0.0561
  267loPI   C5A 4267  -0.688   2.997   8.327  0.0831  0.1646  0.4138
  267loPI   C6A 4268  -0.661   2.835   7.979 -0.4149  0.0562 -0.1729
  267loPI   C1B 4269  -0.583   2.906   9.857  0.2206 -0.1349 -0.1180
  267loPI   C2B 4270  -0.822   2.800   9.542  0.1723  0.1910  0.0352
  267loPI   C3B 4271  -0.981   2.711   9.105  0.0752 -0.0263 -0.2186
  267loPI   C4B 4272  -0.998   2.453   8.822  0.2478 -0.0591 -0.2311
  268loPI    C1 4273  17.160  15.974  10.808 -0.1278  0.2177  0.3173
  268loPI    C2 4274  17.229  15.995  11.201  0.2129 -0.4205  0.3040
  268loPI    C3 4275  17.525  16.069  10.943 -0.0214  0.0415  0.1587
  268loPI   PO4 4276  17.095  15.773  10.726  0.1013 -0.2676  0.0519
  268loPI   GL1 4277  17.055  15.630  10.266 -0.0128  0.1036  0.0838
  268loPI   GL2 4278  17.191  15.948  10.214 -0.1678 -0.0970 -0.1920
  268loPI   C1A 4279  16.977  15.609   9.889 -0.1040 -0.0243 -0.0516
  268loPI   C2A 4280  16.912  15.743   9.560 -0.0963  0.1485 -0.2192
  268loPI   C3A 4281  16.824  15.631   9.203 -0.2686  0.0205 -0.2915
  268loPI   C4A 4282  16.770  15.681   8.815  0.0973 -0.1077  0.2286
  268loPI   C5A 4283  16.721  15.752   8.443  0.2731  0.1968  0.2991
  268loPI   C6A 4284  16.684  15.619   8.014  0.1428 -0.2230  0.2001
  268loPI   C1B 4285  17.357  15.960   9.902 -0.1036 -0.1701 -0.1444
  268loPI   C2B 4286  17.347  15.953   9.440 -0.1396 -0.2382 -0.2019
  268loPI   C3B 4287  17.273  15.802   9.025 -0.1671  0.0276 -0.1105
  268loPI   C4B 4288  17.367  15.889   8.613  0.2367 -0.2341 -0.1393
  269loPI    C1 4289  15.015  17.463  10.595 -0.1270 -0.1430  0.0503
  269loPI    C2 4290  15.390  17.417  10.727 -0.0550  0.2766  0.0057
  269loPI    C3 4291  15.102  17.531  10.980 -0.1190  0.1234  0.0030
  269loPI   PO4 4292  15.060  17.535  10.295  0.1823 -0.3128 -0.3037
  269loPI   GL1 4293  15.226  17.894  10.036  0.4240 -0.0077  0.0638
  269loPI   GL2 4294  15.345  18.121  10.039 -0.2787 -0.2304 -0.1063
  269loPI   C1A 4295  15.313  17.658   9.691 -0.1305  0.2046  0.0415
  269loPI   C2A 4296  15.187  17.584   9.282 -0.0409  0.0207  0.0710
  269loPI   C3A 4297  15.215  17.531   8.832 -0.0829 -0.0785  0.2041
  269loPI   C4A 4298  15.377  17.445   8.352  0.2772 -0.0854  0.3763
  269loPI   C5A 4299  15.255  17.211   7.998 -0.0766 -0.0973  0.0521
  269loPI   C6A 4300  15.016  16.933   7.951 -0.3751 -0.0333  0.0633
  269loPI   C1B 4301  15.285  18.203   9.678 -0.1748  0.0773  0.1831
  269loPI   C2B 4302  15.236  18.097   9.244 -0.0490  0.0366  0.0174
  269loPI   C3B 4303  15.263  18.063   8.877  0.0669  0.3597  0.1260
  269loPI   C4B 4304  15.311  18.027   8.486  0.0200  0.1003 -0.1775
  270loPI    C1 4305  17.409  13.926  10.852  0.1003 -0.0403  0.0774
  270loPI    C2 4306  17.539  13.614  11.066 -0.0038 -0.1949 -0.0817
  270loPI    C3 4307  17.778  13.782  10.793  0.0916 -0.0639  0.0802
  270loPI   PO4 4308  17.184  13.847  10.681 -0.0380 -0.1401  0.0524
  270loPI   GL1 4309  17.042  13.685  10.345 -0.2101 -0.1973 -0.0699
  270loPI   GL2 4310  16.682  13.753  10.284 -0.1369 -0.0127  0.0869
  270loPI   C1A 4311  17.039  13.709   9.909 -0.0746 -0.0136 -0.1498
  270loPI   C2A 4312  16.944  13.674   9.489 -0.2170 -0.1746  0.0095
  270loPI   C3A 4313  17.022  13.853   9.073  0.1800  0.0914 -0.2474
  270loPI   C4A 4314  16.993  13.890   8.681 -0.1263  0.0387  0.0044
  270loPI   C5A 4315  16.900  13.707   8.220  0.0321 -0.1662  0.2926
  270loPI   C6A 4316  16.475  13.577   8.012 -0.0886 -0.0425 -0.1242
  270loPI   C1B 4317  16.584  13.539   9.883  0.0241  0.1354 -0.0251
  270loPI   C2B 4318  16.508  13.566   9.541  0.1508 -0.1997 -0.0248
  270loPI   C3B 4319  16.636  13.579   9.032  0.0545  0.3100  0.1344
  270loPI   C4B 4320  16.580  13.515   8.671 -0.1725  0.2375  0.1640
  271loPI    C1 4321   2.591   6.277  10.507  0.3044  0.3451 -0.0371
  271loPI    C2 4322   2.523   6.099  10.858  0.4223 -0.0932 -0.2298
  271loPI    C3 4323   2.753   6.426  10.841 -0.1402  0.3442  0.1858
  271loPI   PO4 4324   2.534   6.138  10.348  0.2053 -0.4005 -0.1642
  271loPI   GL1 4325   2.480   6.169   9.942  0.0093 -0.1194  0.0291
  271loPI   GL2 4326   2.357   5.814   9.945 -0.0075  0.1796 -0.3620
  271loPI   C1A 4327   2.298   6.099   9.535  0.0931 -0.2576 -0.0054
  271loPI   C2A 4328   2.343   5.895   9.211  0.0536  0.1066 -0.0401
  271loPI   C3A 4329   2.395   5.931   8.837  0.1784  0.0473 -0.1691
  271loPI   C4A 4330   2.353   5.917   8.388 -0.1579  0.0225 -0.0500
  271loPI   C5A 4331   2.426   5.544   7.975  0.2217  0.0362  0.0406
  271loPI   C6A 4332   2.492   5.112   7.897 -0.2024 -0.1681  0.1716
  271loPI   C1B 4333   2.093   5.655   9.655  0.3523 -0.1135  0.0069
  271loPI   C2B 4334   2.044   5.496   9.259  0.0005  0.1946 -0.0006
  271loPI   C3B 4335   2.104   5.469   8.842 -0.0838 -0.0169 -0.2287
  271loPI   C4B 4336   2.086   5.517   8.314  0.1235  0.0292  0.0138
  272loPI    C1 4337  13.509  11.109  10.524 -0.0088 -0.1743 -0.0323
  272loPI    C2 4338  13.126  11.128  10.640 -0.0109 -0.2222 -0.0312
  272loPI    C3 4339  13.388  10.910  10.849  0.0304 -0.1394  0.0036
  272loPI   PO4 4340  13.555  11.104  10.124  0.3923  0.0697  0.2338
  272loPI   GL1 4341  13.592  11.146   9.720  0.1087 -0.0529  0.2115
  272loPI   GL2 4342  13.320  11.032   9.706 -0.1676  0.1530  0.1279
  272loPI   C1A 4343  13.603  11.331   9.296 -0.0215  0.0154  0.1366
  272loPI   C2A 4344  13.531  11.489   8.854  0.2067 -0.3422  0.2079
  272loPI   C3A 4345  13.453  11.601   8.560 -0.0193 -0.0789  0.1757
  272loPI   C4A 4346  13.434  11.904   8.344 -0.1448  0.2220  0.0487
  272loPI   C5A 4347  13.170  12.164   8.285  0.1981  0.2632 -0.0156
  272loPI   C6A 4348  13.152  12.685   8.384  0.2789  0.0406 -0.1276
  272loPI   C1B 4349  13.286  10.964   9.265  0.0915 -0.0578 -0.0473
  272loPI   C2B 4350  13.611  11.028   8.911  0.1129 -0.0985 -0.1437
  272loPI   C3B 4351  13.691  10.978   8.560  0.3133  0.2450  0.2573
  272loPI   C4B 4352  13.726  10.607   8.198 -0.1690 -0.0926  0.0868
  273loPI    C1 4353   5.247   3.430  10.336  0.0101  0.0529  0.1354
  273loPI    C2 4354   5.576   3.447  10.563  0.0417  0.0607  0.0892
  273loPI    C3 4355   5.281   3.711  10.619  0.0618  0.0806  0.1019
  273loPI   PO4 4356   5.245   3.143  10.232 -0.1371 -0.0270 -0.0524
  273loPI   GL1 4357   5.381   2.787   9.906 -0.2815 -0.2710  0.2224
  273loPI   GL2 4358   5.364   3.101   9.780  0.0500 -0.2507 -0.2772
  273loPI   C1A 4359   5.191   2.627   9.588 -0.1630  0.0982  0.3474
  273loPI   C2A 4360   5.170   2.616   9.225  0.1007 -0.1650  0.0700
  273loPI   C3A 4361   5.060   2.685   8.851 -0.0033  0.0748  0.1022
  273loPI   C4A 4362   4.883   2.949   8.554 -0.1532  0.0260 -0.0217
  273loPI   C5A 4363   5.046   3.141   8.122  0.1570  0.0684 -0.0176
  273loPI   C6A 4364   5.327   3.455   8.089  0.2988 -0.0644  0.2043
  273loPI   C1B 4365   5.297   3.180   9.364  0.1870 -0.0489  0.1655
  273loPI   C2B 4366   5.289   3.117   8.960  0.1625  0.1276  0.4506
  273loPI   C3B 4367   5.370   3.005   8.510  0.1790  0.0001 -0.0139
  273loPI   C4B 4368   5.580   2.694   8.232 -0.3122 -0.0478 -0.0836
  274loPI    C1 4369  16.028  17.831  10.691  0.0754  0.2801  0.0788
  274loPI    C2 4370  16.247  18.032  10.958 -0.2011  0.2807  0.3100
  274loPI    C3 4371  15.962  17.780  11.082 -0.1859  0.1140  0.0162
  274loPI   PO4 4372  16.076  17.942  10.535  0.1823 -0.3176 -0.3191
  274loPI   GL1 4373  16.082  17.666  10.102  0.0372  0.1050  0.1339
  274loPI   GL2 4374  16.262  17.389  10.015 -0.2885  0.1230  0.0009
  274loPI   C1A 4375  15.740  17.654   9.894 -0.0824  0.1626 -0.0007
  274loPI   C2A 4376  15.707  17.671   9.430  0.0087  0.0794  0.1898
  274loPI   C3A 4377  15.660  17.672   9.085  0.2877  0.1431  0.0172
  274loPI   C4A 4378  15.669  17.689   8.682 -0.3051  0.0406  0.0434
  274loPI   C5A 4379  15.708  17.810   8.282  0.1388  0.2875 -0.0798
  274loPI   C6A 4380  15.689  17.489   7.936 -0.0264  0.1060 -0.1488
  274loPI   C1B 4381  16.095  17.433   9.641  0.1565 -0.0184 -0.0959
  274loPI   C2B 4382  16.189  17.364   9.223  0.0546  0.0854 -0.1116
  274loPI   C3B 4383  16.063  17.392   8.854 -0.2416  0.3609 -0.1122
  274loPI   C4B 4384  16.026  17.475   8.437 -0.2526  0.0154  0.0935
  275loPI    C1 4385   2.849   1.504  10.524 -0.0183 -0.0789  0.0236
  275loPI    C2 4386   3.084   1.180  10.510 -0.0395 -0.0875 -0.1533
  275loPI    C3 4387   3.012   1.360  10.860  0.1089 -0.1736 -0.0777
  275loPI   PO4 4388   2.973   1.694  10.326  0.2816 -0.2049  0.0855
  275loPI   GL1 4389   3.135   1.577  10.007  0.4717 -0.0781 -0.0940
  275loPI   GL2 4390   3.176   1.267  10.024  0.1101 -0.0368 -0.3069
  275loPI   C1A 4391   3.281   1.878   9.651 -0.2349 -0.2757  0.0043
  275loPI   C2A 4392   3.307   1.777   9.209  0.0921  0.0199 -0.1426
  275loPI   C3A 4393   3.406   1.807   8.742  0.0759  0.0896 -0.0126
  275loPI   C4A 4394   3.486   1.598   8.342 -0.0801  0.1110 -0.0604
  275loPI   C5A 4395   3.284   1.324   8.055  0.1689  0.0624 -0.0708
  275loPI   C6A 4396   3.335   1.161   7.639  0.1708 -0.0237 -0.0983
  275loPI   C1B 4397   3.081   1.259   9.553 -0.1991 -0.0826 -0.0828
  275loPI   C2B 4398   3.118   1.297   9.138 -0.0073 -0.2001  0.1053
  275loPI   C3B 4399   2.972   1.414   8.776  0.1306  0.1850  0.0221
  275loPI   C4B 4400   2.940   1.456   8.389 -0.1430  0.0143 -0.1564
  276loPI    C1 4401  17.168   0.830  10.783  0.1291 -0.1327 -0.2413
  276loPI    C2 4402  17.452   0.810  11.064 -0.1237 -0.1770  0.0157
  276loPI    C3 4403  17.331   1.166  10.927 -0.1625 -0.1448  0.1324
  276loPI   PO4 4404  17.214   0.681  10.576 -0.0109  0.0159  0.1169
  276loPI   GL1 4405  17.083   0.798  10.203 -0.2758 -0.3077 -0.2245
  276loPI   GL2 4406  16.829   0.645  10.072  0.1668  0.0628 -0.0175
  276loPI   C1A 4407  17.226   0.913   9.811 -0.1501 -0.1908  0.0400
  276loPI   C2A 4408  17.124   0.932   9.434  0.0482  0.4517 -0.0359
  276loPI   C3A 4409  17.118   0.853   9.002 -0.1788  0.4389 -0.0971
  276loPI   C4A 4410  17.209   1.168   8.680  0.0449  0.1146 -0.3136
  276loPI   C5A 4411  17.340   1.089   8.354  0.1246 -0.2009  0.4456
  276loPI   C6A 4412  17.789   0.961   8.235  0.1152  0.1009  0.2090
  276loPI   C1B 4413  16.694   0.665   9.619 -0.1821  0.1343  0.0623
  276loPI   C2B 4414  16.724   0.559   9.243  0.0416 -0.2660  0.1543
  276loPI   C3B 4415  16.751   0.429   8.821 -0.2183 -0.1367  0.2195
  276loPI   C4B 4416  16.976   0.685   8.495  0.0103  0.1149 -0.1092
  277loPI    C1 4417  10.568  14.235  10.899 -0.1596 -0.2003  0.2448
  277loPI    C2 4418  10.943  14.101  10.939 -0.0810 -0.1541 -0.2707
  277loPI    C3 4419  10.635  13.850  10.985  0.0100 -0.2046  0.0975
  277loPI   PO4 4420  10.521  14.303  10.622 -0.1525  0.3550 -0.0939
  277loPI   GL1 4421  10.409  14.262  10.169  0.1273  0.0192 -0.0422
  277loPI   GL2 4422  10.420  14.569  10.034 -0.0901 -0.0527  0.0252
  277loPI   C1A 4423  10.456  13.945   9.722 -0.3914  0.2246  0.3832
  277loPI   C2A 4424  10.274  14.045   9.313 -0.0795  0.3454 -0.1613
  277loPI   C3A 4425  10.260  14.168   8.872 -0.1574 -0.0847 -0.0592
  277loPI   C4A 4426  10.462  14.359   8.493 -0.1121  0.1136  0.2699
  277loPI   C5A 4427  10.821  14.606   8.482 -0.0859 -0.0586 -0.2719
  277loPI   C6A 4428  11.180  14.826   8.374 -0.1938 -0.0864 -0.0590
  277loPI   C1B 4429  10.671  14.833   9.814  0.0244 -0.2173 -0.1491
  277loPI   C2B 4430  10.749  14.847   9.406  0.2437  0.0372  0.0380
  277loPI   C3B 4431  10.862  14.855   9.089 -0.0556 -0.1157 -0.0253
  277loPI   C4B 4432  11.158  14.685   8.847 -0.0171  0.1402  0.1254
  278loPI    C1 4433  15.358  15.888  10.761  0.1074 -0.0256  0.0657
  278loPI    C2 4434  14.994  15.804  10.905 -0.0392  0.3270 -0.0885
  278loPI    C3 4435  15.318  15.733  11.128 -0.2142  0.1932  0.1272
  278loPI   PO4 4436  15.321  15.820  10.448 -0.0511  0.0222 -0.3746
  278loPI   GL1 4437  15.434  15.904   9.956  0.0093  0.0426 -0.0203
  278loPI   GL2 4438  15.376  15.605   9.926  0.3728 -0.0830 -0.0031
  278loPI   C1A 4439  15.450  16.005   9.525  0.1700  0.1236  0.1994
  278loPI   C2A 4440  15.417  16.078   9.035 -0.1131  0.3781 -0.0561
  278loPI   C3A 4441  15.460  16.000   8.549 -0.2815  0.1365 -0.0387
  278loPI   C4A 4442  15.637  16.168   8.150 -0.2931  0.3250  0.4560
  278loPI   C5A 4443  15.888  16.417   7.843 -0.0683  0.0240  0.0308
  278loPI   C6A 4444  15.944  16.794   7.659 -0.1438 -0.2201  0.0165
  278loPI   C1B 4445  15.293  15.555   9.391  0.1859 -0.2903  0.2781
  278loPI   C2B 4446  15.471  15.428   8.928  0.1528 -0.1528  0.1820
  278loPI   C3B 4447  15.536  15.463   8.446  0.1531 -0.1185 -0.1716
  278loPI   C4B 4448  15.816  15.216   8.306  0.1003  0.0856  0.1195
  279loPI    C1 4449  13.026  15.649  10.651  0.2252  0.0172 -0.0654
  279loPI    C2 4450  12.648  15.556  10.744  0.1714 -0.0691 -0.3575
  279loPI    C3 4451  12.906  15.659  11.032 -0.0341 -0.1544 -0.1397
  279loPI   PO4 4452  12.993  15.806  10.407  0.0670  0.4230 -0.0589
  279loPI   GL1 4453  12.895  15.679  10.069 -0.1248 -0.0753  0.1868
  279loPI   GL2 4454  13.090  15.569   9.992 -0.2039  0.2503  0.0792
  279loPI   C1A 4455  12.708  15.764   9.705 -0.0055  0.1994  0.1488
  279loPI   C2A 4456  12.701  15.670   9.224  0.4094 -0.1830 -0.2669
  279loPI   C3A 4457  12.866  15.681   8.817  0.1451 -0.2122  0.0502
  279loPI   C4A 4458  13.067  15.633   8.384 -0.0282  0.2947 -0.1127
  279loPI   C5A 4459  13.093  15.248   8.127  0.2501  0.0466  0.1116
  279loPI   C6A 4460  13.512  15.034   8.021  0.2079  0.0846  0.1903
  279loPI   C1B 4461  13.047  15.374   9.589  0.1371  0.0350 -0.2725
  279loPI   C2B 4462  12.950  15.255   9.144 -0.1966  0.1864  0.2078
  279loPI   C3B 4463  12.973  15.182   8.700 -0.1686  0.1406 -0.1157
  279loPI   C4B 4464  13.178  14.869   8.478  0.1532  0.1034 -0.0134
  280loPI    C1 4465   6.923  14.604  10.614  0.0656 -0.2029  0.1538
  280loPI    C2 4466   7.274  14.456  10.734  0.0000 -0.2443  0.2962
  280loPI    C3 4467   7.202  14.849  10.762  0.0512 -0.2296  0.2251
  280loPI   PO4 4468   6.871  14.494  10.391  0.0050  0.3524  0.0523
  280loPI   GL1 4469   6.810  14.703  10.008  0.1367 -0.0064  0.1019
  280loPI   GL2 4470   6.633  14.971  10.010 -0.2351  0.0614  0.1491
  280loPI   C1A 4471   7.137  14.825   9.652 -0.0279  0.0030  0.0582
  280loPI   C2A 4472   6.985  14.908   9.282 -0.2217 -0.2485 -0.1544
  280loPI   C3A 4473   7.012  14.857   8.859  0.1882  0.2844 -0.2680
  280loPI   C4A 4474   7.126  15.052   8.509 -0.2033 -0.0019 -0.0398
  280loPI   C5A 4475   7.350  15.520   8.354  0.1004  0.3291 -0.1904
  280loPI   C6A 4476   7.653  15.897   8.367  0.1600  0.0211 -0.2645
  280loPI   C1B 4477   6.588  15.018   9.543 -0.0009 -0.1358  0.1422
  280loPI   C2B 4478   6.539  15.007   9.119  0.1820 -0.1585  0.1674
  280loPI   C3B 4479   6.621  15.120   8.743 -0.1627 -0.1102 -0.2793
  280loPI   C4B 4480   6.770  15.354   8.329 -0.3727  0.2828  0.2155
  281loPI    C1 4481   0.606  14.511  10.639  0.0839 -0.0894 -0.0240
  281loPI    C2 4482   0.298  14.758  10.575  0.2113  0.1053  0.1025
  281loPI    C3 4483   0.477  14.750  10.933  0.2361 -0.1405  0.0862
  281loPI   PO4 4484   0.794  14.536  10.448  0.1280  0.0273  0.3502
  281loPI   GL1 4485   0.905  14.494  10.064 -0.0731  0.0065 -0.0021
  281loPI   GL2 4486   0.663  14.715   9.994  0.0157 -0.0371  0.0620
  281loPI   C1A 4487   0.967  14.748   9.603  0.0517 -0.0222  0.3802
  281loPI   C2A 4488   0.861  14.648   9.133 -0.4877 -0.0636  0.3475
  281loPI   C3A 4489   0.885  14.571   8.660 -0.0727  0.1770  0.0026
  281loPI   C4A 4490   0.647  14.550   8.225  0.0297 -0.0545  0.0600
  281loPI   C5A 4491   0.710  14.465   7.790 -0.1016  0.0075 -0.0426
  281loPI   C6A 4492   0.973  14.554   7.512  0.2889  0.2433 -0.0511
  281loPI   C1B 4493   0.476  14.937   9.570 -0.0248 -0.3368  0.1896
  281loPI   C2B 4494   0.408  14.926   9.090 -0.2666 -0.0087  0.1791
  281loPI   C3B 4495   0.425  14.835   8.672  0.0550 -0.0460 -0.0764
  281loPI   C4B 4496   0.175  14.850   8.239 -0.0148 -0.2101 -0.1894
  282loPI    C1 4497   0.101  17.811  10.521 -0.0230  0.0574  0.2523
  282loPI    C2 4498   0.415  17.703  10.744  0.0202 -0.1849  0.0787
  282loPI    C3 4499   0.092  17.864  10.918  0.1700 -0.0953  0.2784
  282loPI   PO4 4500   0.147  17.652  10.313  0.0967 -0.0973  0.0333
  282loPI   GL1 4501  -0.039  17.637   9.962  0.2392 -0.0709  0.3144
  282loPI   GL2 4502  -0.035  17.330   9.846 -0.1214  0.0725 -0.3223
  282loPI   C1A 4503  -0.244  17.683   9.570  0.0066 -0.3109 -0.3208
  282loPI   C2A 4504  -0.217  17.623   9.160 -0.0535  0.0427 -0.0270
  282loPI   C3A 4505  -0.081  17.602   8.756 -0.1827  0.0770  0.0468
  282loPI   C4A 4506  -0.005  17.686   8.308 -0.0928 -0.1521 -0.0374
  282loPI   C5A 4507   0.382  17.877   8.084 -0.0190  0.0338  0.3486
  282loPI   C6A 4508   0.716  18.003   7.893 -0.1259  0.0701 -0.1781
  282loPI   C1B 4509  -0.288  17.182   9.533 -0.0749 -0.0293 -0.1173
  282loPI   C2B 4510  -0.149  17.132   9.135 -0.2345 -0.0152  0.0642
  282loPI   C3B 4511  -0.302  17.139   8.776 -0.0361  0.0174 -0.0283
  282loPI   C4B 4512  -0.259  17.255   8.248 -0.2149 -0.1942 -0.0858
  283loPI    C1 4513  16.263   2.050  10.694 -0.0051 -0.2805 -0.1446
  283loPI    C2 4514  15.983   2.266  10.881  0.0765 -0.1013 -0.2273
  283loPI    C3 4515  16.061   1.893  11.002  0.0515 -0.0265  0.0253
  283loPI   PO4 4516  16.184   2.034  10.408  0.2305 -0.0918 -0.2788
  283loPI   GL1 4517  16.151   2.385  10.096 -0.1108 -0.2528  0.1910
  283loPI   GL2 4518  16.417   2.450   9.987 -0.2075  0.1722 -0.2814
  283loPI   C1A 4519  16.082   2.368   9.614 -0.0830 -0.1513  0.0991
  283loPI   C2A 4520  16.014   2.369   9.247 -0.1387 -0.1255  0.1655
  283loPI   C3A 4521  15.895   2.167   8.908  0.0678  0.1392 -0.2229
  283loPI   C4A 4522  15.834   2.020   8.466 -0.2241  0.0393  0.0871
  283loPI   C5A 4523  15.979   1.658   8.238 -0.2973  0.1551 -0.1488
  283loPI   C6A 4524  16.016   1.374   8.045  0.2102  0.0973 -0.0820
  283loPI   C1B 4525  16.217   2.843   9.727 -0.1066  0.2117  0.0388
  283loPI   C2B 4526  16.186   2.784   9.354  0.3241 -0.0183 -0.0588
  283loPI   C3B 4527  16.243   2.970   8.885 -0.0385 -0.6459  0.0655
  283loPI   C4B 4528  16.434   3.231   8.577  0.2376 -0.0082 -0.0450
  284loPI    C1 4529  12.623   1.676  10.560 -0.1127  0.4189  0.0828
  284loPI    C2 4530  12.751   1.599  10.931 -0.0156 -0.1194 -0.0544
  284loPI    C3 4531  12.534   1.927  10.858  0.2409  0.1638  0.4120
  284loPI   PO4 4532  12.885   1.680  10.439 -0.0730 -0.0808 -0.1375
  284loPI   GL1 4533  13.084   1.257  10.289 -0.0145 -0.0191  0.0448
  284loPI   GL2 4534  13.330   1.151  10.358  0.1315 -0.2367  0.0597
  284loPI   C1A 4535  12.873   0.968  10.013 -0.2191 -0.0239  0.1279
  284loPI   C2A 4536  12.702   0.889   9.563  0.0546  0.1659  0.1065
  284loPI   C3A 4537  12.712   0.915   9.135 -0.0620  0.1703 -0.0912
  284loPI   C4A 4538  12.912   0.741   8.837 -0.0788 -0.3518 -0.1478
  284loPI   C5A 4539  13.175   0.510   8.538  0.0408 -0.1353 -0.0262
  284loPI   C6A 4540  13.369   0.272   8.174  0.1333 -0.1584  0.1127
  284loPI   C1B 4541  13.315   1.140   9.872 -0.1218  0.1906  0.0668
  284loPI   C2B 4542  13.185   1.014   9.531  0.1195  0.0306  0.1573
  284loPI   C3B 4543  13.162   1.080   9.078 -0.1370 -0.1068 -0.0002
  284loPI   C4B 4544  13.211   1.080   8.612 -0.0040  0.0948  0.0337
  285loPI    C1 4545  18.010   6.460  10.931  0.0398 -0.0379 -0.1534
  285loPI    C2 4546  17.816   6.407  11.277 -0.1342 -0.0508 -0.2522
  285loPI    C3 4547  18.012   6.749  11.208 -0.1041 -0.0458 -0.1436
  285loPI   PO4 4548  17.884   6.314  10.778  0.1247  0.0854  0.0040
  285loPI   GL1 4549  17.644   6.288  10.481  0.3815 -0.1207 -0.2471
  285loPI   GL2 4550  17.586   5.973  10.503 -0.0163 -0.0796 -0.0325
  285loPI   C1A 4551  17.793   6.245   9.994  0.1055 -0.1583  0.0103
  285loPI   C2A 4552  17.740   6.089   9.579  0.0747  0.1030  0.0530
  285loPI   C3A 4553  17.713   6.137   9.231  0.0573 -0.0550 -0.1460
  285loPI   C4A 4554  17.856   6.161   8.858 -0.0875 -0.1951 -0.1938
  285loPI   C5A 4555  17.976   6.400   8.508  0.1118 -0.0928 -0.2791
  285loPI   C6A 4556  18.367   6.289   8.255 -0.1098  0.0066 -0.2264
  285loPI   C1B 4557  17.544   5.787   9.982  0.1167  0.2671 -0.2154
  285loPI   C2B 4558  17.454   5.724   9.538  0.3888  0.0199  0.1522
  285loPI   C3B 4559  17.477   5.707   8.993 -0.0648  0.0653 -0.1395
  285loPI   C4B 4560  17.413   5.703   8.511  0.2813  0.0638 -0.6609
  286loPI    C1 4561  15.918  11.011  10.531 -0.0060 -0.2028  0.1083
  286loPI    C2 4562  15.736  11.309  10.726 -0.1127 -0.1841 -0.0179
  286loPI    C3 4563  15.947  11.036  10.929  0.1053  0.0565  0.0860
  286loPI   PO4 4564  16.064  11.132  10.314  0.0524 -0.1306  0.0342
  286loPI   GL1 4565  16.308  10.998   9.972 -0.1273  0.2664 -0.0039
  286loPI   GL2 4566  16.402  10.684  10.017  0.1245  0.0955 -0.0186
  286loPI   C1A 4567  16.565  10.847   9.610  0.0063  0.2659  0.1432
  286loPI   C2A 4568  16.656  10.833   9.232 -0.2738 -0.1375  0.2566
  286loPI   C3A 4569  16.610  10.950   8.809 -0.0602 -0.0492  0.2095
  286loPI   C4A 4570  16.693  10.802   8.373  0.1260 -0.2293 -0.1089
  286loPI   C5A 4571  16.644  10.774   7.894 -0.1271  0.1309  0.1019
  286loPI   C6A 4572  16.741  10.872   7.606  0.3823  0.0304 -0.1253
  286loPI   C1B 4573  16.348  10.408   9.739  0.0256 -0.1664 -0.1535
  286loPI   C2B 4574  16.350  10.393   9.269 -0.0174  0.2835 -0.4881
  286loPI   C3B 4575  16.409  10.516   8.917  0.1706 -0.0151 -0.2304
  286loPI   C4B 4576  16.099  10.776   8.651 -0.0932 -0.1418  0.0826
  287loPI    C1 4577  13.686   1.932  10.845  0.1916 -0.2433  0.3254
  287loPI    C2 4578  13.909   2.261  10.799 -0.0254 -0.1541 -0.1510
  287loPI    C3 4579  13.887   2.083  11.157  0.1996  0.2698  0.0824
  287loPI   PO4 4580  13.834   1.817  10.585 -0.4869 -0.0673 -0.1288
  287loPI   GL1 4581  13.792   2.019  10.233  0.0371  0.1149  0.1223
  287loPI   GL2 4582  13.529   2.221  10.401  0.0472 -0.0355  0.2593
  287loPI   C1A 4583  13.810   1.864   9.802 -0.0831 -0.1614 -0.1982
  287loPI   C2A 4584  13.774   1.861   9.391  0.2339  0.1065 -0.2483
  287loPI   C3A 4585  13.776   1.731   9.046  0.2813  0.0761  0.1727
  287loPI   C4A 4586  13.784   1.804   8.575  0.3557  0.3343  0.1221
  287loPI   C5A 4587  13.330   1.762   8.306  0.0276 -0.0522 -0.2033
  287loPI   C6A 4588  13.139   1.862   7.907 -0.2032  0.2181 -0.3762
  287loPI   C1B 4589  13.387   2.238   9.875 -0.0031  0.0177  0.3756
  287loPI   C2B 4590  13.375   2.206   9.560 -0.5348 -0.1718 -0.2303
  287loPI   C3B 4591  13.457   2.185   9.156  0.0508  0.2788  0.0793
  287loPI   C4B 4592  13.462   2.197   8.706  0.0991 -0.1318  0.0563
  288loPI    C1 4593   5.364   6.974  10.330 -0.2325 -0.0232 -0.1975
  288loPI    C2 4594   5.602   6.910  10.645  0.0390 -0.0345 -0.4012
  288loPI    C3 4595   5.229   7.044  10.700  0.0386 -0.1618 -0.0696
  288loPI   PO4 4596   5.430   6.794  10.165 -0.0372  0.1784  0.0313
  288loPI   GL1 4597   5.533   6.590   9.830 -0.2348  0.2252 -0.0946
  288loPI   GL2 4598   5.465   6.251   9.630 -0.0424 -0.1224  0.0685
  288loPI   C1A 4599   5.533   6.689   9.380 -0.0583 -0.0971  0.2060
  288loPI   C2A 4600   5.524   6.804   8.942 -0.0311 -0.0087 -0.2129
  288loPI   C3A 4601   5.239   6.546   8.715  0.0639  0.0773  0.3693
  288loPI   C4A 4602   4.938   6.328   8.404 -0.3746 -0.0654 -0.1046
  288loPI   C5A 4603   4.702   6.505   8.239 -0.3077 -0.2442  0.0439
  288loPI   C6A 4604   4.251   6.361   8.171 -0.1238  0.1875  0.2181
  288loPI   C1B 4605   5.166   6.397   9.305  0.0103  0.0948 -0.2342
  288loPI   C2B 4606   4.871   6.429   9.056  0.3700 -0.2378 -0.0824
  288loPI   C3B 4607   4.586   6.336   8.779  0.1671  0.2869  0.2203
  288loPI   C4B 4608   4.343   6.653   8.551  0.2517 -0.0941 -0.1245
  289loPI    C1 4609  12.069  16.788  10.530 -0.0846  0.2706 -0.1094
  289loPI    C2 4610  11.777  16.862  10.793 -0.0519 -0.0230  0.0141
  289loPI    C3 4611  12.153  16.965  10.879 -0.0828  0.1417 -0.0438
  289loPI   PO4 4612  11.921  16.808  10.294 -0.2095  0.1030  0.1865
  289loPI   GL1 4613  11.579  16.812   9.985  0.2011  0.1839  0.0035
  289loPI   GL2 4614  11.730  16.530   9.884 -0.0351  0.1740  0.1363
  289loPI   C1A 4615  11.356  16.945   9.621 -0.0769 -0.1366 -0.2655
  289loPI   C2A 4616  11.333  16.947   9.248  0.1149  0.1013 -0.3586
  289loPI   C3A 4617  11.470  17.050   8.849 -0.0193  0.1197  0.2026
  289loPI   C4A 4618  11.546  17.134   8.522  0.0508 -0.0163  0.2632
  289loPI   C5A 4619  11.672  17.287   8.083 -0.1030 -0.0906 -0.1792
  289loPI   C6A 4620  11.772  17.646   7.896 -0.2522 -0.3343  0.2153
  289loPI   C1B 4621  11.708  16.628   9.478 -0.2218 -0.2012  0.1491
  289loPI   C2B 4622  11.734  16.595   9.093 -0.1654 -0.0013  0.2519
  289loPI   C3B 4623  11.774  16.646   8.690 -0.2867 -0.1903  0.1447
  289loPI   C4B 4624  11.987  16.877   8.332 -0.2001 -0.0536  0.1290
  290loPI    C1 4625  14.222  12.003  10.385 -0.4550  0.0100  0.2996
  290loPI    C2 4626  14.224  11.823  10.028  0.0119 -0.0137  0.3081
  290loPI    C3 4627  13.921  11.761  10.282 -0.2084 -0.1801  0.0108
  290loPI   PO4 4628  14.239  12.229  10.371  0.3584  0.0044 -0.0178
  290loPI   GL1 4629  14.185  12.365   9.956 -0.1574 -0.0647 -0.2940
  290loPI   GL2 4630  14.519  12.444   9.998 -0.0982  0.0233 -0.3080
  290loPI   C1A 4631  14.198  12.344   9.502  0.2749 -0.2476  0.1038
  290loPI   C2A 4632  14.076  12.251   9.013  0.2202  0.1842 -0.0830
  290loPI   C3A 4633  14.211  12.220   8.551  0.3405  0.3000 -0.0994
  290loPI   C4A 4634  14.477  12.520   8.435  0.1234  0.0733 -0.1794
  290loPI   C5A 4635  14.424  13.049   8.505 -0.0425  0.2903  0.2991
  290loPI   C6A 4636  14.352  13.518   8.490 -0.0666 -0.0392  0.0154
  290loPI   C1B 4637  14.621  12.749   9.528 -0.3102 -0.1061 -0.1781
  290loPI   C2B 4638  14.964  12.959   9.346 -0.2433 -0.0541  0.0732
  290loPI   C3B 4639  15.198  12.960   9.036 -0.1619 -0.1420  0.0613
  290loPI   C4B 4640  15.395  12.939   8.764 -0.1865 -0.0778  0.0113
  291loPI    C1 4641  17.828  15.710  10.755 -0.0367  0.2474  0.0599
  291loPI    C2 4642  17.901  15.401  10.998 -0.0419  0.2507  0.0657
  291loPI    C3 4643  17.537  15.568  10.990 -0.0660  0.1951 -0.0074
  291loPI   PO4 4644  18.043  15.646  10.564  0.0347 -0.0294 -0.1763
  291loPI   GL1 4645  18.072  15.529  10.183 -0.3812  0.3265 -0.0173
  291loPI   GL2 4646  17.866  15.801  10.079 -0.0451 -0.2860  0.3131
  291loPI   C1A 4647  18.132  15.339   9.852  0.0594  0.1877 -0.2671
  291loPI   C2A 4648  18.163  15.257   9.452  0.1090  0.0735  0.0819
  291loPI   C3A 4649  18.121  15.227   9.058 -0.1163  0.2615  0.0964
  291loPI   C4A 4650  18.069  15.098   8.636  0.2395  0.0001 -0.1088
  291loPI   C5A 4651  18.078  15.284   8.150  0.1476 -0.0550 -0.0473
  291loPI   C6A 4652  18.023  15.316   7.736  0.0470 -0.0240  0.0126
  291loPI   C1B 4653  17.750  15.710   9.669  0.0726 -0.0410  0.0321
  291loPI   C2B 4654  17.700  15.466   9.250 -0.1757  0.2555 -0.2546
  291loPI   C3B 4655  17.719  15.553   8.860  0.1606  0.5014 -0.2150
  291loPI   C4B 4656  17.718  15.446   8.489  0.0891  0.0287  0.4228
  292loPI    C1 4657  12.963   6.912  10.409  0.2189 -0.3018 -0.0175
  292loPI    C2 4658  12.736   6.649  10.607 -0.1024 -0.0793 -0.0815
  292loPI    C3 4659  13.029   6.845  10.798 -0.2645 -0.0299  0.1199
  292loPI   PO4 4660  13.094   6.816  10.210 -0.1592  0.0748  0.0149
  292loPI   GL1 4661  13.299   6.788   9.769 -0.2584 -0.0332  0.0018
  292loPI   GL2 4662  12.967   6.769   9.703 -0.0501  0.0148  0.2897
  292loPI   C1A 4663  13.444   7.211   9.635 -0.0616 -0.1072  0.1905
  292loPI   C2A 4664  13.660   7.296   9.159  0.0842 -0.7285  0.1549
  292loPI   C3A 4665  13.631   7.329   8.722  0.1828  0.0089 -0.1645
  292loPI   C4A 4666  13.312   7.269   8.411 -0.0152  0.1137  0.3429
  292loPI   C5A 4667  13.001   7.432   8.162 -0.2183 -0.3682  0.3188
  292loPI   C6A 4668  12.928   7.730   7.826  0.1627 -0.0514 -0.3858
  292loPI   C1B 4669  13.233   6.962   9.279  0.0041 -0.1838  0.2177
  292loPI   C2B 4670  13.251   7.049   8.893  0.2940  0.0967 -0.0931
  292loPI   C3B 4671  13.207   6.793   8.557  0.2091 -0.3070  0.1103
  292loPI   C4B 4672  13.004   6.704   8.166  0.0306  0.0765  0.0171
  293loPI    C1 4673   7.760   2.028  10.513  0.1588  0.0952 -0.0201
  293loPI    C2 4674   7.510   1.789  10.714  0.0782  0.0992 -0.1149
  293loPI    C3 4675   7.477   2.186  10.748  0.1378  0.0986 -0.0477
  293loPI   PO4 4676   7.770   1.881  10.252  0.1576  0.1938 -0.1528
  293loPI   GL1 4677   7.536   1.863   9.928  0.2865 -0.3591  0.1449
  293loPI   GL2 4678   7.593   1.518   9.883  0.1600 -0.0218  0.0317
  293loPI   C1A 4679   7.528   1.714   9.466  0.1605 -0.1944 -0.1194
  293loPI   C2A 4680   7.441   1.765   9.003  0.0226 -0.1083  0.0795
  293loPI   C3A 4681   7.636   1.804   8.509 -0.1101 -0.0597 -0.3413
  293loPI   C4A 4682   7.869   1.972   8.234  0.3103  0.1219  0.0941
  293loPI   C5A 4683   8.209   2.199   7.989  0.1107  0.0305  0.0745
  293loPI   C6A 4684   8.590   2.400   7.872  0.3377 -0.1088 -0.1592
  293loPI   C1B 4685   7.813   1.324   9.629 -0.1804  0.0391  0.1983
  293loPI   C2B 4686   7.816   1.345   9.254 -0.1278 -0.1989 -0.0145
  293loPI   C3B 4687   7.740   1.290   8.875 -0.2115  0.0790  0.0734
  293loPI   C4B 4688   7.777   1.272   8.376  0.2598  0.0331  0.0761
  294loPI    C1 4689   5.260  15.717  10.778 -0.1122  0.1191 -0.1333
  294loPI    C2 4690   5.563  15.688  11.036 -0.1031  0.1125 -0.1448
  294loPI    C3 4691   5.188  15.626  11.161 -0.0640 -0.3098 -0.2210
  294loPI   PO4 4692   5.439  15.576  10.538 -0.2088 -0.0529  0.2195
  294loPI   GL1 4693   5.796  15.593  10.278  0.0741  0.0238  0.0744
  294loPI   GL2 4694   5.835  15.290  10.162 -0.0983  0.0647  0.1032
  294loPI   C1A 4695   5.726  15.952  10.042 -0.0349 -0.1632  0.1017
  294loPI   C2A 4696   5.892  16.075   9.640 -0.0512  0.0234  0.0746
  294loPI   C3A 4697   5.842  16.113   9.238 -0.1008 -0.2704 -0.1329
  294loPI   C4A 4698   5.707  16.191   8.748 -0.2617 -0.0767 -0.0192
  294loPI   C5A 4699   5.819  16.186   8.369 -0.1525 -0.0772  0.3775
  294loPI   C6A 4700   5.829  16.249   7.932  0.1321 -0.2333  0.2579
  294loPI   C1B 4701   5.931  15.590   9.764  0.0526  0.0049 -0.2531
  294loPI   C2B 4702   5.874  15.619   9.288  0.1138 -0.1943  0.0277
  294loPI   C3B 4703   5.938  15.673   8.972 -0.2416 -0.0257 -0.0894
  294loPI   C4B 4704   5.782  15.709   8.575 -0.0281 -0.1832 -0.2726
  295loPI    C1 4705   9.137  17.696  10.803  0.0428  0.0057  0.0747
  295loPI    C2 4706   9.362  17.464  10.568  0.0881  0.1619 -0.0374
  295loPI    C3 4707   9.477  17.539  10.944  0.1408  0.1107 -0.0430
  295loPI   PO4 4708   8.959  17.725  10.471  0.2769  0.1491 -0.1211
  295loPI   GL1 4709   8.659  17.615  10.206  0.1681 -0.1041  0.0202
  295loPI   GL2 4710   8.934  17.662   9.981  0.1545 -0.0190  0.2745
  295loPI   C1A 4711   8.360  17.618   9.911  0.1644 -0.1684 -0.0942
  295loPI   C2A 4712   8.264  17.721   9.513 -0.3534  0.0881 -0.2085
  295loPI   C3A 4713   8.009  17.909   9.292 -0.4377 -0.2939 -0.2438
  295loPI   C4A 4714   8.001  17.949   8.922  0.2944 -0.0909  0.0557
  295loPI   C5A 4715   8.068  17.849   8.545 -0.0725  0.4400  0.0865
  295loPI   C6A 4716   8.008  17.382   8.281 -0.1507 -0.0142 -0.1523
  295loPI   C1B 4717   8.796  17.625   9.545 -0.1347 -0.0254 -0.0204
  295loPI   C2B 4718   8.733  17.440   9.153  0.0156 -0.1768  0.1284
  295loPI   C3B 4719   8.714  17.380   8.726 -0.0698 -0.0446 -0.0043
  295loPI   C4B 4720   8.467  17.180   8.357 -0.0132 -0.1720 -0.1580
  296loPI    C1 4721   1.056  17.839  10.358 -0.1197 -0.0583 -0.0180
  296loPI    C2 4722   0.845  17.948  10.680 -0.0429 -0.0174  0.0187
  296loPI    C3 4723   1.154  17.696  10.719 -0.2060 -0.2332 -0.0626
  296loPI   PO4 4724   1.001  17.958  10.154 -0.1423  0.1539  0.1522
  296loPI   GL1 4725   0.788  18.019   9.807 -0.2133 -0.1048 -0.1688
  296loPI   GL2 4726   0.917  18.397   9.876 -0.0749 -0.0069  0.0934
  296loPI   C1A 4727   0.697  18.101   9.386  0.0212 -0.0059  0.2728
  296loPI   C2A 4728   0.482  17.949   9.031  0.1252  0.1082  0.2023
  296loPI   C3A 4729   0.455  17.726   8.648 -0.0074  0.2656 -0.1176
  296loPI   C4A 4730   0.600  17.489   8.265  0.0938  0.1373  0.0369
  296loPI   C5A 4731   0.791  17.514   7.952  0.0431  0.0811 -0.1421
  296loPI   C6A 4732   0.963  17.581   7.558  0.1662  0.0745 -0.2654
  296loPI   C1B 4733   0.777  18.610   9.513  0.0060  0.1984 -0.1744
  296loPI   C2B 4734   0.897  18.626   9.071 -0.1739  0.4456  0.0419
  296loPI   C3B 4735   0.886  18.664   8.705  0.5054 -0.0011 -0.1261
  296loPI   C4B 4736   1.028  18.912   8.353  0.1274  0.0411 -0.0790
  297loPI    C1 4737   5.892   4.844   9.983  0.0717  0.3001 -0.1195
  297loPI    C2 4738   5.696   5.017  10.286  0.1000 -0.0748  0.1199
  297loPI    C3 4739   5.493   4.875   9.971  0.0388  0.0142  0.1188
  297loPI   PO4 4740   6.090   5.012   9.908 -0.0641  0.1570  0.1763
  297loPI   GL1 4741   6.120   5.283   9.548 -0.1453  0.1201 -0.1226
  297loPI   GL2 4742   6.338   5.607   9.508  0.2124  0.2663 -0.1218
  297loPI   C1A 4743   6.134   5.289   9.170  0.3730 -0.0216 -0.0195
  297loPI   C2A 4744   6.101   5.459   8.731  0.0084  0.0439 -0.1230
  297loPI   C3A 4745   5.945   5.210   8.339 -0.0555  0.1450 -0.6797
  297loPI   C4A 4746   5.900   5.065   7.958  0.2699  0.0688 -0.0669
  297loPI   C5A 4747   6.234   4.872   7.649 -0.0992 -0.1150  0.1389
  297loPI   C6A 4748   6.607   4.956   7.375 -0.1851 -0.1243  0.2220
  297loPI   C1B 4749   6.084   5.804   9.095 -0.3169 -0.0748 -0.1026
  297loPI   C2B 4750   6.152   5.974   8.690  0.3781  0.4324 -0.0378
  297loPI   C3B 4751   5.917   6.161   8.309  0.1414 -0.2758  0.0090
  297loPI   C4B 4752   6.008   6.329   7.856  0.1739  0.2781 -0.2379
  298loPI    C1 4753   9.848   3.589  10.001  0.0044 -0.2442  0.0227
  298loPI    C2 4754   9.824   3.421  10.364 -0.0968 -0.0805  0.0931
  298loPI    C3 4755   9.553   3.331  10.084 -0.0584 -0.1549  0.0796
  298loPI   PO4 4756  10.025   3.547   9.917 -0.0388 -0.3389  0.1180
  298loPI   GL1 4757  10.122   3.658   9.565  0.1870  0.0102 -0.1141
  298loPI   GL2 4758   9.859   3.701   9.297  0.1706 -0.0429  0.3459
  298loPI   C1A 4759  10.133   3.333   9.211 -0.2584 -0.0900  0.1100
  298loPI   C2A 4760  10.018   3.269   8.858  0.0699  0.4432 -0.0310
  298loPI   C3A 4761   9.819   3.308   8.456 -0.1749  0.0049  0.2746
  298loPI   C4A 4762   9.580   3.086   8.222  0.1386  0.2217  0.0550
  298loPI   C5A 4763   9.322   2.815   7.957  0.0786 -0.0528 -0.0328
  298loPI   C6A 4764   9.166   2.488   7.841 -0.0321  0.4336  0.0223
  298loPI   C1B 4765   9.920   3.735   8.917  0.0497  0.0445 -0.1654
  298loPI   C2B 4766   9.674   3.807   8.585 -0.0952 -0.0562  0.1558
  298loPI   C3B 4767   9.679   3.694   8.099  0.1937 -0.2097  0.3588
  298loPI   C4B 4768   9.927   3.493   7.837 -0.1010 -0.3666  0.1306
  299loPI    C1 4769   8.493  10.126  10.539 -0.2535  0.0893 -0.1853
  299loPI    C2 4770   8.109  10.087  10.643 -0.1743 -0.3645 -0.0385
  299loPI    C3 4771   8.382  10.187  10.918 -0.2372  0.3771 -0.2251
  299loPI   PO4 4772   8.503  10.165  10.303 -0.0086  0.0399  0.0009
  299loPI   GL1 4773   8.359  10.193   9.876  0.1329 -0.0000  0.1213
  299loPI   GL2 4774   8.270   9.786   9.654 -0.2456 -0.1449  0.2343
  299loPI   C1A 4775   8.305  10.383   9.419  0.0338  0.1684 -0.1081
  299loPI   C2A 4776   8.276  10.499   9.015  0.3261 -0.1628  0.1761
  299loPI   C3A 4777   8.239  10.452   8.527  0.0110 -0.1741  0.2008
  299loPI   C4A 4778   8.620  10.506   8.226  0.1918 -0.0997  0.1603
  299loPI   C5A 4779   8.875  10.554   7.909 -0.0414 -0.3783 -0.1330
  299loPI   C6A 4780   9.184  10.635   7.614  0.2907  0.0233  0.0188
  299loPI   C1B 4781   8.250   9.894   9.243  0.1842 -0.1171  0.1251
  299loPI   C2B 4782   8.268   9.914   8.788 -0.2873 -0.0258 -0.0315
  299loPI   C3B 4783   8.064   9.984   8.418 -0.5240  0.0598 -0.0708
  299loPI   C4B 4784   8.069  10.296   8.035  0.0255  0.0553  0.0002
  300loPI    C1 4785   9.772   6.816  10.104  0.0927 -0.1509  0.2632
  300loPI    C2 4786   9.858   7.175   9.950 -0.0496 -0.3073 -0.1971
  300loPI    C3 4787   9.729   7.145  10.327  0.0239  0.1161 -0.1337
  300loPI   PO4 4788   9.649   6.715   9.910  0.1547  0.1871  0.0435
  300loPI   GL1 4789   9.647   6.637   9.502 -0.0156 -0.1384  0.2098
  300loPI   GL2 4790   9.397   6.647   9.274 -0.1308  0.0684  0.0241
  300loPI   C1A 4791   9.767   6.506   9.015 -0.1028  0.3330 -0.5021
  300loPI   C2A 4792   9.697   6.477   8.585  0.0660 -0.1624  0.0129
  300loPI   C3A 4793   9.561   6.504   8.172  0.2603  0.1604 -0.0089
  300loPI   C4A 4794   9.663   6.816   7.983  0.0657 -0.1574 -0.1014
  300loPI   C5A 4795   9.600   7.276   7.831 -0.1210  0.2795 -0.2726
  300loPI   C6A 4796   9.344   7.658   7.714 -0.0827  0.0115  0.3706
  300loPI   C1B 4797   9.542   6.905   8.858 -0.0496 -0.0111 -0.2201
  300loPI   C2B 4798   9.454   6.966   8.417 -0.0856  0.1580  0.4061
  300loPI   C3B 4799   9.219   7.036   8.076 -0.2145  0.1456  0.1392
  300loPI   C4B 4800   8.990   7.325   7.866 -0.0990 -0.1073  0.1224
  301loPI    C1 4801  15.199  11.359  10.794 -0.0333  0.1420  0.0101
  301loPI    C2 4802  14.849  11.503  10.923  0.0731  0.1944  0.2466
  301loPI    C3 4803  14.968  11.139  11.036  0.0985  0.1789  0.1709
  301loPI   PO4 4804  15.157  11.448  10.540  0.1468  0.0901  0.1856
  301loPI   GL1 4805  15.137  11.409  10.095 -0.0265 -0.0376 -0.0344
  301loPI   GL2 4806  14.951  11.154  10.025 -0.0469  0.0663  0.0593
  301loPI   C1A 4807  15.231  11.426   9.698 -0.0889  0.0334 -0.1267
  301loPI   C2A 4808  15.240  11.419   9.271  0.1685 -0.0938 -0.2018
  301loPI   C3A 4809  15.025  11.434   8.783  0.0350  0.0968  0.0617
  301loPI   C4A 4810  15.045  11.298   8.364 -0.2583 -0.2934 -0.0547
  301loPI   C5A 4811  15.255  11.425   7.960  0.0271 -0.1803 -0.0161
  301loPI   C6A 4812  15.086  11.648   7.609 -0.0090  0.0269  0.2000
  301loPI   C1B 4813  15.000  10.962   9.558 -0.0778  0.1575 -0.1758
  301loPI   C2B 4814  15.022  11.027   9.074  0.3337  0.2817  0.1426
  301loPI   C3B 4815  15.023  10.843   8.651 -0.3234  0.1105  0.1269
  301loPI   C4B 4816  15.041  10.610   8.335  0.0251 -0.1508  0.0369
  302loPI    C1 4817  10.511  16.822  10.576  0.3921 -0.0413  0.0296
  302loPI    C2 4818  10.672  17.048  10.863  0.2162 -0.0647  0.1484
  302loPI    C3 4819  10.695  16.650  10.886  0.0748 -0.0701  0.2061
  302loPI   PO4 4820  10.602  16.914  10.347 -0.0892  0.0733 -0.0115
  302loPI   GL1 4821  10.697  17.203  10.074  0.2977  0.2673  0.0723
  302loPI   GL2 4822  10.937  17.309   9.867 -0.1016  0.1600 -0.0371
  302loPI   C1A 4823  10.446  17.020   9.666 -0.0192 -0.2318 -0.2094
  302loPI   C2A 4824  10.430  16.982   9.225  0.2273  0.1795 -0.1225
  302loPI   C3A 4825  10.609  17.002   8.865  0.1292 -0.0917  0.0628
  302loPI   C4A 4826  10.561  17.057   8.435 -0.2877 -0.1271  0.0983
  302loPI   C5A 4827  10.578  17.350   8.072 -0.4190 -0.1485 -0.1004
  302loPI   C6A 4828  10.790  17.346   7.721  0.0268  0.2172 -0.0801
  302loPI   C1B 4829  11.022  17.287   9.461 -0.2470 -0.0521 -0.1745
  302loPI   C2B 4830  11.010  17.345   8.969 -0.1465 -0.1725  0.0911
  302loPI   C3B 4831  11.110  17.342   8.572 -0.1807  0.1729  0.0069
  302loPI   C4B 4832  11.083  17.041   8.169 -0.1892  0.0837  0.0618
  303loPI    C1 4833  11.567  16.388  10.819 -0.0539 -0.1107  0.0174
  303loPI    C2 4834  11.781  16.056  10.883  0.0603 -0.0036  0.1981
  303loPI    C3 4835  11.966  16.409  10.839 -0.0761  0.0835  0.3124
  303loPI   PO4 4836  11.332  16.298  10.674  0.0676 -0.0087  0.1902
  303loPI   GL1 4837  11.153  16.180  10.266 -0.2105  0.0282 -0.1246
  303loPI   GL2 4838  11.271  16.371  10.107  0.0638 -0.1100  0.0074
  303loPI   C1A 4839  11.104  15.903   9.908 -0.3137 -0.1725 -0.2232
  303loPI   C2A 4840  11.260  15.989   9.532  0.1476  0.0866 -0.2441
  303loPI   C3A 4841  11.263  15.947   9.101 -0.1625 -0.0415  0.0627
  303loPI   C4A 4842  11.323  15.982   8.656 -0.2707  0.2694  0.1748
  303loPI   C5A 4843  11.491  15.978   8.276 -0.0407  0.1394 -0.3713
  303loPI   C6A 4844  11.865  15.913   8.021  0.1512  0.0596  0.6307
  303loPI   C1B 4845  11.309  16.444   9.756  0.2496 -0.1607  0.2139
  303loPI   C2B 4846  11.325  16.386   9.281  0.0606 -0.4193  0.0809
  303loPI   C3B 4847  11.373  16.372   8.885  0.1243  0.2347 -0.1333
  303loPI   C4B 4848  11.355  16.463   8.455 -0.0109  0.3185 -0.2594
  304loPI    C1 4849  11.527   4.289  10.315  0.0275 -0.2401  0.0280
  304loPI    C2 4850  11.364   4.567  10.553  0.1144 -0.0089 -0.1782
  304loPI    C3 4851  11.593   4.279  10.710 -0.0019  0.0162  0.0416
  304loPI   PO4 4852  11.333   4.342  10.136  0.0722 -0.2168 -0.3143
  304loPI   GL1 4853  11.150   4.183   9.754  0.3510  0.0195 -0.0635
  304loPI   GL2 4854  11.002   3.844   9.676  0.2473 -0.1274  0.2582
  304loPI   C1A 4855  11.058   4.310   9.400  0.3243  0.1516 -0.0877
  304loPI   C2A 4856  11.257   4.380   9.045 -0.0460 -0.1770  0.0235
  304loPI   C3A 4857  11.359   4.222   8.669 -0.1129 -0.1803 -0.2833
  304loPI   C4A 4858  11.573   4.231   8.252  0.3130 -0.1064 -0.1864
  304loPI   C5A 4859  11.808   3.934   7.983  0.1657 -0.1878 -0.0003
  304loPI   C6A 4860  11.787   3.586   7.873 -0.0957  0.0278 -0.1561
  304loPI   C1B 4861  10.931   3.851   9.295 -0.0084  0.2286  0.2270
  304loPI   C2B 4862  10.956   3.954   8.905 -0.1132 -0.2167  0.1427
  304loPI   C3B 4863  11.152   3.807   8.511 -0.0751 -0.4490 -0.0143
  304loPI   C4B 4864  11.285   3.699   8.065  0.0179 -0.1818  0.0438
  305loPI    C1 4865   2.194   4.819  10.278 -0.1653 -0.2041  0.4358
  305loPI    C2 4866   1.967   4.492  10.308 -0.0889 -0.3417 -0.3005
  305loPI    C3 4867   2.331   4.468  10.144  0.0631  0.0544 -0.0350
  305loPI   PO4 4868   1.964   5.009  10.193  0.0937 -0.1576 -0.1386
  305loPI   GL1 4869   1.873   5.169   9.789  0.0314 -0.0324 -0.3852
  305loPI   GL2 4870   1.617   5.046   9.764 -0.0117  0.0807 -0.1122
  305loPI   C1A 4871   1.884   5.010   9.336 -0.3243  0.1255 -0.0192
  305loPI   C2A 4872   1.870   4.946   8.884 -0.2590  0.3587  0.0365
  305loPI   C3A 4873   1.974   5.084   8.523  0.2659  0.2062  0.2509
  305loPI   C4A 4874   1.991   5.048   8.180  0.0445 -0.2549  0.0639
  305loPI   C5A 4875   1.694   4.911   7.938 -0.1969  0.0000 -0.2252
  305loPI   C6A 4876   1.724   4.672   7.520 -0.1257  0.3983 -0.0063
  305loPI   C1B 4877   1.591   4.623   9.607  0.1458 -0.1349 -0.1189
  305loPI   C2B 4878   1.556   4.405   9.241  0.0446  0.1617  0.2036
  305loPI   C3B 4879   1.569   4.496   8.852 -0.3481 -0.1145  0.1013
  305loPI   C4B 4880   1.515   4.487   8.359  0.2383  0.1878  0.0494
  306loPI    C1 4881   8.210   1.198  10.854 -0.2736 -0.1684  0.0068
  306loPI    C2 4882   7.984   1.317  11.162 -0.0733 -0.2887  0.2040
  306loPI    C3 4883   8.352   1.466  11.115 -0.1529 -0.1694 -0.0573
  306loPI   PO4 4884   7.992   1.089  10.589 -0.0261  0.0779 -0.0283
  306loPI   GL1 4885   7.839   0.800  10.234  0.0754  0.0345  0.3494
  306loPI   GL2 4886   7.965   1.006  10.021  0.0767  0.3101  0.0443
  306loPI   C1A 4887   8.172   0.512  10.020 -0.1123 -0.2512  0.1139
  306loPI   C2A 4888   8.514   0.559   9.762 -0.1841 -0.1019  0.0726
  306loPI   C3A 4889   8.784   0.549   9.420 -0.2599 -0.1967  0.2282
  306loPI   C4A 4890   8.838   0.236   9.030  0.0906 -0.2528  0.1672
  306loPI   C5A 4891   8.565   0.064   8.764 -0.0873 -0.1646  0.2185
  306loPI   C6A 4892   8.597  -0.301   8.479 -0.1065  0.1632 -0.2488
  306loPI   C1B 4893   8.259   1.040   9.710 -0.0406 -0.0332  0.1525
  306loPI   C2B 4894   8.131   0.780   9.288  0.5302  0.1782 -0.2033
  306loPI   C3B 4895   7.917   0.866   8.948  0.1527  0.1288  0.0147
  306loPI   C4B 4896   7.817   0.824   8.557 -0.3587  0.1850 -0.0763
  307loPI    C1 4897  10.120   9.716  10.494 -0.0176 -0.1033  0.0401
  307loPI    C2 4898  10.457   9.775  10.701 -0.0542 -0.1675  0.1185
  307loPI    C3 4899  10.286   9.413  10.697 -0.1216 -0.1352  0.0781
  307loPI   PO4 4900  10.205   9.848  10.194  0.1936 -0.0801 -0.4058
  307loPI   GL1 4901  10.204   9.761   9.760  0.1178  0.0790  0.0961
  307loPI   GL2 4902  10.262   9.483   9.697  0.2024  0.1389  0.3178
  307loPI   C1A 4903  10.267  10.067   9.532  0.1386  0.2747  0.3404
  307loPI   C2A 4904  10.557  10.305   9.305 -0.0528 -0.1130  0.2450
  307loPI   C3A 4905  10.719  10.555   8.979 -0.2458  0.1287 -0.1209
  307loPI   C4A 4906  10.662  10.685   8.701  0.1118  0.1179 -0.0312
  307loPI   C5A 4907  10.573  10.531   8.341  0.1717 -0.3711  0.0217
  307loPI   C6A 4908  10.773  10.518   7.896  0.0155  0.0429  0.1144
  307loPI   C1B 4909  10.136   9.663   9.262 -0.0998  0.1534  0.1000
  307loPI   C2B 4910  10.211   9.716   8.848  0.1296  0.3768 -0.1482
  307loPI   C3B 4911  10.270   9.902   8.357  0.0940 -0.0135 -0.0275
  307loPI   C4B 4912  10.551  10.068   8.034  0.0808  0.1718 -0.1537
  308loPI    C1 4913   3.762   8.022  10.296 -0.1028  0.0421 -0.1309
  308loPI    C2 4914   3.526   8.221  10.551  0.0106  0.0208 -0.0082
  308loPI    C3 4915   3.440   7.843  10.451 -0.0231  0.0226  0.0141
  308loPI   PO4 4916   3.819   8.084   9.960  0.0497  0.2097  0.0988
  308loPI   GL1 4917   3.662   8.088   9.594  0.0298 -0.0587 -0.1095
  308loPI   GL2 4918   3.759   8.377   9.479 -0.1291 -0.2066  0.0333
  308loPI   C1A 4919   3.666   7.950   9.259 -0.1588  0.3528  0.1279
  308loPI   C2A 4920   3.769   7.987   8.851  0.1475  0.0574  0.3094
  308loPI   C3A 4921   3.762   8.072   8.421  0.1213  0.2497  0.2168
  308loPI   C4A 4922   3.375   8.157   8.156  0.0568  0.2492 -0.0735
  308loPI   C5A 4923   3.273   8.407   7.704 -0.0216 -0.0823  0.0424
  308loPI   C6A 4924   3.298   8.715   7.220 -0.0720 -0.0471 -0.1844
  308loPI   C1B 4925   3.845   8.460   9.029  0.0472  0.1576 -0.1527
  308loPI   C2B 4926   3.723   8.534   8.628  0.1603 -0.0063  0.1145
  308loPI   C3B 4927   3.709   8.710   8.319 -0.4287  0.0466  0.1754
  308loPI   C4B 4928   3.531   8.898   7.865  0.1317  0.0152  0.1357
  309loPI    C1 4929  12.033  10.774  10.365 -0.0527 -0.0447 -0.0994
  309loPI    C2 4930  12.138  10.682  10.740 -0.3829 -0.1276 -0.0239
  309loPI    C3 4931  12.235  11.038  10.587  0.0447 -0.2187  0.0220
  309loPI   PO4 4932  12.083  10.576  10.265  0.0136 -0.1204  0.1675
  309loPI   GL1 4933  11.763  10.342   9.966 -0.0873 -0.0887  0.1253
  309loPI   GL2 4934  12.004  10.289   9.799  0.2652  0.0576  0.1963
  309loPI   C1A 4935  11.689  10.618   9.565 -0.1084  0.2687  0.0532
  309loPI   C2A 4936  11.768  10.582   9.025 -0.0496 -0.0848  0.3249
  309loPI   C3A 4937  11.646  10.776   8.630  0.2047 -0.2481  0.0485
  309loPI   C4A 4938  11.642  10.905   8.208  0.0855 -0.2226  0.0966
  309loPI   C5A 4939  11.819  11.064   7.873 -0.0259  0.3519 -0.0830
  309loPI   C6A 4940  11.786  10.935   7.437 -0.1979  0.1113 -0.0657
  309loPI   C1B 4941  12.044  10.274   9.410  0.1243  0.0524 -0.1716
  309loPI   C2B 4942  12.009  10.164   8.953  0.0924 -0.0534 -0.0294
  309loPI   C3B 4943  11.955  10.383   8.554 -0.2427  0.1775  0.3879
  309loPI   C4B 4944  11.896  10.498   8.117  0.1183 -0.2918  0.2078
  310loPI    C1 4945  12.681   9.164  10.456 -0.1276  0.0826 -0.0904
  310loPI    C2 4946  12.415   9.286  10.729 -0.0244 -0.1407  0.1138
  310loPI    C3 4947  12.798   9.400  10.757 -0.0409 -0.0501 -0.0192
  310loPI   PO4 4948  12.618   8.939  10.425 -0.3642 -0.0307 -0.1186
  310loPI   GL1 4949  12.388   8.801  10.044  0.1222  0.1411  0.0099
  310loPI   GL2 4950  12.062   8.757  10.051 -0.3068  0.0649 -0.0316
  310loPI   C1A 4951  12.279   8.886   9.622 -0.2789 -0.1690  0.0870
  310loPI   C2A 4952  12.220   8.847   9.285 -0.2807 -0.0956  0.1496
  310loPI   C3A 4953  12.297   8.778   8.965 -0.1684 -0.0140 -0.3872
  310loPI   C4A 4954  12.390   8.499   8.698  0.1456 -0.1848 -0.2700
  310loPI   C5A 4955  12.586   8.376   8.326 -0.1121 -0.1660  0.0163
  310loPI   C6A 4956  12.638   8.052   8.084 -0.1299  0.2571 -0.1005
  310loPI   C1B 4957  11.764   8.781   9.690 -0.0590  0.0890 -0.1230
  310loPI   C2B 4958  11.639   8.799   9.227  0.1295 -0.0413  0.3866
  310loPI   C3B 4959  11.795   8.694   8.771  0.2748 -0.0810 -0.1364
  310loPI   C4B 4960  11.643   8.666   8.274 -0.0018 -0.3373 -0.0671
  311loPI    C1 4961   1.467   9.013  10.346  0.2690 -0.0564 -0.1587
  311loPI    C2 4962   1.656   8.783  10.078  0.0831 -0.0198 -0.3234
  311loPI    C3 4963   1.774   8.784  10.460  0.4942  0.0942 -0.4461
  311loPI   PO4 4964   1.211   9.034  10.209 -0.0757  0.0803 -0.3649
  311loPI   GL1 4965   1.067   8.802   9.838  0.0121  0.4565 -0.1569
  311loPI   GL2 4966   1.294   8.583   9.816 -0.2636 -0.2098  0.3716
  311loPI   C1A 4967   1.164   8.846   9.418  0.0013 -0.0915 -0.2062
  311loPI   C2A 4968   1.144   8.725   9.055 -0.0660  0.0378  0.1223
  311loPI   C3A 4969   1.061   8.595   8.583  0.1572  0.1152  0.0824
  311loPI   C4A 4970   1.052   8.622   8.214  0.1331 -0.2390  0.0272
  311loPI   C5A 4971   1.235   8.453   7.850  0.0987 -0.1909 -0.0387
  311loPI   C6A 4972   1.606   8.311   7.753 -0.2927  0.3457  0.0029
  311loPI   C1B 4973   1.476   8.383   9.494 -0.2295  0.3866  0.0485
  311loPI   C2B 4974   1.453   8.297   9.082 -0.1845 -0.3983 -0.2418
  311loPI   C3B 4975   1.521   8.263   8.589 -0.0177  0.2185 -0.1212
  311loPI   C4B 4976   1.400   8.156   8.236  0.0852 -0.0678 -0.0468
  312loPI    C1 4977  14.915  16.171  10.539  0.2445  0.0831 -0.1770
  312loPI    C2 4978  15.186  16.228  10.250  0.2367  0.1618 -0.1688
  312loPI    C3 4979  14.945  16.528  10.362  0.0146  0.0385 -0.3093
  312loPI   PO4 4980  14.802  15.975  10.457 -0.0319  0.4965  0.2973
  312loPI   GL1 4981  14.914  15.789  10.064 -0.1608 -0.0702 -0.2863
  312loPI   GL2 4982  14.815  15.496   9.943 -0.2795 -0.2067  0.0045
  312loPI   C1A 4983  14.943  16.018   9.705 -0.2789 -0.0589  0.3354
  312loPI   C2A 4984  14.912  15.947   9.262 -0.1635  0.0291 -0.0349
  312loPI   C3A 4985  14.983  15.897   8.878 -0.2240  0.2522 -0.2965
  312loPI   C4A 4986  14.974  15.846   8.439 -0.1278 -0.0055  0.1557
  312loPI   C5A 4987  15.198  15.991   8.082 -0.0491  0.1486  0.1855
  312loPI   C6A 4988  15.108  15.887   7.640 -0.1838  0.1188  0.2426
  312loPI   C1B 4989  14.861  15.353   9.512  0.1705  0.0332  0.0101
  312loPI   C2B 4990  14.895  15.354   9.079 -0.2708  0.2465 -0.0920
  312loPI   C3B 4991  15.047  15.382   8.692  0.0891 -0.0126  0.0267
  312loPI   C4B 4992  15.112  15.310   8.173 -0.4467  0.3078  0.1701
  313loPI    C1 4993   9.707   7.592  10.563 -0.1945  0.1043  0.0943
  313loPI    C2 4994   9.660   7.580  10.960 -0.1339 -0.0949  0.0968
  313loPI    C3 4995   9.835   7.275  10.770 -0.4338 -0.1370 -0.1189
  313loPI   PO4 4996   9.576   7.658  10.329  0.2047 -0.4433  0.1839
  313loPI   GL1 4997   9.564   7.637   9.843 -0.3078  0.1681  0.0277
  313loPI   GL2 4998   9.309   7.559   9.609  0.0812  0.0483 -0.0901
  313loPI   C1A 4999   9.699   7.672   9.380  0.4340  0.0035  0.1677
  313loPI   C2A 5000   9.959   7.820   9.069  0.3121  0.2005  0.0329
  313loPI   C3A 5001   9.985   7.859   8.736  0.0450 -0.3994  0.6003
  313loPI   C4A 5002  10.188   7.616   8.432  0.2632 -0.0324 -0.0122
  313loPI   C5A 5003  10.573   7.521   8.328  0.2013 -0.1135  0.3116
  313loPI   C6A 5004  10.662   7.212   8.595 -0.0472  0.0579 -0.2358
  313loPI   C1B 5005   9.284   7.872   9.241  0.0520 -0.1824 -0.0012
  313loPI   C2B 5006   9.457   7.913   8.826  0.2018 -0.2352 -0.2803
  313loPI   C3B 5007   9.577   7.955   8.403 -0.1623  0.0055 -0.1337
  313loPI   C4B 5008   9.604   8.116   7.910  0.2784  0.5998  0.1581
  314loPI    C1 5009   6.691  11.380  10.184  0.1597 -0.1454  0.0758
  314loPI    C2 5010   6.574  11.336  10.565 -0.0869 -0.1227  0.0044
  314loPI    C3 5011   6.905  11.153  10.435  0.0151 -0.1066  0.2367
  314loPI   PO4 5012   6.613  11.657  10.143  0.1090  0.2344  0.3127
  314loPI   GL1 5013   6.615  11.849   9.790  0.1796 -0.2465  0.0999
  314loPI   GL2 5014   6.783  11.640   9.606 -0.1027  0.0478  0.0585
  314loPI   C1A 5015   6.573  12.099   9.386  0.0394  0.0187 -0.1286
  314loPI   C2A 5016   6.546  12.051   8.942 -0.0826  0.1194 -0.0570
  314loPI   C3A 5017   6.491  11.785   8.478  0.1110 -0.1848  0.0079
  314loPI   C4A 5018   6.185  11.834   8.136  0.1044 -0.4126 -0.2011
  314loPI   C5A 5019   6.167  12.212   8.024  0.1623 -0.2364 -0.1019
  314loPI   C6A 5020   6.560  12.485   7.881 -0.1474  0.0578 -0.3251
  314loPI   C1B 5021   6.857  11.621   9.180  0.0684 -0.1782 -0.0416
  314loPI   C2B 5022   6.864  11.708   8.779  0.0376 -0.0888  0.1699
  314loPI   C3B 5023   7.092  11.877   8.472  0.2147 -0.1481 -0.1524
  314loPI   C4B 5024   7.026  12.094   8.099 -0.1600  0.1606 -0.0267
  315loPI    C1 5025  13.281   5.028  10.741 -0.0589  0.0697 -0.1226
  315loPI    C2 5026  12.995   5.207  10.956  0.0159 -0.1283  0.1472
  315loPI    C3 5027  13.364   5.360  10.948 -0.0604  0.0493 -0.0892
  315loPI   PO4 5028  13.162   5.099  10.451  0.0134 -0.0508 -0.2571
  315loPI   GL1 5029  13.194   5.319  10.022  0.1206 -0.0394 -0.1359
  315loPI   GL2 5030  13.410   5.051  10.040 -0.1596 -0.0734 -0.2553
  315loPI   C1A 5031  13.548   5.438   9.773 -0.0492  0.0322 -0.0359
  315loPI   C2A 5032  13.949   5.370   9.563 -0.1146  0.1475 -0.0150
  315loPI   C3A 5033  14.214   5.294   9.221  0.1632 -0.1391  0.0054
  315loPI   C4A 5034  14.078   5.419   8.992  0.1128 -0.2362  0.0146
  315loPI   C5A 5035  14.008   5.433   8.544  0.1865  0.2120 -0.1601
  315loPI   C6A 5036  14.118   5.251   8.146  0.1122  0.0692 -0.1262
  315loPI   C1B 5037  13.880   5.108  10.138  0.2729  0.0463  0.0965
  315loPI   C2B 5038  14.155   5.438  10.035  0.3731 -0.3435  0.0443
  315loPI   C3B 5039  14.517   5.456   9.696  0.1663 -0.1151 -0.1851
  315loPI   C4B 5040  14.553   5.642   9.361  0.0994  0.0698  0.0205
  316loPI    C1 5041   0.335   6.930  10.994 -0.1858 -0.2062  0.0555
  316loPI    C2 5042   0.356   6.581  11.189  0.2780 -0.2305 -0.0259
  316loPI    C3 5043   0.451   6.921  11.377  0.1405 -0.1834 -0.0401
  316loPI   PO4 5044   0.125   6.882  10.765  0.0120  0.0590  0.0657
  316loPI   GL1 5045  -0.110   7.212  10.408  0.0430 -0.0240  0.3425
  316loPI   GL2 5046   0.144   7.454  10.307 -0.3849  0.2481  0.2403
  316loPI   C1A 5047  -0.116   7.200   9.963 -0.1141 -0.2232 -0.0527
  316loPI   C2A 5048  -0.170   7.147   9.430  0.4560  0.0465  0.0899
  316loPI   C3A 5049  -0.197   7.034   8.935  0.0150 -0.2166  0.3226
  316loPI   C4A 5050  -0.193   7.024   8.508 -0.1998  0.1061  0.1569
  316loPI   C5A 5051  -0.116   7.302   8.224 -0.2504 -0.2365 -0.0752
  316loPI   C6A 5052   0.197   7.678   8.127  0.1551  0.1867 -0.3227
  316loPI   C1B 5053   0.283   7.495   9.956 -0.0136  0.0599  0.0197
  316loPI   C2B 5054   0.165   7.504   9.487 -0.3653 -0.1928  0.0943
  316loPI   C3B 5055   0.188   7.467   9.063  0.1029  0.0980 -0.0621
  316loPI   C4B 5056   0.039   7.401   8.666  0.1383 -0.2754  0.2168
  317loPI    C1 5057   9.528  14.001  10.734 -0.2151 -0.1326  0.0942
  317loPI    C2 5058   9.685  13.751  10.465  0.1525  0.1824  0.0066
  317loPI    C3 5059   9.525  13.607  10.802  0.3551 -0.1694 -0.0421
  317loPI   PO4 5060   9.340  14.111  10.587 -0.0839  0.0791  0.0625
  317loPI   GL1 5061   9.358  14.082  10.228 -0.1223 -0.2226 -0.0092
  317loPI   GL2 5062   9.158  13.916   9.934 -0.1175 -0.4052 -0.3824
  317loPI   C1A 5063   9.714  14.043   9.877  0.1323 -0.2434 -0.1232
  317loPI   C2A 5064   9.786  13.901   9.516 -0.2016 -0.1796  0.0806
  317loPI   C3A 5065   9.794  13.913   9.053 -0.4190  0.1966  0.2273
  317loPI   C4A 5066   9.641  14.075   8.748 -0.1173  0.0924  0.1359
  317loPI   C5A 5067   9.510  14.175   8.363 -0.2793  0.1436  0.0742
  317loPI   C6A 5068   9.192  13.959   8.162  0.1538  0.1353 -0.0236
  317loPI   C1B 5069   9.316  14.215   9.667  0.1275  0.1828 -0.2592
  317loPI   C2B 5070   9.431  14.136   9.296 -0.1043 -0.1914  0.0237
  317loPI   C3B 5071   9.247  14.256   8.947  0.1385  0.0576 -0.1502
  317loPI   C4B 5072   8.915  14.274   8.628 -0.2410  0.2563 -0.1738
  318loPI    C1 5073   2.353  14.966  10.649 -0.2522 -0.0539 -0.0158
  318loPI    C2 5074   2.198  14.598  10.618  0.0554 -0.1937  0.0719
  318loPI    C3 5075   2.510  14.665  10.860 -0.0120  0.1310  0.0742
  318loPI   PO4 5076   2.402  15.129  10.390  0.1223 -0.1127  0.2695
  318loPI   GL1 5077   2.582  15.327  10.003 -0.1798 -0.1532  0.0572
  318loPI   GL2 5078   2.796  15.131   9.758  0.0079 -0.2511 -0.3929
  318loPI   C1A 5079   2.409  15.616   9.723  0.0640 -0.5432 -0.1144
  318loPI   C2A 5080   2.460  15.802   9.378 -0.1315 -0.1498 -0.0996
  318loPI   C3A 5081   2.615  15.843   8.941 -0.0491 -0.0204  0.0780
  318loPI   C4A 5082   2.608  16.079   8.502  0.1377 -0.1676 -0.2067
  318loPI   C5A 5083   2.310  16.145   8.074 -0.1298  0.2909  0.0703
  318loPI   C6A 5084   1.934  15.895   7.980 -0.2796  0.0972 -0.2216
  318loPI   C1B 5085   2.750  14.751   9.399 -0.0191 -0.1981 -0.0724
  318loPI   C2B 5086   2.757  14.688   8.939 -0.1363  0.1560  0.0384
  318loPI   C3B 5087   2.535  14.546   8.676 -0.3802 -0.0932  0.0210
  318loPI   C4B 5088   2.412  14.511   8.176  0.0705  0.2979 -0.3990
  319loPI    C1 5089  17.988  17.197  10.396  0.2499  0.0277  0.0646
  319loPI    C2 5090  17.816  17.064  10.731  0.2906  0.0988  0.1138
  319loPI    C3 5091  17.961  17.437  10.714  0.2368  0.1149 -0.0017
  319loPI   PO4 5092  17.751  17.132  10.227  0.0448 -0.1142  0.4652
  319loPI   GL1 5093  17.535  17.169   9.881 -0.1990  0.0415  0.1739
  319loPI   GL2 5094  17.402  16.853  10.072  0.1391  0.2374 -0.3488
  319loPI   C1A 5095  17.374  16.955   9.576  0.1011 -0.2039 -0.1894
  319loPI   C2A 5096  17.433  16.903   9.201  0.3588 -0.1004  0.2681
  319loPI   C3A 5097  17.445  16.895   8.710  0.1929  0.1986 -0.0598
  319loPI   C4A 5098  17.336  16.906   8.311  0.1407  0.3582 -0.2443
  319loPI   C5A 5099  17.292  17.001   7.935 -0.0022 -0.1997  0.1168
  319loPI   C6A 5100  17.516  16.904   7.670 -0.1386 -0.1549 -0.0786
  319loPI   C1B 5101  17.430  16.445   9.671 -0.1553 -0.0715 -0.1914
  319loPI   C2B 5102  17.345  16.418   9.232 -0.1413  0.1172  0.0796
  319loPI   C3B 5103  17.373  16.406   8.798  0.1777 -0.1359 -0.1801
  319loPI   C4B 5104  17.241  16.355   8.379  0.3061  0.4252  0.4982
  320loPI    C1 5105  16.994  16.891  10.454 -0.0590  0.0064 -0.0512
  320loPI    C2 5106  17.356  16.928  10.619 -0.0096  0.0608 -0.1700
  320loPI    C3 5107  17.032  16.904  10.852  0.0538  0.1871 -0.0667
  320loPI   PO4 5108  17.015  16.753  10.318 -0.2436  0.0198  0.0685
  320loPI   GL1 5109  16.959  16.389  10.069  0.0146  0.1668  0.1552
  320loPI   GL2 5110  16.940  16.714   9.822 -0.0839  0.0927 -0.2273
  320loPI   C1A 5111  16.909  16.238   9.639 -0.2106  0.1625 -0.0470
  320loPI   C2A 5112  16.893  16.174   9.176 -0.2863 -0.0872  0.1347
  320loPI   C3A 5113  16.899  16.154   8.748  0.2529  0.1569  0.3105
  320loPI   C4A 5114  16.783  16.171   8.270 -0.4774  0.0525  0.2478
  320loPI   C5A 5115  16.856  16.157   7.878 -0.1779  0.2013 -0.3242
  320loPI   C6A 5116  16.727  15.920   7.624 -0.1702 -0.0640 -0.1613
  320loPI   C1B 5117  16.908  16.648   9.373  0.1001 -0.4315 -0.1623
  320loPI   C2B 5118  16.925  16.617   8.993 -0.1187  0.1875  0.1401
  320loPI   C3B 5119  16.925  16.676   8.531  0.2086  0.0631 -0.0462
  320loPI   C4B 5120  16.864  16.762   8.157 -0.3038  0.0769  0.0173
  321loPI    C1 5121  15.047   7.251  10.627 -0.1065  0.1355 -0.3259
  321loPI    C2 5122  15.386   7.296  10.420  0.0011 -0.0349 -0.1890
  321loPI    C3 5123  15.373   7.397  10.807 -0.0697 -0.1402 -0.1633
  321loPI   PO4 5124  14.884   7.430  10.420  0.1091  0.2915  0.2973
  321loPI   GL1 5125  14.709   7.421  10.022  0.0859 -0.1759  0.0872
  321loPI   GL2 5126  14.729   7.784  10.088  0.0718 -0.1644 -0.0813
  321loPI   C1A 5127  14.653   7.358   9.580 -0.0831  0.0328  0.3105
  321loPI   C2A 5128  14.733   7.295   9.159  0.2384 -0.0855 -0.3120
  321loPI   C3A 5129  14.713   7.229   8.696  0.1820 -0.1047 -0.2806
  321loPI   C4A 5130  14.784   7.037   8.378  0.1935  0.3287  0.3619
  321loPI   C5A 5131  15.229   6.968   8.192  0.0602 -0.2425  0.0178
  321loPI   C6A 5132  15.251   6.589   8.155  0.2445 -0.0523  0.2340
  321loPI   C1B 5133  14.816   7.787   9.712  0.2506  0.2973  0.3837
  321loPI   C2B 5134  14.749   7.805   9.259 -0.1706 -0.0349  0.0819
  321loPI   C3B 5135  14.773   7.747   8.775 -0.2415  0.2709  0.1502
  321loPI   C4B 5136  14.694   7.585   8.342 -0.0933  0.0295 -0.2615
  322loPI    C1 5137   7.675   8.848  10.632  0.0043  0.0001 -0.0490
  322loPI    C2 5138   7.721   9.200  10.816 -0.5771  0.0852 -0.0477
  322loPI    C3 5139   7.582   8.885  11.019 -0.0367 -0.1606 -0.0428
  322loPI   PO4 5140   7.834   8.873  10.417 -0.0442  0.0823 -0.1891
  322loPI   GL1 5141   7.804   8.913  10.015 -0.0442 -0.1387 -0.0305
  322loPI   GL2 5142   8.185   8.883   9.937  0.0173 -0.0085 -0.0551
  322loPI   C1A 5143   7.801   9.124   9.668  0.1136 -0.0639 -0.0584
  322loPI   C2A 5144   7.750   9.144   9.261 -0.0247  0.1238  0.0535
  322loPI   C3A 5145   7.810   9.224   8.817  0.1531 -0.1117  0.0162
  322loPI   C4A 5146   7.782   9.252   8.401 -0.0884  0.0514 -0.1769
  322loPI   C5A 5147   7.953   9.452   8.066 -0.3100 -0.0808 -0.0794
  322loPI   C6A 5148   8.148   9.820   7.932 -0.4002 -0.2550 -0.0514
  322loPI   C1B 5149   8.267   8.802   9.611  0.1236 -0.0858 -0.0726
  322loPI   C2B 5150   8.172   8.909   9.168 -0.0769 -0.0408  0.0111
  322loPI   C3B 5151   8.233   8.895   8.728 -0.0241 -0.0880 -0.0623
  322loPI   C4B 5152   8.288   8.932   8.302 -0.1539 -0.3112 -0.1244
  323loPI    C1 5153  12.474  17.834  10.488 -0.1083 -0.0463  0.0228
  323loPI    C2 5154  12.194  18.012  10.263 -0.2114  0.1433  0.2957
  323loPI    C3 5155  12.138  17.970  10.657  0.0793  0.0457  0.3293
  323loPI   PO4 5156  12.503  17.607  10.412  0.4343 -0.0436 -0.1347
  323loPI   GL1 5157  12.394  17.521  10.006 -0.2325 -0.3159 -0.0561
  323loPI   GL2 5158  12.500  17.247   9.855  0.2653 -0.1204 -0.1955
  323loPI   C1A 5159  12.297  17.821   9.709 -0.1475  0.3135  0.1059
  323loPI   C2A 5160  12.397  17.839   9.373  0.0493  0.0080  0.0120
  323loPI   C3A 5161  12.448  17.942   8.941 -0.2208  0.0768  0.3040
  323loPI   C4A 5162  12.309  18.057   8.466 -0.0043  0.1491  0.1248
  323loPI   C5A 5163  12.224  18.154   8.080 -0.0250 -0.0359  0.2146
  323loPI   C6A 5164  12.160  17.947   7.652 -0.0235 -0.1853 -0.1144
  323loPI   C1B 5165  12.415  17.350   9.513 -0.1107  0.1592  0.0207
  323loPI   C2B 5166  12.340  17.444   9.045  0.1447 -0.1283  0.0384
  323loPI   C3B 5167  12.442  17.573   8.577  0.1768 -0.5350 -0.0795
  323loPI   C4B 5168  12.243  17.579   8.170  0.2284  0.0691  0.0613
  324loPI    C1 5169  16.262   6.643  10.730 -0.1414  0.1869 -0.2695
  324loPI    C2 5170  16.443   6.798  11.051 -0.1737  0.0228 -0.1710
  324loPI    C3 5171  16.053   6.709  11.064 -0.2474  0.3043 -0.3579
  324loPI   PO4 5172  16.219   6.869  10.526 -0.1551 -0.1170  0.0960
  324loPI   GL1 5173  15.830   6.850  10.280 -0.3370 -0.3079  0.0492
  324loPI   GL2 5174  15.988   6.920  10.099  0.0745  0.2380 -0.2264
  324loPI   C1A 5175  15.510   6.902   9.901 -0.1405  0.0414 -0.0021
  324loPI   C2A 5176  15.503   6.868   9.434  0.1468  0.2544 -0.3326
  324loPI   C3A 5177  15.535   6.819   8.974  0.2838 -0.0646 -0.2591
  324loPI   C4A 5178  15.363   6.680   8.600  0.1491 -0.0208  0.0923
  324loPI   C5A 5179  14.918   6.561   8.554  0.2177  0.2128 -0.0331
  324loPI   C6A 5180  14.582   6.648   8.194 -0.0982 -0.1577 -0.2279
  324loPI   C1B 5181  15.976   6.737   9.793  0.1032 -0.1639 -0.0042
  324loPI   C2B 5182  15.996   6.740   9.453 -0.0404  0.0909  0.3621
  324loPI   C3B 5183  16.012   6.831   9.027  0.0715  0.2372  0.1080
  324loPI   C4B 5184  15.988   6.733   8.583 -0.3896 -0.2349  0.0206
  325loPI    C1 5185   4.802   3.212  10.493 -0.1452 -0.0849 -0.1274
  325loPI    C2 5186   4.740   3.573  10.652 -0.0486 -0.1542  0.0702
  325loPI    C3 5187   4.605   3.247  10.839 -0.1102 -0.2229 -0.0930
  325loPI   PO4 5188   4.720   3.249  10.249 -0.1348  0.1881 -0.2505
  325loPI   GL1 5189   4.483   3.385   9.886 -0.2423  0.0103 -0.0323
  325loPI   GL2 5190   4.318   3.289   9.979  0.1928 -0.0039 -0.0979
  325loPI   C1A 5191   4.430   3.543   9.477  0.1214  0.1791  0.1209
  325loPI   C2A 5192   4.318   3.562   9.121 -0.1590  0.1970  0.1879
  325loPI   C3A 5193   4.470   3.698   8.857 -0.1293 -0.2783 -0.0749
  325loPI   C4A 5194   4.543   3.836   8.467  0.2985 -0.0705 -0.3987
  325loPI   C5A 5195   4.747   4.074   8.143  0.1293  0.0810 -0.0358
  325loPI   C6A 5196   4.850   4.023   7.731 -0.2843  0.1143  0.0608
  325loPI   C1B 5197   4.259   3.061   9.568 -0.3213 -0.3359  0.2331
  325loPI   C2B 5198   4.205   2.939   9.199  0.1501 -0.1695 -0.1953
  325loPI   C3B 5199   3.950   2.948   8.774  0.0058  0.0975  0.1657
  325loPI   C4B 5200   3.766   2.789   8.378  0.1305 -0.0793 -0.3221
  326loPI    C1 5201   6.411  13.920  10.601 -0.1041 -0.0738  0.0599
  326loPI    C2 5202   6.088  13.837  10.380 -0.3678  0.3649  0.2653
  326loPI    C3 5203   6.231  13.565  10.636 -0.4027  0.0654 -0.0264
  326loPI   PO4 5204   6.483  14.136  10.416 -0.3513  0.2474  0.1125
  326loPI   GL1 5205   6.546  14.219   9.953 -0.1543 -0.0560 -0.2569
  326loPI   GL2 5206   6.605  13.995   9.818  0.0570 -0.0784 -0.2623
  326loPI   C1A 5207   6.722  14.516   9.594  0.1990 -0.0214 -0.2045
  326loPI   C2A 5208   6.698  14.486   9.115  0.2301 -0.2780 -0.1865
  326loPI   C3A 5209   6.668  14.522   8.734 -0.2832  0.0859 -0.1295
  326loPI   C4A 5210   6.731  14.734   8.348  0.0497 -0.0015  0.1174
  326loPI   C5A 5211   6.700  14.998   7.994 -0.2790 -0.0489  0.1313
  326loPI   C6A 5212   6.941  15.069   7.615 -0.0248  0.2166 -0.0466
  326loPI   C1B 5213   6.683  14.058   9.414 -0.0561 -0.1156  0.2412
  326loPI   C2B 5214   6.759  14.057   8.909  0.1031  0.2115  0.0912
  326loPI   C3B 5215   6.862  14.121   8.434  0.1960  0.1276 -0.1125
  326loPI   C4B 5216   7.041  14.489   8.087  0.0290  0.2490  0.0621
  327loPI    C1 5217   2.900  10.005   9.990 -0.3097 -0.2095 -0.2607
  327loPI    C2 5218   2.540  10.046  10.160 -0.1098  0.2557  0.0726
  327loPI    C3 5219   2.861   9.971  10.387  0.0619  0.2131 -0.1798
  327loPI   PO4 5220   2.890  10.154   9.702 -0.0628  0.0220 -0.2079
  327loPI   GL1 5221   2.674  10.067   9.319  0.1990 -0.0515 -0.1566
  327loPI   GL2 5222   2.961   9.971   9.105  0.0551  0.1737  0.1836
  327loPI   C1A 5223   2.568   9.826   8.845 -0.2241  0.1608 -0.0655
  327loPI   C2A 5224   2.476   9.583   8.424  0.4041 -0.2028 -0.1397
  327loPI   C3A 5225   2.116   9.482   8.180 -0.1639 -0.2752 -0.0316
  327loPI   C4A 5226   1.755   9.647   7.989 -0.0948 -0.0136 -0.0094
  327loPI   C5A 5227   1.364   9.543   7.891  0.0903 -0.0499 -0.1336
  327loPI   C6A 5228   0.925   9.460   7.755 -0.1366  0.1370  0.0446
  327loPI   C1B 5229   3.026  10.119   8.716 -0.2917  0.0548 -0.0241
  327loPI   C2B 5230   3.012  10.104   8.277  0.2461  0.1810  0.0797
  327loPI   C3B 5231   2.909  10.191   7.913  0.0711  0.1656  0.3651
  327loPI   C4B 5232   2.924  10.407   7.533  0.0159 -0.2175 -0.2070
  328loPI    C1 5233   9.424   9.288  10.105  0.0292  0.1778 -0.1873
  328loPI    C2 5234   9.453   8.999  10.380  0.2148  0.1404 -0.2448
  328loPI    C3 5235   9.227   9.321  10.452  0.3125  0.1607 -0.0218
  328loPI   PO4 5236   9.393   9.140   9.846 -0.0406  0.0648  0.1615
  328loPI   GL1 5237   9.584   8.850   9.478  0.0373 -0.3402 -0.2129
  328loPI   GL2 5238   9.213   8.752   9.633  0.1456 -0.0675  0.4264
  328loPI   C1A 5239   9.617   9.019   9.141  0.3121  0.0895  0.0078
  328loPI   C2A 5240   9.574   8.971   8.697  0.1156 -0.4597 -0.2031
  328loPI   C3A 5241   9.859   9.077   8.336  0.1847  0.1030 -0.2413
  328loPI   C4A 5242  10.155   9.147   8.042  0.0876 -0.0334  0.1835
  328loPI   C5A 5243  10.483   9.233   7.727 -0.0610  0.2099  0.0435
  328loPI   C6A 5244  10.951   9.091   7.705 -0.0925 -0.3493 -0.0831
  328loPI   C1B 5245   9.187   8.748   9.108  0.2715  0.2480  0.0237
  328loPI   C2B 5246   9.148   8.738   8.799 -0.0731 -0.1232  0.0376
  328loPI   C3B 5247   9.245   8.774   8.348  0.2924 -0.1356 -0.2041
  328loPI   C4B 5248   9.108   8.956   8.066  0.3048 -0.0141 -0.0339
  329loPI    C1 5249   4.615  10.551  10.453 -0.1516  0.1807  0.1080
  329loPI    C2 5250   4.361  10.258  10.549  0.1456 -0.1750 -0.1640
  329loPI    C3 5251   4.647  10.366  10.806 -0.0741  0.0043  0.0095
  329loPI   PO4 5252   4.741  10.431  10.161 -0.1121  0.1313  0.0333
  329loPI   GL1 5253   4.714  10.426   9.696 -0.0278 -0.3533 -0.0037
  329loPI   GL2 5254   4.936  10.707   9.759  0.0432  0.2204 -0.1359
  329loPI   C1A 5255   4.902  10.085   9.552 -0.0950 -0.1209  0.1946
  329loPI   C2A 5256   5.174   9.845   9.394  0.1569  0.2813  0.0240
  329loPI   C3A 5257   5.178   9.683   8.952 -0.2962 -0.1666  0.2055
  329loPI   C4A 5258   5.077   9.502   8.583 -0.0887 -0.0169  0.1501
  329loPI   C5A 5259   4.958   9.769   8.249  0.0304  0.1222 -0.2548
  329loPI   C6A 5260   5.032  10.135   7.977  0.0519 -0.1927  0.3426
  329loPI   C1B 5261   5.104  10.558   9.357  0.3372 -0.0931 -0.3196
  329loPI   C2B 5262   5.198  10.709   8.867 -0.2870 -0.1730  0.0465
  329loPI   C3B 5263   5.245  10.842   8.477 -0.0350 -0.0615  0.2511
  329loPI   C4B 5264   5.443  11.057   8.237 -0.0029 -0.0246  0.0190
  330loPI    C1 5265  10.758   5.802  10.406 -0.2457  0.2009 -0.0975
  330loPI    C2 5266  10.466   5.534  10.467 -0.1729  0.1388 -0.0202
  330loPI    C3 5267  10.730   5.613  10.757  0.1277 -0.0983 -0.2216
  330loPI   PO4 5268  10.883   5.785  10.112 -0.0405  0.1317 -0.0558
  330loPI   GL1 5269  10.957   5.654   9.741 -0.1477 -0.0188  0.1454
  330loPI   GL2 5270  10.875   5.414   9.529  0.5221 -0.0216 -0.2263
  330loPI   C1A 5271  11.319   5.696   9.478  0.2550  0.4455  0.1788
  330loPI   C2A 5272  11.538   5.695   9.050 -0.0884 -0.0270  0.1962
  330loPI   C3A 5273  11.749   5.604   8.639 -0.0527  0.0339 -0.1526
  330loPI   C4A 5274  11.869   5.603   8.125  0.2539  0.1003  0.1474
  330loPI   C5A 5275  12.243   5.443   7.954  0.3715  0.0527 -0.1687
  330loPI   C6A 5276  12.626   5.471   8.056  0.0122  0.0995  0.4752
  330loPI   C1B 5277  10.651   5.215   9.206 -0.3104  0.0677  0.1515
  330loPI   C2B 5278  10.613   5.145   8.734  0.3771  0.2480 -0.1641
  330loPI   C3B 5279  10.597   5.197   8.258  0.2674  0.0509 -0.0448
  330loPI   C4B 5280  10.770   5.579   8.008  0.2132  0.0816 -0.1698
  331loPI    C1 5281   9.346  11.508  10.596 -0.0408  0.0708 -0.0568
  331loPI    C2 5282   9.439  11.474  10.984  0.2006 -0.2536 -0.1387
  331loPI    C3 5283   9.059  11.438  10.865  0.1062 -0.0121  0.0801
  331loPI   PO4 5284   9.459  11.419  10.422 -0.2421 -0.1541  0.0897
  331loPI   GL1 5285   9.311  11.386  10.007 -0.0731 -0.0323  0.0788
  331loPI   GL2 5286   9.025  11.174   9.887  0.0674  0.0882  0.1022
  331loPI   C1A 5287   9.379  11.443   9.615  0.3490 -0.0345  0.0909
  331loPI   C2A 5288   9.343  11.446   9.145  0.1130 -0.0040  0.3377
  331loPI   C3A 5289   9.288  11.536   8.706  0.1544 -0.2272  0.1134
  331loPI   C4A 5290   9.218  11.942   8.368 -0.0665  0.2181 -0.0265
  331loPI   C5A 5291   8.923  12.134   8.196  0.1726  0.2967  0.0843
  331loPI   C6A 5292   8.866  12.503   8.112 -0.0255 -0.0068 -0.3533
  331loPI   C1B 5293   8.899  11.615   9.713 -0.0106  0.2441 -0.2340
  331loPI   C2B 5294   8.734  11.845   9.327  0.1380 -0.0565 -0.4023
  331loPI   C3B 5295   8.882  11.827   8.927 -0.1757 -0.0804  0.0305
  331loPI   C4B 5296   8.702  11.797   8.521 -0.1440  0.0831 -0.0007
  332loPI    C1 5297  12.825  14.668  10.662 -0.0860  0.0505 -0.0012
  332loPI    C2 5298  12.483  14.877  10.657 -0.1595 -0.0690 -0.0167
  332loPI    C3 5299  12.618  14.722  11.000 -0.0514  0.0898  0.0139
  332loPI   PO4 5300  12.925  14.731  10.425  0.2737 -0.1982  0.0259
  332loPI   GL1 5301  12.928  14.385  10.076 -0.0414 -0.2239  0.3763
  332loPI   GL2 5302  12.970  14.642   9.954 -0.2086  0.1184  0.0172
  332loPI   C1A 5303  12.751  14.283   9.644 -0.0511  0.0532 -0.4020
  332loPI   C2A 5304  12.735  14.134   9.246 -0.1891  0.2219 -0.1230
  332loPI   C3A 5305  12.494  13.864   8.895 -0.1073  0.1511 -0.4189
  332loPI   C4A 5306  12.551  13.587   8.501 -0.0488 -0.0720 -0.2674
  332loPI   C5A 5307  12.672  13.402   8.042 -0.0028  0.0354 -0.2177
  332loPI   C6A 5308  12.233  13.275   7.791 -0.4198 -0.2382 -0.1692
  332loPI   C1B 5309  13.274  14.889   9.679 -0.4177 -0.2692 -0.0944
  332loPI   C2B 5310  13.292  14.837   9.199 -0.0951 -0.0996 -0.0985
  332loPI   C3B 5311  13.540  14.857   8.750  0.0708 -0.2602 -0.0374
  332loPI   C4B 5312  13.733  14.818   8.401 -0.2505 -0.1483 -0.0298
  333loPI    C1 5313   4.127   9.221  10.128 -0.1263  0.0135  0.0457
  333loPI    C2 5314   3.822   9.010   9.976  0.1114 -0.1772 -0.1756
  333loPI    C3 5315   3.852   9.062  10.372 -0.3017 -0.0066 -0.1623
  333loPI   PO4 5316   4.302   9.129   9.933 -0.3356 -0.0349  0.0019
  333loPI   GL1 5317   4.553   9.212   9.611 -0.2295 -0.2312  0.2498
  333loPI   GL2 5318   4.496   9.488   9.432 -0.0416 -0.2471  0.0454
  333loPI   C1A 5319   4.573   9.148   9.130 -0.2267  0.0240  0.0577
  333loPI   C2A 5320   4.663   9.309   8.816  0.1643  0.3382  0.0713
  333loPI   C3A 5321   4.406   9.482   8.655  0.0536 -0.2698 -0.0341
  333loPI   C4A 5322   4.502   9.689   8.293  0.0750 -0.5587  0.1960
  333loPI   C5A 5323   4.588   9.909   7.925 -0.2100 -0.0360 -0.3385
  333loPI   C6A 5324   4.634  10.407   7.758  0.3812 -0.0683 -0.0410
  333loPI   C1B 5325   4.203   9.569   9.122 -0.0558  0.0529 -0.0474
  333loPI   C2B 5326   3.951   9.687   8.799 -0.0936  0.2428  0.3238
  333loPI   C3B 5327   3.975   9.771   8.425 -0.3065 -0.0518  0.0175
  333loPI   C4B 5328   4.013   9.734   8.038  0.0043  0.0590 -0.1280
  334loPI    C1 5329  15.469   2.233  10.854 -0.3746 -0.2762 -0.0121
  334loPI    C2 5330  15.199   2.074  11.102  0.0655 -0.5081  0.3342
  334loPI    C3 5331  15.582   1.961  11.125  0.1839 -0.2470 -0.2020
  334loPI   PO4 5332  15.374   2.248  10.630  0.0647 -0.1394 -0.0748
  334loPI   GL1 5333  15.398   2.359  10.137  0.1223 -0.1254  0.2406
  334loPI   GL2 5334  15.305   2.608   9.953  0.1161  0.2898  0.1308
  334loPI   C1A 5335  15.410   2.163   9.692 -0.1019  0.2085  0.0510
  334loPI   C2A 5336  15.416   2.174   9.222  0.2339  0.0891  0.1964
  334loPI   C3A 5337  15.401   2.167   8.806  0.3891  0.0812 -0.3226
  334loPI   C4A 5338  15.400   2.319   8.356  0.1641 -0.2113  0.2805
  334loPI   C5A 5339  15.729   2.430   7.955 -0.2468  0.1683 -0.1514
  334loPI   C6A 5340  16.067   2.525   7.783 -0.0116  0.0670 -0.1116
  334loPI   C1B 5341  15.268   2.573   9.457  0.1642 -0.0353  0.0277
  334loPI   C2B 5342  15.057   2.557   9.025  0.1500  0.0832 -0.0206
  334loPI   C3B 5343  15.065   2.575   8.641 -0.1513 -0.1576 -0.0835
  334loPI   C4B 5344  15.119   2.947   8.403 -0.1953 -0.2216  0.1793
  335loPI    C1 5345   8.766   1.553  10.391 -0.1336  0.1513  0.0220
  335loPI    C2 5346   8.740   1.484  10.785 -0.3411 -0.2951 -0.0642
  335loPI    C3 5347   8.409   1.549  10.570 -0.2119  0.1739 -0.1321
  335loPI   PO4 5348   8.905   1.340  10.267  0.0123  0.1357 -0.2052
  335loPI   GL1 5349   8.820   1.173   9.869 -0.0963  0.0445  0.0186
  335loPI   GL2 5350   8.869   0.891   9.863 -0.4683  0.0059 -0.4057
  335loPI   C1A 5351   8.606   1.092   9.386  0.2053  0.1137 -0.1266
  335loPI   C2A 5352   8.532   0.771   9.064 -0.2256  0.0134  0.2258
  335loPI   C3A 5353   8.651   0.599   8.597 -0.3505  0.2141  0.0756
  335loPI   C4A 5354   8.846   0.543   8.174 -0.2612  0.1391  0.1401
  335loPI   C5A 5355   9.266   0.818   8.005  0.0194  0.0555 -0.1365
  335loPI   C6A 5356   9.476   1.151   7.749 -0.1826  0.1718 -0.2638
  335loPI   C1B 5357   9.104   1.117   9.506 -0.1827 -0.0128 -0.0473
  335loPI   C2B 5358   9.406   1.045   9.213 -0.0900  0.0292 -0.1652
  335loPI   C3B 5359   9.441   0.953   8.765  0.0776  0.0900  0.0135
  335loPI   C4B 5360   9.243   0.584   8.474  0.2068  0.2587 -0.2576
  336loPI    C1 5361  16.232   5.253  11.007 -0.3121 -0.1158 -0.0758
  336loPI    C2 5362  16.211   5.642  10.915  0.1893 -0.0696 -0.0207
  336loPI    C3 5363  15.945   5.482  11.167  0.0050  0.2450 -0.0099
  336loPI   PO4 5364  16.255   5.100  10.766  0.2335  0.1677  0.0558
  336loPI   GL1 5365  16.145   5.369  10.372 -0.0141  0.1499 -0.2104
  336loPI   GL2 5366  15.903   5.258  10.175  0.1364  0.1646  0.0253
  336loPI   C1A 5367  16.327   5.602  10.053 -0.1885  0.0126  0.0748
  336loPI   C2A 5368  16.444   5.634   9.675  0.0908  0.1680  0.1714
  336loPI   C3A 5369  16.409   5.760   9.271 -0.2364 -0.0870  0.0972
  336loPI   C4A 5370  16.559   5.780   8.858  0.1370 -0.1940  0.1291
  336loPI   C5A 5371  16.491   5.961   8.423  0.0306  0.6735 -0.1513
  336loPI   C6A 5372  16.590   6.044   8.024  0.0618  0.2569  0.1250
  336loPI   C1B 5373  15.912   5.375   9.750 -0.1976  0.0938 -0.0282
  336loPI   C2B 5374  16.146   5.367   9.376 -0.2137  0.3616  0.1213
  336loPI   C3B 5375  16.189   5.430   8.965 -0.1208 -0.1064  0.0657
  336loPI   C4B 5376  16.348   5.464   8.507 -0.2527  0.0116  0.0022
  337loPI    C1 5377   8.226   7.021   9.874  0.0143  0.1243 -0.1689
  337loPI    C2 5378   8.070   6.785  10.157  0.4935  0.0893  0.0774
  337loPI    C3 5379   7.885   7.125  10.056  0.1719 -0.0360  0.2299
  337loPI   PO4 5380   8.238   6.843   9.689  0.1611 -0.1004  0.1284
  337loPI   GL1 5381   8.237   6.563   9.340 -0.0062 -0.3238 -0.0826
  337loPI   GL2 5382   8.366   6.809   9.204  0.3288 -0.2561 -0.0899
  337loPI   C1A 5383   7.964   6.467   8.967  0.3427  0.1297 -0.1306
  337loPI   C2A 5384   7.895   6.489   8.565  0.0025 -0.1459  0.0472
  337loPI   C3A 5385   8.218   6.285   8.366 -0.0328  0.0251 -0.0767
  337loPI   C4A 5386   8.085   6.104   7.908  0.0478  0.2149 -0.3619
  337loPI   C5A 5387   8.068   5.704   7.580  0.0848 -0.0579 -0.0636
  337loPI   C6A 5388   8.354   5.473   7.384 -0.2834  0.1432 -0.0046
  337loPI   C1B 5389   8.281   6.843   8.737 -0.0411  0.1084  0.2411
  337loPI   C2B 5390   8.197   6.863   8.331  0.0356 -0.1214  0.3550
  337loPI   C3B 5391   8.052   7.001   7.990 -0.2520  0.0627  0.0597
  337loPI   C4B 5392   7.853   7.190   7.708  0.1569  0.0363 -0.1393
  338loPI    C1 5393   1.148   7.638  10.737 -0.0926  0.1694  0.0331
  338loPI    C2 5394   0.970   7.914  10.965  0.0926  0.2752  0.0513
  338loPI    C3 5395   1.317   7.997  10.784  0.0576  0.1161 -0.0914
  338loPI   PO4 5396   1.030   7.542  10.544  0.3261  0.0723 -0.0184
  338loPI   GL1 5397   1.127   7.394  10.164  0.1807 -0.2954  0.2691
  338loPI   GL2 5398   0.801   7.503  10.077 -0.3119  0.0996  0.1059
  338loPI   C1A 5399   1.222   7.390   9.768  0.3263  0.1175  0.2273
  338loPI   C2A 5400   1.168   7.342   9.333 -0.0018  0.0039 -0.1419
  338loPI   C3A 5401   1.128   7.371   8.916 -0.1505 -0.2006 -0.0744
  338loPI   C4A 5402   1.069   7.359   8.474  0.1408  0.0506 -0.3345
  338loPI   C5A 5403   1.034   7.197   8.135  0.1011  0.1986  0.0853
  338loPI   C6A 5404   1.209   6.813   8.085  0.1898  0.2381 -0.3292
  338loPI   C1B 5405   0.696   7.464   9.626  0.0751  0.2271  0.1112
  338loPI   C2B 5406   0.641   7.441   9.180  0.3288 -0.0562  0.0019
  338loPI   C3B 5407   0.632   7.401   8.727  0.0036  0.0238 -0.1344
  338loPI   C4B 5408   0.568   7.218   8.284 -0.1174  0.0478  0.1281
  339POPI    C1 5409   5.690   0.495  10.917  0.0711 -0.0878 -0.0106
  339POPI    C2 5410   5.715   0.162  11.138  0.1579  0.1043  0.2759
  339POPI    C3 5411   5.470   0.458  11.249  0.3334  0.2758  0.2118
  339POPI   PO4 5412   5.668   0.389  10.638 -0.2047  0.2349  0.2281
  339POPI   GL1 5413   5.626   0.436  10.232 -0.2330 -0.0395  0.0782
  339POPI   GL2 5414   5.717   0.821  10.278 -0.0107  0.0469  0.3007
  339POPI   C1A 5415   5.663   0.339   9.822 -0.1994  0.0033 -0.3528
  339POPI   D2A 5416   5.909   0.444   9.471  0.1083 -0.0593 -0.2556
  339POPI   C3A 5417   5.785   0.400   9.098  0.0316 -0.1216  0.1400
  339POPI   C4A 5418   5.519   0.244   8.644 -0.1694 -0.2597 -0.0159
  339POPI   C1B 5419   5.761   0.890   9.793 -0.1538  0.0330  0.0440
  339POPI   C2B 5420   5.914   0.898   9.309 -0.1566 -0.0222  0.0574
  339POPI   C3B 5421   5.929   0.842   8.851 -0.0933 -0.1755  0.0417
  339POPI   C4B 5422   6.105   0.890   8.463  0.1796 -0.1034 -0.2148
  340POPI    C1 5423   0.436   0.457  10.418  0.0314 -0.0361  0.1397
  340POPI    C2 5424   0.685   0.286  10.681 -0.0476 -0.0544  0.2033
  340POPI    C3 5425   0.315   0.141  10.633 -0.0957  0.0635  0.2162
  340POPI   PO4 5426   0.489   0.469  10.189  0.0533  0.0479  0.2859
  340POPI   GL1 5427   0.392   0.277   9.871  0.0638  0.0318  0.0151
  340POPI   GL2 5428   0.297  -0.035   9.733 -0.2271 -0.2406  0.0288
  340POPI   C1A 5429   0.310   0.399   9.507  0.0370 -0.2033 -0.0603
  340POPI   D2A 5430   0.375   0.283   9.176 -0.1135 -0.2252  0.0648
  340POPI   C3A 5431   0.353   0.269   8.815 -0.0102  0.0024 -0.1009
  340POPI   C4A 5432   0.552   0.217   8.548 -0.0926 -0.0804 -0.1294
  340POPI   C1B 5433   0.015  -0.034   9.389 -0.1604  0.1891  0.3816
  340POPI   C2B 5434  -0.023  -0.002   8.911  0.0951 -0.0162 -0.1696
  340POPI   C3B 5435   0.025   0.028   8.536 -0.2376 -0.0723  0.0810
  340POPI   C4B 5436  -0.198   0.010   8.078 -0.1900  0.0045  0.5255
  341POPI    C1 5437   4.618   8.612  10.178  0.3058  0.2936 -0.1228
  341POPI    C2 5438   4.309   8.776  10.371  0.0537 -0.0413 -0.2331
  341POPI    C3 5439   4.679   8.914  10.434 -0.0751  0.1451  0.1519
  341POPI   PO4 5440   4.576   8.640   9.967  0.1254 -0.2302  0.2241
  341POPI   GL1 5441   4.821   8.725   9.557 -0.3784  0.2897  0.0219
  341POPI   GL2 5442   5.028   8.935   9.374 -0.1806  0.0975  0.0228
  341POPI   C1A 5443   4.614   8.654   9.048 -0.2700  0.0400  0.0505
  341POPI   D2A 5444   4.508   8.856   8.603  0.1011  0.1795  0.1645
  341POPI   C3A 5445   4.673   9.104   8.251  0.0126 -0.1243 -0.1357
  341POPI   C4A 5446   4.713   9.226   7.836 -0.1677 -0.0359  0.1843
  341POPI   C1B 5447   5.020   8.900   8.934 -0.0397  0.2456  0.2641
  341POPI   C2B 5448   5.034   8.911   8.527 -0.1144 -0.0809  0.0447
  341POPI   C3B 5449   5.244   8.745   8.122  0.0714  0.0918 -0.2869
  341POPI   C4B 5450   5.215   8.336   7.951  0.2012 -0.0889  0.1290
  342POPI    C1 5451   3.606   8.515   9.992 -0.0839 -0.0082 -0.0524
  342POPI    C2 5452   3.513   8.701  10.334  0.0268  0.0052 -0.0293
  342POPI    C3 5453   3.862   8.509  10.299 -0.0464 -0.1189 -0.0855
  342POPI   PO4 5454   3.475   8.734   9.791 -0.1460 -0.4175 -0.1196
  342POPI   GL1 5455   3.172   8.759   9.484  0.1732  0.1698 -0.0032
  342POPI   GL2 5456   3.477   8.788   9.311 -0.0854 -0.0869  0.3552
  342POPI   C1A 5457   2.960   8.793   9.150 -0.3042 -0.1016 -0.0880
  342POPI   D2A 5458   2.844   8.829   8.749 -0.4224 -0.2489 -0.2060
  342POPI   C3A 5459   2.727   8.665   8.304 -0.0957  0.1011  0.0722
  342POPI   C4A 5460   2.573   8.715   7.876  0.1623  0.0047 -0.1113
  342POPI   C1B 5461   3.484   8.875   8.853  0.0110  0.3713 -0.0245
  342POPI   C2B 5462   3.345   9.049   8.444  0.2099  0.1425  0.0422
  342POPI   C3B 5463   3.022   9.103   8.116 -0.0894 -0.0316 -0.3226
  342POPI   C4B 5464   3.084   8.949   7.742 -0.0133 -0.1001  0.0313
  343POPI    C1 5465   0.935   4.686  10.458  0.0168  0.0785 -0.0670
  343POPI    C2 5466   0.919   4.898  10.797  0.0139  0.0983 -0.0796
  343POPI    C3 5467   1.200   4.978  10.524  0.1853 -0.0961  0.0377
  343POPI   PO4 5468   0.726   4.753  10.330 -0.0539 -0.1851  0.2479
  343POPI   GL1 5469   0.609   4.708  10.017 -0.3996  0.1200 -0.1274
  343POPI   GL2 5470   0.407   4.848   9.856  0.0098  0.5229  0.0547
  343POPI   C1A 5471   0.528   4.370   9.818 -0.0079 -0.0825  0.0669
  343POPI   D2A 5472   0.337   3.912   9.698  0.1531  0.4154 -0.1166
  343POPI   C3A 5473   0.162   3.784   9.292 -0.1068  0.0137  0.0855
  343POPI   C4A 5474  -0.045   3.751   8.868  0.0976 -0.1465  0.0141
  343POPI   C1B 5475   0.434   4.689   9.451 -0.1596 -0.1033  0.1565
  343POPI   C2B 5476   0.515   4.623   9.063  0.3977 -0.0420 -0.1265
  343POPI   C3B 5477   0.375   4.587   8.663 -0.0248 -0.2993  0.0545
  343POPI   C4B 5478   0.117   4.794   8.455 -0.3930  0.0731  0.0207
  344POPI    C1 5479   1.191   0.846  10.628 -0.2541  0.0139 -0.0283
  344POPI    C2 5480   0.798   0.801  10.683 -0.2346 -0.0980  0.0210
  344POPI    C3 5481   1.054   0.691  10.970 -0.1700  0.0262  0.0112
  344POPI   PO4 5482   1.179   1.089  10.448 -0.1896  0.1364 -0.0042
  344POPI   GL1 5483   1.212   1.159  10.084 -0.1118 -0.0257 -0.4187
  344POPI   GL2 5484   1.446   1.297  10.055  0.1616 -0.1054 -0.0973
  344POPI   C1A 5485   1.138   1.635   9.841 -0.0334 -0.2980  0.2788
  344POPI   D2A 5486   1.244   1.885   9.548 -0.2507 -0.0046  0.1940
  344POPI   C3A 5487   1.182   1.796   9.071  0.0561  0.2692  0.3147
  344POPI   C4A 5488   1.277   1.763   8.595 -0.0068 -0.2071  0.0268
  344POPI   C1B 5489   1.463   1.247   9.733  0.3699 -0.0448  0.0070
  344POPI   C2B 5490   1.601   1.053   9.366 -0.0135  0.0823 -0.0935
  344POPI   C3B 5491   1.752   0.953   8.997  0.2410 -0.0122 -0.0693
  344POPI   C4B 5492   1.774   0.961   8.535 -0.1184 -0.1201 -0.1885
  345POPI    C1 5493   8.237  11.555  10.923  0.1602 -0.0151 -0.1500
  345POPI    C2 5494   8.435  11.888  11.022 -0.0427  0.0990 -0.1226
  345POPI    C3 5495   8.624  11.535  11.023  0.1434  0.1975 -0.0388
  345POPI   PO4 5496   8.144  11.607  10.647  0.0145 -0.1174  0.2890
  345POPI   GL1 5497   8.216  11.485  10.278 -0.0094 -0.2704 -0.1474
  345POPI   GL2 5498   8.468  11.542  10.020  0.0158  0.1045  0.1713
  345POPI   C1A 5499   7.990  11.801  10.001  0.1492 -0.0115 -0.1114
  345POPI   D2A 5500   8.052  12.144   9.578  0.3831 -0.0892 -0.3620
  345POPI   C3A 5501   8.304  12.043   9.188  0.0006  0.1418 -0.1228
  345POPI   C4A 5502   8.435  12.019   8.887 -0.0306  0.1189  0.2030
  345POPI   C1B 5503   8.528  11.914   9.821 -0.0432 -0.2459 -0.1802
  345POPI   C2B 5504   8.582  12.295   9.591 -0.1472  0.0192 -0.0246
  345POPI   C3B 5505   8.734  12.413   9.108 -0.0649 -0.2922  0.0671
  345POPI   C4B 5506   8.937  12.335   8.704  0.1233 -0.0146 -0.0066
  346POPI    C1 5507  11.409  15.490  10.870  0.0284 -0.0374  0.1213
  346POPI    C2 5508  11.067  15.575  11.060 -0.0959  0.1100 -0.1607
  346POPI    C3 5509  11.325  15.868  10.973  0.1629 -0.0167  0.1566
  346POPI   PO4 5510  11.311  15.397  10.663  0.4172 -0.0768  0.0404
  346POPI   GL1 5511  11.267  15.190  10.284 -0.0099 -0.0388 -0.1193
  346POPI   GL2 5512  11.269  15.557  10.148 -0.1130  0.5857 -0.1558
  346POPI   C1A 5513  11.263  15.096   9.836  0.0874  0.2712  0.2965
  346POPI   D2A 5514  11.196  14.644   9.614 -0.2161 -0.1159 -0.0397
  346POPI   C3A 5515  10.993  14.422   9.318 -0.1330  0.0509 -0.0735
  346POPI   C4A 5516  10.668  14.401   9.008  0.2650 -0.4086 -0.0321
  346POPI   C1B 5517  11.444  15.562   9.723  0.1343 -0.0832 -0.0650
  346POPI   C2B 5518  11.475  15.511   9.311 -0.2331 -0.2365 -0.1506
  346POPI   C3B 5519  11.532  15.582   8.844  0.0186 -0.0661 -0.1688
  346POPI   C4B 5520  11.662  15.473   8.416  0.1124 -0.0149  0.0350
  347POPI    C1 5521   8.476  12.638  10.594  0.2301  0.0114  0.1118
  347POPI    C2 5522   8.284  12.332  10.765 -0.1112  0.0242 -0.2330
  347POPI    C3 5523   8.143  12.704  10.805  0.3177  0.1503  0.2082
  347POPI   PO4 5524   8.601  12.525  10.377 -0.0132 -0.1097  0.2541
  347POPI   GL1 5525   8.680  12.720  10.035  0.0318 -0.0272 -0.0832
  347POPI   GL2 5526   8.947  12.566   9.803 -0.0941 -0.0900  0.0814
  347POPI   C1A 5527   8.570  12.974   9.691  0.0281 -0.0284 -0.0094
  347POPI   D2A 5528   8.430  13.121   9.394 -0.0682 -0.0683 -0.0578
  347POPI   C3A 5529   8.482  12.982   9.000  0.0002  0.1405  0.1836
  347POPI   C4A 5530   8.417  12.995   8.552  0.0143  0.1072 -0.2138
  347POPI   C1B 5531   9.007  12.732   9.388  0.1464 -0.0300  0.0606
  347POPI   C2B 5532   8.961  12.829   8.929 -0.0410 -0.2960 -0.1455
  347POPI   C3B 5533   8.918  12.792   8.530  0.0408 -0.0851  0.4103
  347POPI   C4B 5534   9.199  12.925   8.134  0.0747  0.2918  0.2009
  348POPI    C1 5535   3.510  13.623  10.625 -0.7447 -0.0081 -0.0333
  348POPI    C2 5536   3.559  14.000  10.751 -0.0349 -0.0394 -0.1708
  348POPI    C3 5537   3.599  13.697  11.008 -0.0966 -0.0425 -0.1647
  348POPI   PO4 5538   3.661  13.651  10.332  0.0564 -0.0383 -0.1734
  348POPI   GL1 5539   3.712  13.670   9.915 -0.0571 -0.3638 -0.0691
  348POPI   GL2 5540   3.404  13.589   9.937  0.1317  0.1113 -0.1563
  348POPI   C1A 5541   3.613  13.904   9.572  0.1369  0.1818 -0.2954
  348POPI   D2A 5542   3.472  13.984   9.182 -0.3249 -0.4200  0.0106
  348POPI   C3A 5543   3.513  14.012   8.716 -0.0014 -0.0775 -0.3120
  348POPI   C4A 5544   3.367  14.039   8.410 -0.0639  0.0551  0.4375
  348POPI   C1B 5545   3.240  13.606   9.506 -0.2117  0.1093  0.3760
  348POPI   C2B 5546   3.084  13.645   9.128  0.0542 -0.5321  0.3741
  348POPI   C3B 5547   3.077  13.735   8.765  0.0510 -0.0312  0.0887
  348POPI   C4B 5548   3.056  13.527   8.442  0.2788  0.0977 -0.0159
  349POPI    C1 5549  10.495  10.707  10.326 -0.2550 -0.1389  0.1670
  349POPI    C2 5550  10.647  10.963  10.593 -0.2021 -0.0738  0.0752
  349POPI    C3 5551  10.306  11.050  10.404 -0.0897  0.0139 -0.0896
  349POPI   PO4 5552  10.704  10.562  10.193  0.1130  0.1184  0.2840
  349POPI   GL1 5553  10.687  10.404   9.734  0.0551  0.2630 -0.2842
  349POPI   GL2 5554  10.282  10.308   9.996 -0.3604 -0.1496  0.4133
  349POPI   C1A 5555  10.725  10.696   9.497  0.0251 -0.0560 -0.3129
  349POPI   D2A 5556  10.665  11.032   9.259  0.1098  0.0012 -0.0568
  349POPI   C3A 5557  10.624  11.176   8.824 -0.1578  0.0450 -0.0730
  349POPI   C4A 5558  10.644  11.077   8.421  0.0782 -0.2559  0.1220
  349POPI   C1B 5559  10.220  10.515   9.634  0.1874  0.0697 -0.1898
  349POPI   C2B 5560  10.207  10.864   9.356 -0.1263  0.1722  0.1511
  349POPI   C3B 5561  10.169  10.925   8.970  0.0391 -0.2856 -0.2043
  349POPI   C4B 5562  10.163  10.930   8.500  0.1507 -0.1790  0.0523
  350POPI    C1 5563  17.455   2.492  10.509 -0.0241  0.0494  0.2124
  350POPI    C2 5564  17.324   2.154  10.679 -0.0223 -0.0232  0.0707
  350POPI    C3 5565  17.068   2.393  10.486 -0.0163  0.0362  0.1358
  350POPI   PO4 5566  17.670   2.387  10.431  0.0045 -0.0085  0.2751
  350POPI   GL1 5567  17.922   2.446  10.048 -0.2305 -0.1786 -0.0349
  350POPI   GL2 5568  18.237   2.383  10.144  0.0419 -0.1800  0.0068
  350POPI   C1A 5569  17.605   2.435   9.739 -0.2651  0.3355 -0.2894
  350POPI   D2A 5570  17.512   2.442   9.248  0.0187 -0.1485  0.1022
  350POPI   C3A 5571  17.591   2.466   8.788 -0.0306  0.2272  0.3319
  350POPI   C4A 5572  17.742   2.584   8.375 -0.0319  0.2566  0.0964
  350POPI   C1B 5573  18.135   2.426   9.621  0.0181 -0.1080 -0.2313
  350POPI   C2B 5574  18.044   2.436   9.156 -0.4694  0.0020  0.0731
  350POPI   C3B 5575  18.135   2.450   8.748 -0.1721  0.1297 -0.0277
  350POPI   C4B 5576  18.367   2.624   8.462 -0.0832 -0.1715  0.2500
  351POPI    C1 5577   3.498   5.907  10.207 -0.0761  0.1083 -0.2558
  351POPI    C2 5578   3.764   5.754   9.951  0.1531 -0.1793  0.1441
  351POPI    C3 5579   3.888   5.920  10.293 -0.1578  0.0758  0.1368
  351POPI   PO4 5580   3.370   5.689  10.250  0.0687 -0.0528 -0.0130
  351POPI   GL1 5581   3.183   5.712   9.857 -0.1012  0.0965 -0.1340
  351POPI   GL2 5582   2.870   5.909   9.712 -0.0500 -0.0110 -0.2944
  351POPI   C1A 5583   3.067   5.487   9.427  0.2980 -0.2094 -0.1392
  351POPI   D2A 5584   2.940   5.294   9.107 -0.0002  0.1328 -0.1549
  351POPI   C3A 5585   2.618   5.457   8.785  0.0146 -0.0694  0.2419
  351POPI   C4A 5586   2.511   5.290   8.454  0.2644  0.0022  0.3285
  351POPI   C1B 5587   2.795   6.324   9.444 -0.2043  0.1329 -0.4166
  351POPI   C2B 5588   2.767   6.335   9.014 -0.1968 -0.0817 -0.1039
  351POPI   C3B 5589   2.643   6.362   8.636  0.1005 -0.1028 -0.3956
  351POPI   C4B 5590   2.604   6.443   8.204 -0.0436  0.0179 -0.0044
  352POPI    C1 5591   5.786   7.252  10.366 -0.1059 -0.0605  0.0012
  352POPI    C2 5592   6.130   7.374  10.531 -0.1127 -0.2099  0.1285
  352POPI    C3 5593   5.828   7.632  10.482  0.0993 -0.0175 -0.2061
  352POPI   PO4 5594   5.881   7.181  10.109 -0.0565 -0.0722  0.1652
  352POPI   GL1 5595   5.586   7.124   9.805 -0.0554  0.1750 -0.1653
  352POPI   GL2 5596   5.797   7.029   9.652 -0.2131 -0.0728 -0.0887
  352POPI   C1A 5597   5.310   7.115   9.377  0.0689 -0.0095  0.0907
  352POPI   D2A 5598   5.060   6.878   9.182 -0.1053 -0.2096  0.1140
  352POPI   C3A 5599   4.646   6.931   9.070  0.0463 -0.3478  0.1864
  352POPI   C4A 5600   4.357   6.649   9.086  0.1789  0.2136  0.0860
  352POPI   C1B 5601   5.803   7.180   9.188  0.0199 -0.0958 -0.0401
  352POPI   C2B 5602   5.728   7.284   8.716  0.2433 -0.0824 -0.0610
  352POPI   C3B 5603   5.670   7.299   8.222  0.1551 -0.0142  0.1590
  352POPI   C4B 5604   5.814   7.315   7.712  0.1227  0.2119  0.0195
  353POPI    C1 5605  12.843  13.132  10.385  0.0382 -0.0601 -0.1854
  353POPI    C2 5606  13.142  13.303  10.181  0.0884 -0.0205 -0.0790
  353POPI    C3 5607  12.889  13.530  10.393  0.0518 -0.0637 -0.0763
  353POPI   PO4 5608  12.924  12.929  10.581  0.1979  0.1919  0.2542
  353POPI   GL1 5609  12.911  12.577  10.407  0.2129  0.2191 -0.1994
  353POPI   GL2 5610  12.595  12.656  10.277 -0.0386 -0.1095  0.1433
  353POPI   C1A 5611  13.180  12.804  10.006 -0.2656 -0.0969 -0.0523
  353POPI   D2A 5612  13.196  13.083   9.647  0.1101 -0.1736  0.1762
  353POPI   C3A 5613  13.141  12.914   9.228  0.1003  0.0310  0.1603
  353POPI   C4A 5614  13.074  12.864   8.869  0.2016 -0.3462  0.0053
  353POPI   C1B 5615  12.725  12.806   9.934  0.0346  0.1533  0.0209
  353POPI   C2B 5616  12.697  13.034   9.542  0.1477 -0.1850 -0.1676
  353POPI   C3B 5617  12.627  13.125   9.084  0.3704  0.1503 -0.3322
  353POPI   C4B 5618  12.616  13.037   8.705 -0.1286  0.2849  0.1534
  354POPI    C1 5619  12.095  15.215  10.529  0.0016 -0.1290  0.0421
  354POPI    C2 5620  11.809  14.966  10.656 -0.1933 -0.0453 -0.2239
  354POPI    C3 5621  11.863  15.318  10.838  0.0053 -0.2280  0.0779
  354POPI   PO4 5622  12.088  15.094  10.245  0.1285 -0.0843  0.0932
  354POPI   GL1 5623  11.839  15.058   9.891  0.0023 -0.0949 -0.0703
  354POPI   GL2 5624  12.143  14.922   9.799 -0.0899  0.0247 -0.2765
  354POPI   C1A 5625  11.681  15.091   9.512 -0.1573  0.2951 -0.1508
  354POPI   D2A 5626  11.279  15.044   9.287 -0.0686 -0.0227  0.2940
  354POPI   C3A 5627  11.505  15.117   8.935  0.1428  0.1395  0.1376
  354POPI   C4A 5628  11.862  15.090   8.711  0.0388 -0.2751 -0.0798
  354POPI   C1B 5629  12.254  14.898   9.321  0.1714 -0.0413  0.0332
  354POPI   C2B 5630  12.283  14.826   8.856  0.3733  0.0286 -0.0768
  354POPI   C3B 5631  12.247  14.944   8.362  0.1631  0.2902  0.1813
  354POPI   C4B 5632  12.063  15.122   8.007  0.3838  0.2493 -0.0533
  355POPI    C1 5633   4.918   0.147  11.017  0.0786  0.3980 -0.0706
  355POPI    C2 5634   5.281   0.168  10.849  0.0410 -0.0411 -0.2204
  355POPI    C3 5635   5.235  -0.008  11.205 -0.0274  0.0040 -0.2065
  355POPI   PO4 5636   4.805   0.303  10.771  0.1313 -0.1492  0.1558
  355POPI   GL1 5637   4.949   0.687  10.493 -0.0195  0.0344  0.1460
  355POPI   GL2 5638   5.159   0.422  10.374  0.0820  0.0187  0.0407
  355POPI   C1A 5639   4.839   0.718  10.055 -0.1640 -0.0200  0.2052
  355POPI   D2A 5640   4.838   1.030   9.778  0.2189  0.1573  0.0608
  355POPI   C3A 5641   5.001   0.979   9.419  0.0523  0.1377 -0.1406
  355POPI   C4A 5642   4.951   0.744   9.143 -0.2895 -0.1574  0.0729
  355POPI   C1B 5643   5.125   0.211   9.993 -0.4488 -0.0048 -0.5703
  355POPI   C2B 5644   5.146   0.195   9.514  0.0007 -0.0789  0.0297
  355POPI   C3B 5645   5.100   0.219   9.028 -0.0159  0.4459  0.1982
  355POPI   C4B 5646   5.051  -0.024   8.766 -0.1104  0.0552  0.0294
  356POPI    C1 5647  13.183   7.731  10.488 -0.1087  0.1483 -0.0144
  356POPI    C2 5648  13.123   7.356  10.616 -0.3019  0.1303 -0.1528
  356POPI    C3 5649  12.957   7.663  10.811  0.1080  0.1720  0.1448
  356POPI   PO4 5650  13.480   7.709  10.376 -0.0450  0.1953 -0.0094
  356POPI   GL1 5651  13.420   7.696   9.944  0.0947  0.0411 -0.0978
  356POPI   GL2 5652  13.549   8.014   9.889  0.0782 -0.2240  0.3586
  356POPI   C1A 5653  13.825   7.484   9.698 -0.1107  0.1382 -0.1508
  356POPI   D2A 5654  14.021   7.196   9.567 -0.0425 -0.0607 -0.2579
  356POPI   C3A 5655  14.158   7.016   9.251  0.1382 -0.1800 -0.1583
  356POPI   C4A 5656  14.069   7.013   8.845  0.0788 -0.1294 -0.1210
  356POPI   C1B 5657  13.506   7.847   9.473 -0.0946  0.2272 -0.3265
  356POPI   C2B 5658  13.724   7.841   9.083  0.4570 -0.0541  0.4706
  356POPI   C3B 5659  13.859   7.772   8.700  0.2204 -0.0085  0.0157
  356POPI   C4B 5660  13.875   7.538   8.290 -0.2024  0.2372 -0.1808
  357POPI    C1 5661   4.447   5.687  10.445 -0.0583  0.1959  0.1009
  357POPI    C2 5662   4.153   5.545  10.675 -0.0797  0.3560  0.1739
  357POPI    C3 5663   4.509   5.362  10.669 -0.2321  0.0586 -0.0471
  357POPI   PO4 5664   4.319   5.665  10.169  0.1335  0.0568 -0.0436
  357POPI   GL1 5665   4.448   5.810   9.880 -0.2196 -0.0271  0.1534
  357POPI   GL2 5666   4.589   5.486   9.728  0.0425 -0.0119 -0.2255
  357POPI   C1A 5667   4.179   5.859   9.622  0.0822 -0.3309 -0.0257
  357POPI   D2A 5668   3.788   6.061   9.462 -0.0069  0.0825  0.0184
  357POPI   C3A 5669   3.706   6.132   9.040 -0.1608 -0.1903  0.2443
  357POPI   C4A 5670   3.525   6.068   8.675  0.5379  0.3115  0.0066
  357POPI   C1B 5671   4.711   5.307   9.215  0.1054 -0.2253  0.0962
  357POPI   C2B 5672   4.770   5.289   8.749 -0.0807 -0.2533 -0.1979
  357POPI   C3B 5673   4.903   5.341   8.429  0.0774  0.1992  0.0426
  357POPI   C4B 5674   5.021   5.637   8.259 -0.0433  0.1174  0.2822
  358POPI    C1 5675   7.414  13.062  10.436 -0.0133  0.0865 -0.0950
  358POPI    C2 5676   7.430  12.878  10.791 -0.2232 -0.2044 -0.2322
  358POPI    C3 5677   7.767  12.955  10.591 -0.1153 -0.1912 -0.0477
  358POPI   PO4 5678   7.192  12.912  10.320 -0.1686 -0.1445 -0.1020
  358POPI   GL1 5679   7.123  12.697   9.912  0.0076  0.0406 -0.0103
  358POPI   GL2 5680   7.397  12.403   9.967 -0.0502  0.0563 -0.1799
  358POPI   C1A 5681   7.136  12.746   9.446  0.1937 -0.3988  0.2899
  358POPI   D2A 5682   7.167  12.803   9.072 -0.2441 -0.1529  0.3561
  358POPI   C3A 5683   7.214  12.758   8.571 -0.1811 -0.1467  0.0783
  358POPI   C4A 5684   7.308  12.927   8.118  0.4019 -0.0999  0.2036
  358POPI   C1B 5685   7.565  12.167   9.634 -0.3163 -0.4591  0.1564
  358POPI   C2B 5686   7.717  12.129   9.228 -0.0817  0.0376  0.2163
  358POPI   C3B 5687   7.543  12.338   8.831 -0.2200  0.2242 -0.1846
  358POPI   C4B 5688   7.393  12.254   8.430  0.1841 -0.0916 -0.3120
  359POPI    C1 5689  14.542   3.654  10.785  0.1102  0.0120  0.1249
  359POPI    C2 5690  14.907   3.594  10.936  0.0518 -0.0497  0.2434
  359POPI    C3 5691  14.647   3.827  11.131 -0.0744 -0.2484  0.3154
  359POPI   PO4 5692  14.648   3.456  10.515  0.0161  0.0369 -0.2077
  359POPI   GL1 5693  14.847   3.718  10.182 -0.0203  0.1012 -0.0992
  359POPI   GL2 5694  14.696   4.016  10.149  0.0351 -0.0091 -0.2974
  359POPI   C1A 5695  14.901   3.445   9.868 -0.0327  0.3156  0.0224
  359POPI   D2A 5696  14.816   3.318   9.548  0.0867 -0.6707  0.1260
  359POPI   C3A 5697  14.885   3.285   9.124  0.2806  0.3328 -0.1868
  359POPI   C4A 5698  14.942   3.296   8.705  0.0066  0.0201  0.1069
  359POPI   C1B 5699  15.062   3.977   9.811  0.1831 -0.2425  0.1174
  359POPI   C2B 5700  15.104   4.159   9.447 -0.1640  0.1296 -0.1371
  359POPI   C3B 5701  15.006   4.268   9.028  0.0081 -0.1201  0.4598
  359POPI   C4B 5702  14.969   4.484   8.596 -0.0549  0.0092 -0.0720
  360POPI    C1 5703  16.620   4.560  11.075 -0.1144  0.0535 -0.0610
  360POPI    C2 5704  16.516   4.901  11.256  0.3053  0.1151  0.0765
  360POPI    C3 5705  16.725   4.625  11.456  0.0711 -0.1748 -0.0707
  360POPI   PO4 5706  16.484   4.667  10.778  0.0246  0.2489 -0.1365
  360POPI   GL1 5707  16.469   4.473  10.371  0.0992 -0.2205  0.1326
  360POPI   GL2 5708  16.193   4.811  10.325  0.0453 -0.2511 -0.1928
  360POPI   C1A 5709  16.360   4.507   9.878 -0.2922  0.1035  0.2283
  360POPI   D2A 5710  16.360   4.543   9.473 -0.0473 -0.1867 -0.0573
  360POPI   C3A 5711  16.194   4.311   9.165  0.0042  0.1776 -0.0795
  360POPI   C4A 5712  16.156   4.462   8.860 -0.1151  0.3052  0.1383
  360POPI   C1B 5713  16.388   5.007  10.083 -0.0605  0.0958 -0.1145
  360POPI   C2B 5714  16.354   5.010   9.647  0.4566 -0.0070  0.1103
  360POPI   C3B 5715  16.378   4.943   9.110 -0.1408  0.1820 -0.0588
  360POPI   C4B 5716  16.348   4.993   8.758 -0.1764 -0.0694  0.0713
  361POPI    C1 5717   9.527   2.769  10.148  0.0665  0.1751  0.1017
  361POPI    C2 5718   9.460   3.050  10.425 -0.0239  0.0256  0.2335
  361POPI    C3 5719   9.345   2.673  10.491 -0.1986  0.0204 -0.0780
  361POPI   PO4 5720   9.513   2.855   9.872  0.0991  0.1411  0.1923
  361POPI   GL1 5721   9.797   2.799   9.511  0.1726 -0.0145 -0.1180
  361POPI   GL2 5722  10.091   2.825   9.547 -0.1366 -0.1491  0.0868
  361POPI   C1A 5723   9.713   2.838   9.064 -0.2929  0.4497 -0.1510
  361POPI   D2A 5724   9.683   2.855   8.684 -0.0303 -0.0955  0.2925
  361POPI   C3A 5725  10.063   2.905   8.449  0.0896  0.6020 -0.4112
  361POPI   C4A 5726  10.565   2.907   8.240  0.0728 -0.0641  0.0955
  361POPI   C1B 5727  10.185   2.844   9.099 -0.4016  0.0688  0.0088
  361POPI   C2B 5728  10.507   3.078   8.871  0.1306 -0.0411 -0.1368
  361POPI   C3B 5729  10.382   3.263   8.542  0.3959 -0.1888  0.3813
  361POPI   C4B 5730  10.129   3.651   8.374 -0.1912 -0.1247 -0.2645
  362POPI    C1 5731   5.434   8.467   9.972 -0.0740 -0.3038 -0.0587
  362POPI    C2 5732   5.759   8.698   9.939 -0.2879 -0.0447 -0.4264
  362POPI    C3 5733   5.652   8.554  10.297  0.1311  0.0069 -0.2742
  362POPI   PO4 5734   5.243   8.690   9.794 -0.3454 -0.0177 -0.1270
  362POPI   GL1 5735   5.475   8.627   9.469  0.2111 -0.1903 -0.1694
  362POPI   GL2 5736   5.160   8.348   9.481  0.1388 -0.1972  0.0181
  362POPI   C1A 5737   5.546   8.661   9.103 -0.4529 -0.0513 -0.3189
  362POPI   D2A 5738   5.491   8.746   8.666 -0.2122  0.3642  0.0324
  362POPI   C3A 5739   5.354   8.368   8.469 -0.0123  0.1606  0.1252
  362POPI   C4A 5740   5.124   8.074   8.423  0.1537 -0.0279 -0.1674
  362POPI   C1B 5741   5.167   8.400   8.987 -0.1359 -0.2073  0.0336
  362POPI   C2B 5742   4.890   8.438   8.676 -0.0696  0.1218  0.0096
  362POPI   C3B 5743   4.796   8.445   8.262  0.0568 -0.3128  0.1580
  362POPI   C4B 5744   4.805   8.689   7.875 -0.0054 -0.0388 -0.1480
  363POPI    C1 5745   0.078  16.520  10.696  0.0032 -0.2193  0.0383
  363POPI    C2 5746  -0.008  16.761  11.004  0.2015  0.0422 -0.1064
  363POPI    C3 5747  -0.282  16.503  10.870  0.1128 -0.0755  0.2865
  363POPI   PO4 5748   0.136  16.765  10.511 -0.1276 -0.1572  0.0557
  363POPI   GL1 5749  -0.028  16.833  10.037  0.2124 -0.3188 -0.2074
  363POPI   GL2 5750  -0.226  16.719   9.808 -0.1467  0.1691  0.1332
  363POPI   C1A 5751   0.178  17.007   9.581  0.1585 -0.0576  0.1001
  363POPI   D2A 5752   0.282  16.829   9.143  0.0263  0.2487  0.1580
  363POPI   C3A 5753   0.203  16.817   8.767  0.1741  0.2948 -0.0416
  363POPI   C4A 5754   0.117  16.805   8.418  0.2405 -0.0547  0.1082
  363POPI   C1B 5755  -0.305  16.636   9.394 -0.3988 -0.3045 -0.0863
  363POPI   C2B 5756  -0.240  16.579   8.938 -0.1034 -0.3694 -0.0470
  363POPI   C3B 5757  -0.274  16.584   8.505  0.1164 -0.0420 -0.1578
  363POPI   C4B 5758  -0.392  16.678   8.152  0.2086 -0.0390  0.1763
  364POPI    C1 5759  12.431  13.828  10.631  0.0668 -0.0188 -0.0262
  364POPI    C2 5760  12.194  13.642  10.895 -0.1560  0.0378 -0.1833
  364POPI    C3 5761  12.461  13.913  11.021 -0.0667 -0.1378  0.0106
  364POPI   PO4 5762  12.385  13.810  10.478  0.0262  0.1104 -0.0626
  364POPI   GL1 5763  12.394  13.444  10.209  0.0610 -0.0992 -0.0761
  364POPI   GL2 5764  12.067  13.671  10.065  0.3273 -0.0875  0.0322
  364POPI   C1A 5765  12.651  13.293   9.978  0.0452 -0.2210 -0.0167
  364POPI   D2A 5766  12.888  13.464   9.781  0.1019  0.2518  0.1483
  364POPI   C3A 5767  12.995  13.475   9.348  0.0446  0.2333 -0.3319
  364POPI   C4A 5768  12.947  13.489   8.998 -0.3479 -0.0931  0.0404
  364POPI   C1B 5769  11.843  13.463   9.772 -0.0329  0.0733 -0.0659
  364POPI   C2B 5770  11.778  13.324   9.357 -0.0774 -0.0652 -0.1198
  364POPI   C3B 5771  11.777  13.046   9.019  0.3915  0.1995 -0.1680
  364POPI   C4B 5772  11.868  12.972   8.575 -0.1782  0.0314 -0.1080
  365POPI    C1 5773  11.242   2.348  10.140  0.1086 -0.0635 -0.1546
  365POPI    C2 5774  11.589   2.546  10.120  0.0198  0.1124  0.0154
  365POPI    C3 5775  11.398   2.513  10.469 -0.1879  0.1085 -0.0972
  365POPI   PO4 5776  11.266   2.172   9.947  0.1113 -0.1269  0.0476
  365POPI   GL1 5777  11.008   1.969   9.672 -0.1372  0.2539 -0.2716
  365POPI   GL2 5778  10.910   1.704   9.750 -0.2183 -0.0294  0.0665
  365POPI   C1A 5779  11.267   2.034   9.306 -0.1743 -0.0848  0.1646
  365POPI   D2A 5780  11.224   1.939   8.846  0.0095  0.0965 -0.1647
  365POPI   C3A 5781  11.550   1.753   8.623 -0.0628  0.1546 -0.0227
  365POPI   C4A 5782  11.600   1.787   8.284  0.0167  0.4013  0.0017
  365POPI   C1B 5783  10.860   1.633   9.279 -0.3300 -0.2556  0.1663
  365POPI   C2B 5784  10.891   1.570   8.815 -0.0836 -0.3320 -0.4532
  365POPI   C3B 5785  11.089   1.596   8.509 -0.0739  0.3815  0.1812
  365POPI   C4B 5786  11.234   1.542   8.133 -0.2480  0.1793  0.1801
  366POPI    C1 5787  12.926  17.193  10.620  0.0440 -0.2248  0.1597
  366POPI    C2 5788  12.567  17.229  10.792  0.0383  0.0089  0.1022
  366POPI    C3 5789  12.892  17.171  11.018 -0.0210 -0.0939  0.1619
  366POPI   PO4 5790  12.880  17.225  10.327  0.0518 -0.0344  0.2974
  366POPI   GL1 5791  13.051  17.259   9.949 -0.0231 -0.0073 -0.0173
  366POPI   GL2 5792  13.286  17.493   9.942 -0.1576 -0.0748 -0.3716
  366POPI   C1A 5793  12.967  17.133   9.558  0.0071 -0.2341  0.0435
  366POPI   D2A 5794  13.215  17.002   9.234  0.2047 -0.1953 -0.0191
  366POPI   C3A 5795  13.333  16.835   8.912 -0.0163 -0.0483 -0.1845
  366POPI   C4A 5796  13.283  16.756   8.514  0.1746  0.0110  0.1395
  366POPI   C1B 5797  13.403  17.656   9.535 -0.3218  0.0474 -0.0796
  366POPI   C2B 5798  13.657  17.417   9.380  0.1240 -0.1844 -0.0637
  366POPI   C3B 5799  13.944  17.537   9.089 -0.1517 -0.1053  0.2084
  366POPI   C4B 5800  13.890  17.453   8.658 -0.0654  0.2795 -0.0221
  367POPI    C1 5801  14.338  14.304  10.606  0.1897 -0.2083  0.1677
  367POPI    C2 5802  14.192  14.557  10.879  0.1158 -0.0707  0.0024
  367POPI    C3 5803  14.551  14.389  10.934  0.1159 -0.0190  0.1677
  367POPI   PO4 5804  14.219  14.332  10.369 -0.1606 -0.0347  0.3030
  367POPI   GL1 5805  14.410  14.619  10.029 -0.2246 -0.0545 -0.0610
  367POPI   GL2 5806  14.678  14.494   9.939  0.2348 -0.1421  0.3328
  367POPI   C1A 5807  14.261  14.678   9.633 -0.1664 -0.0236  0.1967
  367POPI   D2A 5808  14.326  14.572   9.134  0.0403  0.0398 -0.2195
  367POPI   C3A 5809  14.305  14.655   8.704  0.0393 -0.1202  0.5392
  367POPI   C4A 5810  14.460  14.763   8.313  0.1834  0.3370 -0.1054
  367POPI   C1B 5811  14.560  14.257   9.610  0.0305  0.1591  0.1452
  367POPI   C2B 5812  14.659  14.197   9.228  0.2505  0.0073 -0.0881
  367POPI   C3B 5813  14.698  14.320   8.777 -0.2566  0.0280  0.0362
  367POPI   C4B 5814  14.874  14.424   8.437 -0.0876 -0.0584 -0.1853
  368POPI    C1 5815  12.168   8.126  10.733  0.0928 -0.0964 -0.1192
  368POPI    C2 5816  11.866   8.388  10.714 -0.1391 -0.3591 -0.1213
  368POPI    C3 5817  12.139   8.418  11.005 -0.1590 -0.1129 -0.1262
  368POPI   PO4 5818  12.227   8.131  10.486 -0.3781  0.0016  0.2990
  368POPI   GL1 5819  12.326   7.946  10.100 -0.1837 -0.4114  0.0979
  368POPI   GL2 5820  12.544   8.149   9.913 -0.3179 -0.2797  0.1395
  368POPI   C1A 5821  12.135   7.855   9.728  0.0538  0.0044 -0.0402
  368POPI   D2A 5822  12.198   7.742   9.278 -0.1947 -0.2386 -0.1233
  368POPI   C3A 5823  12.009   7.608   8.938 -0.0808 -0.2553  0.0720
  368POPI   C4A 5824  12.019   7.476   8.411  0.1320 -0.1144 -0.2104
  368POPI   C1B 5825  12.501   8.170   9.523 -0.0642 -0.0670 -0.0869
  368POPI   C2B 5826  12.490   8.124   9.098 -0.1120 -0.0174 -0.5559
  368POPI   C3B 5827  12.745   8.108   8.694  0.5298 -0.2001  0.2212
  368POPI   C4B 5828  13.025   8.045   8.453 -0.0394 -0.1326  0.1802
  369POPI    C1 5829   1.207  13.481  10.644 -0.1128  0.1193 -0.0401
  369POPI    C2 5830   1.489  13.735  10.770  0.0360 -0.0853  0.0438
  369POPI    C3 5831   1.393  13.416  10.992 -0.3662  0.0600  0.0871
  369POPI   PO4 5832   1.142  13.581  10.421  0.0283 -0.0166  0.1764
  369POPI   GL1 5833   0.789  13.525  10.092 -0.0632  0.1984 -0.1113
  369POPI   GL2 5834   1.103  13.410   9.932  0.1565  0.0101 -0.0461
  369POPI   C1A 5835   0.856  13.756   9.711 -0.0627 -0.1762 -0.0365
  369POPI   D2A 5836   1.038  13.813   9.263  0.1169  0.0514  0.0255
  369POPI   C3A 5837   0.779  13.728   8.953 -0.1142 -0.1975  0.3042
  369POPI   C4A 5838   0.574  13.905   8.571  0.3477  0.1376 -0.1703
  369POPI   C1B 5839   1.179  13.372   9.540 -0.3628  0.1668 -0.4558
  369POPI   C2B 5840   1.120  13.311   9.086  0.0522  0.0075  0.1407
  369POPI   C3B 5841   0.892  13.204   8.702  0.0803 -0.2785 -0.0789
  369POPI   C4B 5842   0.979  13.142   8.321  0.0696  0.0372  0.0381
  370POPI    C1 5843   2.983  14.118  10.737 -0.0990 -0.0903 -0.1077
  370POPI    C2 5844   3.066  13.741  10.842  0.1060 -0.0111  0.0214
  370POPI    C3 5845   3.107  14.037  11.108 -0.3703  0.0656  0.0197
  370POPI   PO4 5846   3.078  14.085  10.484 -0.0853 -0.4587 -0.0314
  370POPI   GL1 5847   2.803  14.010  10.126 -0.1451  0.1233 -0.3806
  370POPI   GL2 5848   2.584  14.195   9.970  0.0545 -0.3577  0.2544
  370POPI   C1A 5849   2.742  13.662   9.895  0.0257 -0.3475  0.2557
  370POPI   D2A 5850   2.429  13.710   9.651  0.2123  0.2951 -0.0531
  370POPI   C3A 5851   2.497  13.646   9.236 -0.2192 -0.0947 -0.3580
  370POPI   C4A 5852   2.580  13.816   8.933  0.0316  0.1692  0.0575
  370POPI   C1B 5853   2.418  14.416   9.638  0.2783  0.0065  0.1767
  370POPI   C2B 5854   2.223  14.629   9.381 -0.1023  0.0590  0.1603
  370POPI   C3B 5855   2.352  14.946   9.079 -0.1105 -0.0362 -0.2173
  370POPI   C4B 5856   2.332  14.965   8.664  0.2874  0.1638  0.0429
  371POPI    C1 5857  10.339   2.688  10.181  0.0005  0.3197  0.1455
  371POPI    C2 5858  10.285   2.293  10.147 -0.2177  0.3582  0.0274
  371POPI    C3 5859  10.350   2.456  10.507  0.1874  0.1785  0.0403
  371POPI   PO4 5860  10.376   2.725   9.949  0.1102 -0.1710 -0.2071
  371POPI   GL1 5861  10.530   2.557   9.644  0.2509 -0.0073 -0.0344
  371POPI   GL2 5862  10.769   2.440   9.876  0.1969  0.0176  0.2901
  371POPI   C1A 5863  10.565   2.563   9.179  0.0278 -0.0929 -0.0508
  371POPI   D2A 5864  10.499   2.621   8.749 -0.0895 -0.1915  0.1373
  371POPI   C3A 5865  10.334   2.311   8.351  0.2579 -0.1366 -0.0810
  371POPI   C4A 5866  10.137   2.165   7.948  0.0712  0.4824 -0.6197
  371POPI   C1B 5867  10.997   2.485   9.429 -0.0024 -0.0575  0.1397
  371POPI   C2B 5868  11.104   2.432   9.032  0.1197 -0.2380 -0.1081
  371POPI   C3B 5869  10.961   2.421   8.658 -0.0513  0.0674  0.1632
  371POPI   C4B 5870  10.825   2.390   8.273  0.0084  0.4305 -0.0870
  372POPI    C1 5871  14.797   4.473  10.714  0.3194  0.0777  0.1433
  372POPI    C2 5872  14.769   4.074  10.733  0.1554  0.0750 -0.1090
  372POPI    C3 5873  14.814   4.288  11.068  0.1343 -0.1473  0.0376
  372POPI   PO4 5874  14.686   4.472  10.424 -0.0327 -0.1375  0.3183
  372POPI   GL1 5875  14.461   4.380   9.946  0.1947 -0.2773 -0.0248
  372POPI   GL2 5876  14.175   4.614  10.158  0.2917  0.1435  0.2861
  372POPI   C1A 5877  14.565   4.230   9.523 -0.0303  0.0113  0.1182
  372POPI   D2A 5878  14.523   4.408   9.129 -0.0043  0.0612  0.0445
  372POPI   C3A 5879  14.551   4.262   8.785  0.1520 -0.2643  0.1312
  372POPI   C4A 5880  14.526   4.050   8.357  0.2812 -0.1423  0.1236
  372POPI   C1B 5881  14.010   4.465   9.727  0.0325  0.1280 -0.1687
  372POPI   C2B 5882  13.971   4.359   9.317 -0.2771 -0.2559  0.2699
  372POPI   C3B 5883  14.102   4.456   8.889  0.1873  0.0466 -0.1337
  372POPI   C4B 5884  14.067   4.236   8.457  0.1692 -0.0053 -0.4366
  373POPI    C1 5885   1.583  14.663  10.399  0.1619 -0.1261  0.1781
  373POPI    C2 5886   1.332  14.369  10.295  0.2485 -0.0888 -0.1469
  373POPI    C3 5887   1.280  14.564  10.640 -0.2546  0.0114 -0.2723
  373POPI   PO4 5888   1.782  14.652  10.268 -0.1471 -0.0598 -0.1442
  373POPI   GL1 5889   1.923  14.684   9.903 -0.3683 -0.0349 -0.1142
  373POPI   GL2 5890   1.969  15.039  10.023  0.0143 -0.1381 -0.2463
  373POPI   C1A 5891   1.801  14.976   9.490  0.2206  0.0446 -0.0552
  373POPI   D2A 5892   1.805  14.918   9.079  0.2694 -0.2204  0.1565
  373POPI   C3A 5893   1.850  15.241   8.670  0.1384 -0.2180 -0.1576
  373POPI   C4A 5894   2.058  15.422   8.245 -0.1995 -0.0067 -0.0084
  373POPI   C1B 5895   2.273  15.097   9.691  0.1856  0.0079 -0.1402
  373POPI   C2B 5896   2.660  15.277   9.356 -0.0051 -0.1996 -0.1010
  373POPI   C3B 5897   2.790  15.176   8.925  0.0666 -0.1488  0.1514
  373POPI   C4B 5898   2.913  14.891   8.496  0.0856 -0.1402 -0.1318
  374POPI    C1 5899  14.445  11.563  10.516 -0.1568 -0.0862 -0.0245
  374POPI    C2 5900  14.473  11.824  10.818 -0.0457  0.0320 -0.1354
  374POPI    C3 5901  14.324  11.459  10.883  0.1076  0.0079  0.0923
  374POPI   PO4 5902  14.731  11.681  10.428  0.1028 -0.2200  0.1671
  374POPI   GL1 5903  14.698  11.914  10.047  0.0793  0.2102 -0.1037
  374POPI   GL2 5904  15.003  11.832   9.898  0.1459  0.1769  0.0287
  374POPI   C1A 5905  14.506  11.972   9.619  0.1032 -0.2724 -0.1248
  374POPI   D2A 5906  14.503  12.064   9.175 -0.2971  0.1107 -0.2542
  374POPI   C3A 5907  14.550  12.410   8.956 -0.1794  0.0220  0.0398
  374POPI   C4A 5908  14.549  12.844   8.966 -0.2278 -0.0754  0.0306
  374POPI   C1B 5909  14.959  11.842   9.411 -0.0781 -0.1558 -0.0020
  374POPI   C2B 5910  14.891  11.847   8.969  0.1458  0.2520  0.2721
  374POPI   C3B 5911  14.750  12.055   8.620 -0.0580  0.0934  0.1839
  374POPI   C4B 5912  14.476  11.952   8.274  0.0309 -0.3135  0.0852
  375POPI    C1 5913  14.566   5.934  10.949  0.0347  0.0655  0.0290
  375POPI    C2 5914  14.289   6.145  10.751  0.0735 -0.1265 -0.2358
  375POPI    C3 5915  14.177   5.856  11.004  0.0177  0.2566  0.1898
  375POPI   PO4 5916  14.678   5.829  10.811  0.0774 -0.0451  0.2691
  375POPI   GL1 5917  14.734   5.880  10.383  0.0014  0.0439  0.0930
  375POPI   GL2 5918  14.496   6.163  10.217 -0.0703 -0.0361 -0.0420
  375POPI   C1A 5919  14.655   5.538  10.174 -0.0382 -0.4164  0.1835
  375POPI   D2A 5920  14.930   5.287  10.000 -0.0055 -0.0213 -0.0220
  375POPI   C3A 5921  14.989   5.455   9.571  0.1910 -0.4890  0.3631
  375POPI   C4A 5922  15.096   5.461   9.144 -0.1354  0.0319  0.2081
  375POPI   C1B 5923  14.630   5.993   9.876  0.4034  0.3301  0.1321
  375POPI   C2B 5924  14.813   6.044   9.473  0.1607  0.2105  0.0131
  375POPI   C3B 5925  14.767   5.917   9.050  0.2400 -0.0297  0.0294
  375POPI   C4B 5926  14.476   5.783   8.911 -0.0779 -0.0698 -0.1087
  376POPI    C1 5927   6.606   5.844   9.983 -0.0255  0.1432 -0.1376
  376POPI    C2 5928   6.608   6.244   9.973 -0.0756  0.1397 -0.3337
  376POPI    C3 5929   6.271   6.047  10.063 -0.0253  0.1421 -0.1338
  376POPI   PO4 5930   6.755   5.768   9.824 -0.2659  0.1436 -0.1148
  376POPI   GL1 5931   6.821   5.813   9.399  0.0209 -0.1387  0.1583
  376POPI   GL2 5932   6.841   6.144   9.514  0.0289 -0.1247 -0.0879
  376POPI   C1A 5933   6.548   5.661   9.091  0.2713 -0.4485  0.1459
  376POPI   D2A 5934   6.534   5.715   8.748  0.4714 -0.0796  0.2126
  376POPI   C3A 5935   6.341   5.530   8.310 -0.1072  0.0658 -0.0519
  376POPI   C4A 5936   6.280   5.380   7.903  0.2426  0.2157  0.2538
  376POPI   C1B 5937   6.973   6.523   9.222  0.2530 -0.1803 -0.0349
  376POPI   C2B 5938   7.060   6.631   8.868 -0.0239  0.0424  0.0680
  376POPI   C3B 5939   6.815   6.617   8.515  0.0217  0.4161  0.0469
  376POPI   C4B 5940   6.618   6.880   8.237 -0.2307  0.0283  0.2967
  377POPI    C1 5941  10.171   7.403  10.415  0.2220 -0.1094 -0.1288
  377POPI    C2 5942  10.564   7.477  10.416  0.2087 -0.0348  0.0597
  377POPI    C3 5943  10.361   7.472  10.761  0.1055 -0.4056 -0.0020
  377POPI   PO4 5944  10.098   7.533  10.190  0.0581  0.0836  0.0985
  377POPI   GL1 5945  10.092   7.480   9.719 -0.3340  0.0507  0.1412
  377POPI   GL2 5946  10.142   7.850   9.546  0.1072 -0.0003 -0.3485
  377POPI   C1A 5947  10.213   7.382   9.331  0.1366  0.0814  0.0824
  377POPI   D2A 5948  10.227   7.406   8.907 -0.1599  0.1900 -0.0893
  377POPI   C3A 5949  10.459   7.776   8.845  0.0930  0.1046 -0.1007
  377POPI   C4A 5950  10.524   7.981   8.539  0.0903 -0.1451  0.1438
  377POPI   C1B 5951  10.511   7.898   9.374 -0.2077 -0.2762  0.3199
  377POPI   C2B 5952  10.797   7.625   9.137  0.2819 -0.2420  0.0073
  377POPI   C3B 5953  10.982   7.564   8.703  0.3441  0.1280 -0.0415
  377POPI   C4B 5954  11.105   7.454   8.338 -0.0609 -0.0948 -0.0631
  378POPI    C1 5955   5.804   2.550  10.843 -0.0338  0.0338 -0.1134
  378POPI    C2 5956   6.090   2.533  10.563  0.2300  0.0326  0.1513
  378POPI    C3 5957   6.189   2.550  10.950 -0.1294  0.1434  0.2428
  378POPI   PO4 5958   5.598   2.489  10.676 -0.2620 -0.0659 -0.0827
  378POPI   GL1 5959   5.718   2.333  10.255  0.1364 -0.3272 -0.0485
  378POPI   GL2 5960   5.430   1.959  10.335 -0.2872  0.0872 -0.0622
  378POPI   C1A 5961   5.380   2.319   9.912  0.1862  0.1511 -0.1427
  378POPI   D2A 5962   5.406   2.010   9.612  0.0857 -0.2326 -0.0912
  378POPI   C3A 5963   5.572   1.706   9.478  0.1721  0.0195 -0.1750
  378POPI   C4A 5964   5.862   1.301   9.590 -0.1282 -0.1302  0.1044
  378POPI   C1B 5965   5.711   1.903  10.010  0.0847  0.0290 -0.0810
  378POPI   C2B 5966   5.999   1.911   9.579  0.3318 -0.1625  0.2003
  378POPI   C3B 5967   5.913   2.010   9.167 -0.1702 -0.1313 -0.2429
  378POPI   C4B 5968   5.876   1.908   8.683 -0.1064 -0.1629  0.0460
  379POPI    C1 5969   5.550   4.412  10.290  0.0020  0.0977  0.1157
  379POPI    C2 5970   5.304   4.272  10.572 -0.2054  0.0484 -0.0861
  379POPI    C3 5971   5.545   4.581  10.652 -0.3023  0.0709  0.1268
  379POPI   PO4 5972   5.385   4.358  10.060 -0.0774 -0.0470  0.1013
  379POPI   GL1 5973   5.497   4.447   9.674  0.1919  0.1188  0.2648
  379POPI   GL2 5974   5.341   4.588   9.531  0.3639 -0.1115 -0.1170
  379POPI   C1A 5975   5.552   4.146   9.416 -0.2485 -0.0034  0.2904
  379POPI   D2A 5976   5.359   4.017   9.071 -0.1515 -0.1076  0.0502
  379POPI   C3A 5977   5.392   3.988   8.682 -0.2507  0.0614 -0.2060
  379POPI   C4A 5978   5.677   3.808   8.279  0.0486 -0.1530  0.0061
  379POPI   C1B 5979   5.245   4.476   9.195 -0.0666  0.0281 -0.0710
  379POPI   C2B 5980   5.253   4.519   8.809  0.1153 -0.1694  0.0630
  379POPI   C3B 5981   5.299   4.449   8.417  0.3001  0.1399 -0.0505
  379POPI   C4B 5982   5.162   4.421   7.955  0.2059 -0.2845 -0.1635
  380POPI    C1 5983   6.147  16.301  10.906  0.0752 -0.0651  0.0513
  380POPI    C2 5984   6.499  16.121  10.965 -0.0680 -0.4421 -0.2016
  380POPI    C3 5985   6.261  16.203  11.276  0.1951 -0.2762 -0.0398
  380POPI   PO4 5986   6.162  16.362  10.627  0.0036  0.0848  0.1014
  380POPI   GL1 5987   6.430  16.337  10.387 -0.2704  0.2148 -0.0004
  380POPI   GL2 5988   6.683  16.276  10.194 -0.0061 -0.0113  0.0292
  380POPI   C1A 5989   6.141  16.405   9.952 -0.1310  0.2995 -0.1639
  380POPI   D2A 5990   5.957  16.531   9.561 -0.1774 -0.0000 -0.2773
  380POPI   C3A 5991   6.126  16.471   9.042  0.0036 -0.1665  0.2493
  380POPI   C4A 5992   6.186  16.469   8.551  0.0132  0.1915  0.0082
  380POPI   C1B 5993   7.058  16.365   9.931  0.0510 -0.1046  0.1270
  380POPI   C2B 5994   7.171  16.365   9.634  0.0052  0.0489 -0.3171
  380POPI   C3B 5995   7.091  16.330   9.238 -0.0361  0.3004  0.1544
  380POPI   C4B 5996   7.099  16.393   8.821 -0.1880 -0.3940  0.1339
  381POPI    C1 5997  11.406  12.259  10.584 -0.2157 -0.1076 -0.0417
  381POPI    C2 5998  11.604  11.979  10.788 -0.2317 -0.2461 -0.2140
  381POPI    C3 5999  11.389  12.253  10.983 -0.2248 -0.3597 -0.0442
  381POPI   PO4 6000  11.306  12.138  10.403 -0.1730  0.2121  0.3800
  381POPI   GL1 6001  11.322  12.082   9.953  0.0925  0.2854 -0.0484
  381POPI   GL2 6002  11.496  12.406   9.958 -0.0410  0.1293  0.0251
  381POPI   C1A 6003  11.130  12.112   9.529 -0.0138  0.0274 -0.2127
  381POPI   D2A 6004  11.298  12.132   9.007 -0.0036 -0.0869  0.0812
  381POPI   C3A 6005  11.028  12.164   8.612 -0.3631  0.1644  0.0913
  381POPI   C4A 6006  10.762  11.951   8.328  0.3042 -0.0086  0.3711
  381POPI   C1B 6007  11.783  12.532   9.756  0.3294 -0.0240  0.1869
  381POPI   C2B 6008  11.887  12.623   9.371  0.0730 -0.2460 -0.0900
  381POPI   C3B 6009  11.624  12.557   8.998 -0.2505 -0.1842 -0.0934
  381POPI   C4B 6010  11.436  12.463   8.633 -0.0694 -0.1859  0.0929
  382POPI    C1 6011   8.586   5.177   9.733  0.1901  0.1749 -0.0800
  382POPI    C2 6012   8.361   5.389   9.986 -0.0385 -0.2839  0.1138
  382POPI    C3 6013   8.680   5.189  10.122  0.1989 -0.0399 -0.0741
  382POPI   PO4 6014   8.678   5.302   9.575  0.0715  0.0289  0.1355
  382POPI   GL1 6015   8.819   5.562   9.346  0.4441  0.1298 -0.0887
  382POPI   GL2 6016   8.846   5.803   9.311 -0.0592  0.2093  0.1229
  382POPI   C1A 6017   8.765   5.458   8.969  0.0193 -0.1461  0.1178
  382POPI   D2A 6018   8.767   5.569   8.608 -0.1280  0.2670  0.1857
  382POPI   C3A 6019   8.932   5.632   8.242  0.1091 -0.1808  0.1669
  382POPI   C4A 6020   9.024   5.569   7.793 -0.0879 -0.3063  0.1673
  382POPI   C1B 6021   8.890   5.947   8.860 -0.0080 -0.0571  0.0369
  382POPI   C2B 6022   8.757   6.119   8.537 -0.2840 -0.2315 -0.0897
  382POPI   C3B 6023   8.774   6.148   8.098 -0.1326 -0.1433 -0.0041
  382POPI   C4B 6024   8.531   5.830   7.763  0.0921  0.3020  0.1252
  383POPI    C1 6025  15.382  12.860  10.736  0.0683 -0.0302 -0.2120
  383POPI    C2 6026  15.715  12.642  10.773 -0.0662 -0.2463 -0.2543
  383POPI    C3 6027  15.445  12.647  11.069  0.0383  0.0409 -0.1606
  383POPI   PO4 6028  15.461  13.071  10.668  0.0485 -0.2325  0.0441
  383POPI   GL1 6029  15.441  13.275  10.109  0.1732 -0.2161 -0.0051
  383POPI   GL2 6030  15.191  13.568  10.130  0.3233  0.1197 -0.0452
  383POPI   C1A 6031  15.507  13.231   9.659 -0.3291 -0.4184 -0.1827
  383POPI   D2A 6032  15.501  13.417   9.232 -0.1964 -0.1114 -0.1067
  383POPI   C3A 6033  15.342  13.466   8.808  0.1164  0.0798 -0.3391
  383POPI   C4A 6034  15.399  13.342   8.378 -0.2067 -0.1458 -0.1374
  383POPI   C1B 6035  15.576  13.707   9.904  0.1538 -0.2975  0.4136
  383POPI   C2B 6036  15.708  13.879   9.493 -0.1683  0.1375  0.2331
  383POPI   C3B 6037  15.734  13.833   9.083 -0.0891  0.0229 -0.1622
  383POPI   C4B 6038  15.752  13.688   8.626  0.2034 -0.0005 -0.1204
  384POPI    C1 6039  12.988   2.547  10.855  0.0304 -0.0864  0.0788
  384POPI    C2 6040  12.632   2.532  11.038  0.0885 -0.1106  0.1909
  384POPI    C3 6041  12.843   2.872  11.038  0.0818 -0.1063  0.1553
  384POPI   PO4 6042  13.040   2.311  10.664 -0.0935  0.1132 -0.1160
  384POPI   GL1 6043  13.043   2.097  10.209  0.1999  0.1889 -0.0075
  384POPI   GL2 6044  12.955   2.428  10.163  0.0430 -0.4239 -0.1063
  384POPI   C1A 6045  12.868   2.023   9.709 -0.0011 -0.1704 -0.0834
  384POPI   D2A 6046  12.979   2.012   9.313  0.2617  0.3249 -0.1953
  384POPI   C3A 6047  12.929   1.927   8.814 -0.0561  0.0026  0.2129
  384POPI   C4A 6048  13.060   2.185   8.344  0.2444 -0.5173 -0.0772
  384POPI   C1B 6049  12.962   2.492   9.612 -0.1320  0.2141 -0.1679
  384POPI   C2B 6050  12.998   2.460   9.138  0.3471  0.0975 -0.3445
  384POPI   C3B 6051  13.071   2.557   8.669 -0.3817  0.2416  0.4269
  384POPI   C4B 6052  13.053   2.710   8.256 -0.1722 -0.1373 -0.0721
  385POPI    C1 6053   9.789   6.035  10.369 -0.0579  0.0019  0.0571
  385POPI    C2 6054   9.574   6.367  10.308  0.1332  0.1032 -0.0776
  385POPI    C3 6055   9.864   6.364  10.584  0.1266  0.0453 -0.0711
  385POPI   PO4 6056   9.832   5.992  10.171  0.1055  0.0445 -0.0878
  385POPI   GL1 6057   9.900   5.875   9.704 -0.0744  0.0073 -0.1607
  385POPI   GL2 6058   9.830   5.574   9.559  0.0534  0.2072  0.2634
  385POPI   C1A 6059   9.791   5.957   9.260 -0.0371 -0.1240  0.0393
  385POPI   D2A 6060   9.859   5.978   8.892 -0.0331 -0.1327 -0.0848
  385POPI   C3A 6061   9.715   5.973   8.498  0.3843 -0.0395 -0.0052
  385POPI   C4A 6062   9.746   5.967   8.034 -0.1339  0.0607 -0.2373
  385POPI   C1B 6063   9.876   5.501   9.186 -0.0640  0.0210 -0.0197
  385POPI   C2B 6064   9.913   5.535   8.717 -0.2193  0.1667  0.1093
  385POPI   C3B 6065   9.932   5.521   8.260 -0.0334  0.1211 -0.0414
  385POPI   C4B 6066  10.255   5.546   7.973 -0.0761  0.0080  0.5417
  386POPI    C1 6067   3.481  10.671  10.281  0.0740 -0.0715  0.0152
  386POPI    C2 6068   3.675  10.520  10.597 -0.0747 -0.0059  0.1394
  386POPI    C3 6069   3.340  10.345  10.465  0.0531 -0.1051 -0.0598
  386POPI   PO4 6070   3.665  10.605  10.064  0.0445 -0.1044  0.1191
  386POPI   GL1 6071   3.930  10.754   9.774  0.0704 -0.1856  0.2652
  386POPI   GL2 6072   4.057  10.997   9.632 -0.1470 -0.0553  0.2904
  386POPI   C1A 6073   3.671  10.790   9.404  0.2570  0.2899 -0.1396
  386POPI   D2A 6074   3.325  10.929   9.110  0.0539 -0.1131  0.1385
  386POPI   C3A 6075   3.344  11.017   8.762  0.0011  0.3585 -0.0996
  386POPI   C4A 6076   3.370  10.898   8.404 -0.1988 -0.2784 -0.1224
  386POPI   C1B 6077   4.288  11.054   9.133  0.1916 -0.1734 -0.1968
  386POPI   C2B 6078   4.401  11.201   8.670 -0.0229 -0.0705 -0.0914
  386POPI   C3B 6079   4.268  11.278   8.287  0.3045 -0.0489  0.1983
  386POPI   C4B 6080   4.352  11.275   7.865  0.1462  0.0858  0.2275
  387POPI    C1 6081  10.800  16.122  10.581  0.1235 -0.2065 -0.1616
  387POPI    C2 6082  10.709  15.869  10.877 -0.0295 -0.0558 -0.0783
  387POPI    C3 6083  10.935  15.746  10.571  0.0158 -0.2515  0.0325
  387POPI   PO4 6084  10.557  16.312  10.481  0.1393 -0.2063  0.1608
  387POPI   GL1 6085  10.226  16.586  10.203 -0.0629 -0.1275 -0.0641
  387POPI   GL2 6086  10.128  16.891  10.088 -0.0378 -0.2685  0.1154
  387POPI   C1A 6087  10.281  16.583   9.662  0.2371  0.4481 -0.1984
  387POPI   D2A 6088  10.277  16.540   9.282  0.2992 -0.1019 -0.1431
  387POPI   C3A 6089  10.422  16.486   8.887 -0.0211  0.0560 -0.3343
  387POPI   C4A 6090  10.435  16.547   8.523 -0.0227  0.2530 -0.1076
  387POPI   C1B 6091   9.946  16.926   9.700 -0.2711  0.3070  0.0553
  387POPI   C2B 6092   9.951  16.931   9.357 -0.1020  0.2700  0.1776
  387POPI   C3B 6093  10.026  16.835   8.943 -0.2589  0.0560  0.1305
  387POPI   C4B 6094  10.097  16.886   8.470  0.0495  0.2528 -0.0158
  388POPI    C1 6095   0.021   0.702  10.549 -0.1279  0.0091  0.1127
  388POPI    C2 6096  -0.067   0.673  10.938 -0.0249 -0.0306  0.1333
  388POPI    C3 6097   0.314   0.711  10.821 -0.0709  0.1792  0.0472
  388POPI   PO4 6098  -0.050   0.605  10.379  0.0274  0.0064 -0.1298
  388POPI   GL1 6099  -0.242   0.413   9.965  0.1394 -0.2241  0.0404
  388POPI   GL2 6100  -0.090   0.301   9.763  0.0618  0.1346 -0.2018
  388POPI   C1A 6101  -0.489   0.597   9.679  0.0474  0.2910  0.0130
  388POPI   D2A 6102  -0.556   0.640   9.283  0.1112 -0.0334  0.0241
  388POPI   C3A 6103  -0.554   0.350   8.930  0.0463  0.1469 -0.2110
  388POPI   C4A 6104  -0.432   0.205   8.498 -0.2215  0.2024 -0.1443
  388POPI   C1B 6105  -0.153   0.373   9.226  0.2224 -0.0700 -0.3215
  388POPI   C2B 6106  -0.107   0.502   8.748  0.1163 -0.5204 -0.1700
  388POPI   C3B 6107   0.068   0.502   8.357 -0.0038  0.1008 -0.0322
  388POPI   C4B 6108   0.240   0.297   8.130 -0.0927 -0.0062  0.0206
  389POPI    C1 6109   4.857   5.868  10.184 -0.0163  0.0761  0.1126
  389POPI    C2 6110   4.916   5.773  10.568  0.1613  0.1678  0.1088
  389POPI    C3 6111   4.833   6.151  10.466  0.0796  0.1370  0.0601
  389POPI   PO4 6112   5.016   5.715  10.063  0.2794 -0.4902  0.1567
  389POPI   GL1 6113   5.325   5.790   9.737  0.2105  0.1977  0.2150
  389POPI   GL2 6114   5.212   5.547   9.634 -0.2058  0.3812  0.1161
  389POPI   C1A 6115   5.321   5.931   9.252 -0.0742  0.0038  0.2237
  389POPI   D2A 6116   5.192   6.073   8.825 -0.3004 -0.1937  0.1556
  389POPI   C3A 6117   5.439   6.085   8.511 -0.1081  0.3345 -0.2768
  389POPI   C4A 6118   5.454   5.913   8.126 -0.2396  0.0336  0.5544
  389POPI   C1B 6119   5.158   5.459   9.191 -0.1357  0.2210  0.2122
  389POPI   C2B 6120   5.187   5.542   8.715 -0.2666 -0.2628 -0.1146
  389POPI   C3B 6121   5.377   5.377   8.375 -0.1657  0.0944 -0.0750
  389POPI   C4B 6122   5.525   5.356   7.973  0.0110  0.1638 -0.0298
  390POPI    C1 6123   3.113  17.875  10.748 -0.2505  0.0741  0.0193
  390POPI    C2 6124   3.115  17.476  10.769  0.2244  0.0635 -0.1047
  390POPI    C3 6125   2.985  17.691  11.079  0.1968 -0.1832  0.0581
  390POPI   PO4 6126   3.118  17.882  10.428  0.1374  0.2677 -0.2739
  390POPI   GL1 6127   3.181  18.031   9.982  0.3804 -0.0903 -0.0936
  390POPI   GL2 6128   2.920  18.261  10.056  0.1547  0.0286  0.1414
  390POPI   C1A 6129   3.097  18.119   9.577  0.1401 -0.0894  0.0339
  390POPI   D2A 6130   3.159  18.107   9.139  0.1314 -0.1075  0.2946
  390POPI   C3A 6131   3.208  17.705   8.842 -0.1055  0.0265  0.1257
  390POPI   C4A 6132   3.073  17.350   8.476 -0.1218 -0.0520  0.1678
  390POPI   C1B 6133   2.724  17.863   9.965  0.4395  0.2133 -0.0055
  390POPI   C2B 6134   2.930  17.623   9.748  0.0106  0.0914 -0.1801
  390POPI   C3B 6135   3.379  17.455   9.688  0.0245 -0.0244 -0.0938
  390POPI   C4B 6136   3.589  17.216   9.357  0.1099 -0.1881 -0.0688
  391POPI    C1 6137  17.302  12.183  11.016  0.0426  0.0491 -0.0126
  391POPI    C2 6138  17.203  12.433  11.312  0.1638  0.1089 -0.0216
  391POPI    C3 6139  17.319  12.059  11.397 -0.1887 -0.0041 -0.0182
  391POPI   PO4 6140  17.126  12.337  10.801  0.1543 -0.0573 -0.0982
  391POPI   GL1 6141  16.913  12.479  10.399 -0.0808 -0.2061  0.1146
  391POPI   GL2 6142  16.827  12.168  10.302 -0.2541 -0.1859  0.2874
  391POPI   C1A 6143  17.003  12.612   9.942 -0.1705 -0.0358 -0.2308
  391POPI   D2A 6144  16.938  12.732   9.555 -0.1107 -0.0735 -0.2023
  391POPI   C3A 6145  16.580  12.738   9.298 -0.0192  0.3391  0.0829
  391POPI   C4A 6146  16.526  12.667   8.860  0.1783 -0.2165 -0.0819
  391POPI   C1B 6147  16.713  12.250   9.969  0.0268 -0.1258 -0.1117
  391POPI   C2B 6148  16.863  12.251   9.588  0.1602  0.2094 -0.0373
  391POPI   C3B 6149  16.843  12.318   9.156  0.0194  0.1043  0.0992
  391POPI   C4B 6150  16.901  12.189   8.663  0.1941  0.2188 -0.2973
  392POPI    C1 6151   9.791   1.015  10.307  0.1723 -0.0947 -0.0887
  392POPI    C2 6152  10.142   0.974  10.119  0.1458  0.1459 -0.1940
  392POPI    C3 6153  10.065   1.305  10.330  0.0357  0.0324 -0.0535
  392POPI   PO4 6154   9.659   0.885  10.233  0.5094 -0.2530 -0.0860
  392POPI   GL1 6155   9.519   0.745   9.877 -0.1651 -0.1230 -0.0899
  392POPI   GL2 6156   9.483   0.489   9.999 -0.3418  0.1124 -0.2519
  392POPI   C1A 6157   9.408   0.660   9.473  0.0128 -0.0319  0.3197
  392POPI   D2A 6158   9.075   0.629   9.041 -0.0755  0.1555 -0.0338
  392POPI   C3A 6159   8.967   1.043   8.859  0.2018  0.1460  0.2449
  392POPI   C4A 6160   9.069   1.174   8.401  0.0550  0.0326 -0.2551
  392POPI   C1B 6161   9.177   0.318   9.664  0.1532 -0.0181 -0.0957
  392POPI   C2B 6162   9.227   0.247   9.326  0.2573 -0.2100 -0.1814
  392POPI   C3B 6163   9.360   0.250   8.889 -0.1275  0.1901  0.1685
  392POPI   C4B 6164   8.989   0.185   8.546  0.4002  0.1395  0.0035
  393POPI    C1 6165   9.542   5.257   9.873  0.0578 -0.2128  0.1071
  393POPI    C2 6166   9.682   5.135  10.227 -0.2123 -0.5370  0.1073
  393POPI    C3 6167   9.309   5.276  10.198 -0.0139 -0.0039  0.0448
  393POPI   PO4 6168   9.569   5.076   9.727 -0.0630  0.0093  0.0095
  393POPI   GL1 6169   9.514   5.179   9.329 -0.3103  0.0371  0.1600
  393POPI   GL2 6170   9.249   5.225   9.268 -0.0759  0.1939  0.1736
  393POPI   C1A 6171   9.622   5.110   8.875 -0.0396 -0.0697  0.0702
  393POPI   D2A 6172   9.686   5.143   8.472 -0.2837  0.1277  0.0793
  393POPI   C3A 6173   9.620   5.062   8.030 -0.1352  0.2416  0.1935
  393POPI   C4A 6174   9.744   4.802   7.847 -0.0019 -0.0224  0.0339
  393POPI   C1B 6175   9.120   5.159   8.863 -0.0835  0.3596  0.1111
  393POPI   C2B 6176   9.036   5.184   8.484 -0.2038 -0.2525 -0.1896
  393POPI   C3B 6177   9.076   5.127   8.051  0.0113 -0.2488 -0.0643
  393POPI   C4B 6178   9.070   4.991   7.650 -0.0485 -0.0683 -0.1367
  394POPI    C1 6179  13.813   6.803  10.589  0.0905 -0.0921 -0.1431
  394POPI    C2 6180  13.442   6.951  10.598  0.1165 -0.0229 -0.1929
  394POPI    C3 6181  13.663   6.946  10.931  0.1540  0.1500 -0.2144
  394POPI   PO4 6182  14.015   6.903  10.376 -0.0017  0.0782  0.0766
  394POPI   GL1 6183  14.179   7.189  10.022 -0.1008  0.1940 -0.2885
  394POPI   GL2 6184  14.386   6.986   9.755 -0.2738 -0.1099 -0.1146
  394POPI   C1A 6185  14.283   7.592   9.775 -0.1929  0.0770 -0.1575
  394POPI   D2A 6186  14.322   8.066   9.850 -0.2250  0.2646 -0.3902
  394POPI   C3A 6187  14.405   8.179   9.347  0.2028  0.2700  0.0007
  394POPI   C4A 6188  14.400   7.995   8.965 -0.4088  0.0061 -0.1716
  394POPI   C1B 6189  14.565   6.759   9.408 -0.0491  0.1795 -0.2826
  394POPI   C2B 6190  14.532   6.384   9.147 -0.0577  0.2403 -0.0580
  394POPI   C3B 6191  14.509   6.252   8.772  0.0107 -0.1041 -0.1595
  394POPI   C4B 6192  14.674   6.031   8.501  0.1200 -0.1172 -0.0200
  395POPI    C1 6193   2.435  11.170   9.884 -0.1061  0.0361  0.0310
  395POPI    C2 6194   2.616  11.411  10.147  0.1524  0.1247 -0.2232
  395POPI    C3 6195   2.525  11.035  10.250  0.2304  0.1651 -0.0009
  395POPI   PO4 6196   2.582  11.196   9.606 -0.2129  0.3184 -0.2333
  395POPI   GL1 6197   2.936  11.112   9.484 -0.0080  0.1937 -0.0775
  395POPI   GL2 6198   3.179  11.306   9.456  0.0041 -0.3833  0.1301
  395POPI   C1A 6199   2.872  11.163   9.046 -0.0317 -0.0306  0.2734
  395POPI   D2A 6200   2.785  11.244   8.688 -0.0043  0.0090  0.0761
  395POPI   C3A 6201   3.029  11.208   8.326  0.0152 -0.4658 -0.3043
  395POPI   C4A 6202   3.326  11.331   8.006 -0.1053  0.1288 -0.0652
  395POPI   C1B 6203   3.288  11.418   9.062 -0.4248  0.0430  0.1306
  395POPI   C2B 6204   3.306  11.487   8.650 -0.4099  0.0457 -0.2608
  395POPI   C3B 6205   3.378  11.727   8.281  0.1287  0.2532  0.0491
  395POPI   C4B 6206   3.533  11.684   7.755 -0.1340  0.2994  0.1832
  396POPI    C1 6207   7.608  15.089  10.666 -0.1766 -0.1367  0.1285
  396POPI    C2 6208   7.925  15.098  10.910 -0.0723 -0.1303 -0.0055
  396POPI    C3 6209   7.560  15.179  11.053  0.0164  0.0893  0.1029
  396POPI   PO4 6210   7.701  15.136  10.457 -0.0123  0.1292 -0.0556
  396POPI   GL1 6211   7.861  14.967  10.062  0.1021 -0.4165 -0.1383
  396POPI   GL2 6212   7.848  14.858   9.854  0.0420 -0.0903 -0.1908
  396POPI   C1A 6213   7.916  15.362   9.870  0.1437  0.1885 -0.2470
  396POPI   D2A 6214   7.953  15.698   9.539  0.2800 -0.2765  0.1503
  396POPI   C3A 6215   7.682  15.661   9.177  0.0023  0.0237 -0.1785
  396POPI   C4A 6216   7.437  15.225   9.133 -0.4466 -0.1418  0.1250
  396POPI   C1B 6217   7.567  14.675   9.483 -0.2219  0.3355 -0.3381
  396POPI   C2B 6218   7.490  14.714   9.064 -0.1330 -0.0349 -0.3227
  396POPI   C3B 6219   7.582  14.937   8.765 -0.0151 -0.0211  0.0016
  396POPI   C4B 6220   7.546  14.924   8.378  0.2192 -0.0158  0.2884
  397POPI    C1 6221  14.972  12.699  10.567  0.0731  0.2281 -0.0475
  397POPI    C2 6222  15.205  12.379  10.629 -0.1486  0.0707 -0.0143
  397POPI    C3 6223  14.970  12.515  10.922 -0.1429  0.1932 -0.0657
  397POPI   PO4 6224  14.849  12.733  10.387  0.2388 -0.1783 -0.1779
  397POPI   GL1 6225  14.890  12.828   9.902 -0.0697  0.0596 -0.1398
  397POPI   GL2 6226  14.982  13.154   9.894 -0.2055  0.1290 -0.1334
  397POPI   C1A 6227  15.369  12.710   9.736  0.1400  0.1334 -0.0772
  397POPI   D2A 6228  15.486  12.745   9.332 -0.0140  0.1010  0.0972
  397POPI   C3A 6229  15.743  13.021   9.095  0.0075 -0.0461 -0.2518
  397POPI   C4A 6230  15.799  13.168   8.706 -0.0176  0.0230 -0.1749
  397POPI   C1B 6231  15.033  13.425   9.556 -0.0180  0.3059  0.0322
  397POPI   C2B 6232  14.937  13.415   9.179 -0.1906 -0.5541  0.1049
  397POPI   C3B 6233  14.832  13.250   8.750  0.4838 -0.0448 -0.0472
  397POPI   C4B 6234  14.991  13.134   8.391 -0.0071  0.0567  0.0023
  398POPI    C1 6235  17.107  13.398  10.976 -0.0031  0.1915 -0.1256
  398POPI    C2 6236  16.843  13.221  11.218  0.1325 -0.2927 -0.3201
  398POPI    C3 6237  17.205  13.322  11.356 -0.0714  0.1793 -0.1105
  398POPI   PO4 6238  16.927  13.261  10.697 -0.0567 -0.1624  0.1317
  398POPI   GL1 6239  16.611  13.291  10.445 -0.3385 -0.1134 -0.0920
  398POPI   GL2 6240  16.918  13.156  10.196  0.2604  0.1897 -0.2039
  398POPI   C1A 6241  16.228  13.333  10.195 -0.1610 -0.0480 -0.1440
  398POPI   D2A 6242  16.039  13.405   9.836 -0.1010  0.2808  0.3289
  398POPI   C3A 6243  15.968  13.390   9.424  0.2668 -0.0613 -0.0532
  398POPI   C4A 6244  16.028  13.470   8.997  0.0956  0.1578 -0.1188
  398POPI   C1B 6245  17.038  13.216   9.773  0.2115  0.3508 -0.3521
  398POPI   C2B 6246  16.865  13.180   9.360 -0.1090 -0.0919  0.3810
  398POPI   C3B 6247  16.808  13.039   8.947  0.0391  0.2453  0.0138
  398POPI   C4B 6248  16.891  12.900   8.593  0.2224 -0.1284  0.0738
  399POPI    C1 6249   3.587  11.519  10.177  0.1454 -0.1241 -0.0622
  399POPI    C2 6250   3.936  11.649  10.321  0.0083  0.0227  0.1433
  399POPI    C3 6251   3.654  11.516  10.571 -0.0568 -0.1644 -0.0269
  399POPI   PO4 6252   3.499  11.545   9.848 -0.1040  0.2736 -0.2579
  399POPI   GL1 6253   3.546  11.810   9.497  0.0069  0.1868 -0.4117
  399POPI   GL2 6254   3.262  12.058   9.578  0.1029  0.1793 -0.1754
  399POPI   C1A 6255   3.668  11.723   9.102  0.1978  0.1931  0.2176
  399POPI   D2A 6256   3.745  11.727   8.646 -0.1578 -0.1883 -0.1129
  399POPI   C3A 6257   3.699  12.095   8.467  0.1213 -0.2384 -0.2679
  399POPI   C4A 6258   3.454  12.245   8.149  0.2351  0.0153 -0.2567
  399POPI   C1B 6259   3.289  12.140   9.146 -0.0243 -0.4715  0.0966
  399POPI   C2B 6260   3.209  11.981   8.730 -0.1092  0.0496 -0.1752
  399POPI   C3B 6261   3.012  12.154   8.392  0.1306 -0.2104 -0.3946
  399POPI   C4B 6262   2.719  12.017   8.047  0.1845  0.2038  0.0744
  400POPI    C1 6263   7.968   4.588  10.044 -0.0937  0.0295 -0.0146
  400POPI    C2 6264   8.238   4.408  10.278  0.0344  0.1559 -0.0636
  400POPI    C3 6265   7.847   4.350  10.343  0.0724 -0.2119 -0.1364
  400POPI   PO4 6266   8.114   4.524   9.790  0.3045 -0.1955 -0.0440
  400POPI   GL1 6267   8.219   4.218   9.413 -0.1021 -0.3745  0.2258
  400POPI   GL2 6268   8.493   4.142   9.293 -0.0583 -0.3713  0.3743
  400POPI   C1A 6269   7.966   4.311   9.072  0.2585 -0.0799  0.2693
  400POPI   D2A 6270   7.880   4.319   8.665 -0.2483  0.3059 -0.0559
  400POPI   C3A 6271   7.951   4.236   8.244  0.0100  0.1781 -0.1799
  400POPI   C4A 6272   7.602   4.057   7.938 -0.4174 -0.1036 -0.1131
  400POPI   C1B 6273   8.432   4.122   8.958 -0.4601  0.2262  0.0048
  400POPI   C2B 6274   8.361   4.092   8.525  0.1479 -0.2143 -0.3209
  400POPI   C3B 6275   8.302   3.849   8.182 -0.0860  0.0897 -0.0331
  400POPI   C4B 6276   8.046   3.847   7.789  0.1211  0.0674 -0.1976
  401POPI    C1 6277   5.592  13.990  10.422  0.4559 -0.0020  0.4698
  401POPI    C2 6278   5.273  14.202  10.538  0.2679  0.0951 -0.1855
  401POPI    C3 6279   5.288  13.808  10.607  0.0748  0.1146 -0.0227
  401POPI   PO4 6280   5.551  14.125  10.085  0.2811  0.0696  0.0548
  401POPI   GL1 6281   5.766  14.465   9.722 -0.0617 -0.0065 -0.0298
  401POPI   GL2 6282   5.639  14.785   9.742  0.1209  0.2076 -0.1166
  401POPI   C1A 6283   5.808  14.336   9.335 -0.0875  0.2728 -0.1702
  401POPI   D2A 6284   5.761  14.401   8.941 -0.1005 -0.1064  0.2000
  401POPI   C3A 6285   5.869  14.526   8.547 -0.2293  0.2591 -0.0608
  401POPI   C4A 6286   5.825  14.562   8.095 -0.1555 -0.1569 -0.0639
  401POPI   C1B 6287   5.664  14.837   9.249 -0.3519 -0.1374 -0.0838
  401POPI   C2B 6288   5.724  14.881   8.845 -0.3592  0.3746  0.4228
  401POPI   C3B 6289   5.790  15.032   8.469 -0.1456 -0.3560  0.1487
  401POPI   C4B 6290   5.618  15.364   8.258 -0.1065 -0.2141 -0.1149
  402POPI    C1 6291   3.693   2.416  10.490  0.0717 -0.0652 -0.0653
  402POPI    C2 6292   3.836   2.755  10.646 -0.1760 -0.0075  0.0407
  402POPI    C3 6293   3.884   2.409  10.841  0.0596 -0.0322 -0.0581
  402POPI   PO4 6294   3.748   2.442  10.278 -0.0620 -0.0185  0.1301
  402POPI   GL1 6295   3.487   2.533   9.910  0.2056 -0.2718 -0.1040
  402POPI   GL2 6296   3.254   2.803   9.831 -0.1820  0.0466 -0.1969
  402POPI   C1A 6297   3.441   2.341   9.552 -0.0173  0.1445 -0.3223
  402POPI   D2A 6298   3.464   2.235   9.093 -0.3091  0.1161 -0.0745
  402POPI   C3A 6299   3.596   2.407   8.725  0.1150  0.0246  0.0994
  402POPI   C4A 6300   4.044   2.447   8.569  0.0018 -0.0338 -0.0268
  402POPI   C1B 6301   3.162   2.761   9.405 -0.2772  0.1989 -0.0158
  402POPI   C2B 6302   3.149   2.636   8.974 -0.2708  0.1910 -0.0675
  402POPI   C3B 6303   3.333   2.868   8.689  0.1439 -0.0236 -0.0826
  402POPI   C4B 6304   3.336   3.077   8.340 -0.2260  0.0741 -0.0109
  403POPI    C1 6305   1.587  17.899  10.565  0.2693  0.1192 -0.2270
  403POPI    C2 6306   1.768  18.245  10.477  0.1185  0.2442 -0.0537
  403POPI    C3 6307   1.433  18.244  10.695  0.1006 -0.0101 -0.0789
  403POPI   PO4 6308   1.654  17.753  10.299  0.1924  0.0137 -0.1937
  403POPI   GL1 6309   1.649  17.688   9.928 -0.0200  0.0550 -0.0471
  403POPI   GL2 6310   1.389  17.777   9.800  0.1708  0.2488 -0.2093
  403POPI   C1A 6311   1.917  17.715   9.589 -0.0765 -0.1423  0.3149
  403POPI   D2A 6312   1.854  17.628   9.050 -0.2150 -0.0248  0.0292
  403POPI   C3A 6313   1.828  17.650   8.592 -0.2375  0.0609 -0.0000
  403POPI   C4A 6314   1.699  17.697   8.146 -0.0523  0.0824 -0.0419
  403POPI   C1B 6315   1.426  17.787   9.316  0.0488 -0.1273 -0.0940
  403POPI   C2B 6316   1.321  17.688   8.872 -0.0135  0.0635 -0.1932
  403POPI   C3B 6317   1.298  17.611   8.409  0.2141 -0.2955  0.0854
  403POPI   C4B 6318   1.239  17.414   8.020 -0.2561 -0.3042 -0.2198
  404POPI    C1 6319   4.289   3.069  10.424 -0.0341  0.3153 -0.1368
  404POPI    C2 6320   4.107   3.246  10.733  0.0709  0.3456 -0.0920
  404POPI    C3 6321   4.287   3.468  10.454 -0.0522  0.3195 -0.1928
  404POPI   PO4 6322   4.144   2.931  10.333 -0.3517  0.0774  0.0928
  404POPI   GL1 6323   4.196   2.557  10.071  0.0763 -0.5108  0.1241
  404POPI   GL2 6324   4.464   2.746  10.061 -0.2110 -0.0072  0.5220
  404POPI   C1A 6325   3.917   2.434   9.642  0.0632 -0.0452 -0.3631
  404POPI   D2A 6326   3.801   2.606   9.267  0.0617  0.2732  0.1319
  404POPI   C3A 6327   4.104   2.460   9.056 -0.0304  0.0136  0.2406
  404POPI   C4A 6328   4.400   2.132   8.917  0.1332  0.0493  0.1486
  404POPI   C1B 6329   4.492   2.663   9.531  0.0576  0.0804  0.0591
  404POPI   C2B 6330   4.606   2.534   9.145 -0.0100  0.4355  0.1285
  404POPI   C3B 6331   4.537   2.655   8.772 -0.2240 -0.0492 -0.2422
  404POPI   C4B 6332   4.692   2.492   8.541  0.3480  0.0858  0.4260
  405POPI    C1 6333   2.507  12.340  10.323 -0.0250 -0.0459  0.1748
  405POPI    C2 6334   2.799  12.589  10.209 -0.0779  0.0120  0.1650
  405POPI    C3 6335   2.887  12.216  10.323 -0.0285 -0.0618 -0.1082
  405POPI   PO4 6336   2.332  12.396  10.129 -0.1045  0.1193  0.2878
  405POPI   GL1 6337   2.179  12.541   9.832  0.0506  0.2201  0.3494
  405POPI   GL2 6338   1.852  12.616   9.770  0.1490 -0.0245  0.1872
  405POPI   C1A 6339   2.321  12.599   9.469  0.0565 -0.1448  0.0520
  405POPI   D2A 6340   2.295  12.671   9.035 -0.0777  0.0840  0.1299
  405POPI   C3A 6341   2.295  12.811   8.554  0.2371 -0.2556  0.0761
  405POPI   C4A 6342   2.264  13.002   8.203  0.0128  0.1324  0.2409
  405POPI   C1B 6343   1.891  12.728   9.319 -0.0136 -0.1369  0.3303
  405POPI   C2B 6344   1.793  12.802   8.853  0.0134 -0.1137 -0.0176
  405POPI   C3B 6345   1.742  12.907   8.431  0.1150 -0.0672  0.1337
  405POPI   C4B 6346   1.572  12.872   8.023 -0.0825  0.0307  0.0745
  406POPI    C1 6347  12.101   7.659  10.454  0.1631  0.0286  0.0415
  406POPI    C2 6348  11.719   7.540  10.465  0.1984 -0.0817  0.0911
  406POPI    C3 6349  11.880   7.728  10.780  0.2171 -0.1361  0.1141
  406POPI   PO4 6350  12.174   7.458  10.264  0.1639 -0.1141  0.1054
  406POPI   GL1 6351  12.466   7.520   9.934  0.4530 -0.0266 -0.0537
  406POPI   GL2 6352  12.667   7.183   9.913  0.1248 -0.1890  0.3453
  406POPI   C1A 6353  12.611   7.698   9.600  0.0678 -0.1643 -0.4100
  406POPI   D2A 6354  12.793   7.767   9.223 -0.0332  0.3956  0.2415
  406POPI   C3A 6355  12.564   7.693   8.848  0.0108  0.0957 -0.2829
  406POPI   C4A 6356  12.593   7.632   8.396 -0.1986  0.5205 -0.0526
  406POPI   C1B 6357  12.885   7.338   9.511  0.1372  0.1655 -0.0823
  406POPI   C2B 6358  13.218   7.468   9.194  0.1052  0.0646  0.1307
  406POPI   C3B 6359  13.277   7.636   8.809  0.1743  0.1065 -0.0101
  406POPI   C4B 6360  13.461   7.730   8.455 -0.1437 -0.1972 -0.2484
  407POPI    C1 6361   4.074   1.883  10.990 -0.1686  0.1453 -0.0826
  407POPI    C2 6362   3.740   1.669  10.939 -0.1181  0.0113  0.1345
  407POPI    C3 6363   3.733   2.002  11.161 -0.1087  0.0117  0.1342
  407POPI   PO4 6364   4.224   1.842  10.746 -0.0855  0.0866  0.0430
  407POPI   GL1 6365   4.323   1.857  10.334  0.0295 -0.3106  0.0650
  407POPI   GL2 6366   4.657   1.734  10.159  0.0167  0.2533  0.0388
  407POPI   C1A 6367   4.280   2.090   9.975  0.0701  0.1697 -0.0032
  407POPI   D2A 6368   4.305   2.081   9.533 -0.0570  0.2038  0.0480
  407POPI   C3A 6369   4.471   1.742   9.339 -0.0587 -0.2111 -0.0327
  407POPI   C4A 6370   4.702   1.682   8.953 -0.0412 -0.0416  0.4233
  407POPI   C1B 6371   4.989   1.540   9.899  0.1404 -0.2985 -0.0121
  407POPI   C2B 6372   5.053   1.526   9.494 -0.3445 -0.1448  0.0530
  407POPI   C3B 6373   5.008   1.282   9.029 -0.1140 -0.0167  0.1324
  407POPI   C4B 6374   4.894   0.911   8.703 -0.0975  0.1704  0.0162
  408POPI    C1 6375   7.879   6.062   9.885 -0.0864 -0.1551  0.0030
  408POPI    C2 6376   7.882   6.254   9.534  0.2531 -0.2010 -0.0233
  408POPI    C3 6377   8.123   6.374   9.830 -0.3550  0.1274  0.3615
  408POPI   PO4 6378   7.889   5.713   9.794 -0.0475  0.0804  0.1716
  408POPI   GL1 6379   7.832   5.789   9.449  0.0179  0.2283 -0.1300
  408POPI   GL2 6380   7.603   5.702   9.289  0.4429 -0.0448  0.0341
  408POPI   C1A 6381   7.924   5.988   9.049 -0.1410 -0.0324  0.0368
  408POPI   D2A 6382   7.884   5.977   8.637 -0.1365 -0.2916 -0.1757
  408POPI   C3A 6383   7.697   6.169   8.269  0.0803 -0.0129  0.0188
  408POPI   C4A 6384   7.864   6.565   8.080  0.0409  0.0316 -0.1085
  408POPI   C1B 6385   7.460   5.833   8.950 -0.2290  0.0465  0.2018
  408POPI   C2B 6386   7.373   5.816   8.572 -0.0320  0.1073  0.1262
  408POPI   C3B 6387   7.194   6.011   8.253  0.0548  0.3553  0.4778
  408POPI   C4B 6388   6.927   6.282   8.146  0.2727 -0.0976  0.0508
  409POPI    C1 6389   6.168  10.959  10.395  0.1058  0.2869 -0.1404
  409POPI    C2 6390   6.517  10.837  10.546 -0.0524 -0.3149 -0.2360
  409POPI    C3 6391   6.226  10.960  10.790  0.2628  0.3276 -0.1627
  409POPI   PO4 6392   6.203  10.940  10.152 -0.4511 -0.3308  0.1601
  409POPI   GL1 6393   6.325  10.954   9.659  0.4267  0.3033 -0.0097
  409POPI   GL2 6394   6.209  10.595   9.750  0.4613 -0.0175  0.1189
  409POPI   C1A 6395   6.200  10.899   9.265 -0.3408  0.2416 -0.0994
  409POPI   D2A 6396   6.125  10.900   8.869  0.0574 -0.1028 -0.3689
  409POPI   C3A 6397   6.081  10.555   8.638  0.3476 -0.2817  0.2050
  409POPI   C4A 6398   6.195  10.417   8.187  0.0202  0.0782 -0.2977
  409POPI   C1B 6399   6.013  10.303   9.405 -0.1797  0.0206  0.2676
  409POPI   C2B 6400   5.950  10.271   8.997  0.0287  0.0694  0.1873
  409POPI   C3B 6401   5.811  10.123   8.557 -0.0158 -0.3913 -0.1234
  409POPI   C4B 6402   5.753  10.124   8.165 -0.1752 -0.0408 -0.0493
  410POPI    C1 6403   3.529  17.223  10.464  0.1067  0.1104  0.0347
  410POPI    C2 6404   3.226  16.977  10.551  0.1579  0.0949  0.1722
  410POPI    C3 6405   3.555  16.977  10.779  0.3047  0.0380 -0.0366
  410POPI   PO4 6406   3.586  17.174  10.245  0.1498  0.2948  0.1208
  410POPI   GL1 6407   3.658  17.076   9.841  0.1944  0.0615 -0.1321
  410POPI   GL2 6408   3.827  16.787   9.922 -0.2146  0.3391 -0.1313
  410POPI   C1A 6409   3.992  16.996   9.422 -0.0279 -0.1745 -0.0625
  410POPI   D2A 6410   4.103  17.068   8.968  0.1898  0.1158 -0.1156
  410POPI   C3A 6411   4.148  17.448   8.757 -0.0132 -0.1029  0.1302
  410POPI   C4A 6412   3.745  17.733   8.831  0.0675  0.2883 -0.0580
  410POPI   C1B 6413   4.146  16.563   9.659 -0.1697 -0.2499  0.1287
  410POPI   C2B 6414   4.318  16.587   9.214  0.1635 -0.0363 -0.2053
  410POPI   C3B 6415   4.302  16.632   8.803  0.4434  0.0701 -0.0274
  410POPI   C4B 6416   4.252  16.833   8.497 -0.3293  0.4579 -0.0183
  411POPI    C1 6417   0.861   4.329  10.767  0.0304  0.2986 -0.0548
  411POPI    C2 6418   1.136   4.158  11.002  0.0284 -0.0531 -0.3012
  411POPI    C3 6419   0.761   4.206  11.135  0.1433  0.1956 -0.0580
  411POPI   PO4 6420   1.004   4.209  10.483 -0.2074  0.2906  0.0076
  411POPI   GL1 6421   1.064   3.954  10.121  0.0452  0.0437 -0.0864
  411POPI   GL2 6422   1.045   3.646  10.205 -0.0823  0.2171  0.2754
  411POPI   C1A 6423   0.842   4.051   9.629  0.0066 -0.2036 -0.2509
  411POPI   D2A 6424   0.590   4.146   9.308 -0.2376 -0.2483  0.0281
  411POPI   C3A 6425   0.742   4.237   8.869 -0.0112  0.1081  0.2540
  411POPI   C4A 6426   0.863   4.192   8.517 -0.0345 -0.1877  0.4091
  411POPI   C1B 6427   0.683   3.656   9.885 -0.1545  0.1622  0.0542
  411POPI   C2B 6428   0.688   3.651   9.437  0.1368  0.3749  0.3426
  411POPI   C3B 6429   0.713   3.754   9.071  0.0307 -0.2538  0.2999
  411POPI   C4B 6430   0.944   3.785   8.745 -0.0020  0.0011  0.0650
  412POPI    C1 6431  14.668   9.881  10.497  0.2471  0.1175 -0.1897
  412POPI    C2 6432  14.641  10.271  10.413 -0.0328  0.1178 -0.1078
  412POPI    C3 6433  14.646  10.148  10.794 -0.1348  0.0304 -0.1342
  412POPI   PO4 6434  14.839   9.801  10.380 -0.2863  0.0320  0.2065
  412POPI   GL1 6435  15.014   9.993   9.979 -0.1785  0.3676 -0.0265
  412POPI   GL2 6436  14.768  10.144   9.915 -0.2240  0.1130  0.3236
  412POPI   C1A 6437  15.094   9.715   9.669  0.0846  0.3913  0.0838
  412POPI   D2A 6438  15.075   9.588   9.279  0.0882  0.1135  0.0930
  412POPI   C3A 6439  15.490   9.419   8.962  0.0769  0.1248  0.1934
  412POPI   C4A 6440  15.603   9.450   8.511 -0.2584 -0.2707  0.0873
  412POPI   C1B 6441  14.865  10.154   9.470  0.0471 -0.0652 -0.1753
  412POPI   C2B 6442  14.963  10.019   9.080 -0.1320  0.2156 -0.0316
  412POPI   C3B 6443  15.225   9.803   8.783 -0.0820 -0.0769  0.0363
  412POPI   C4B 6444  15.479   9.982   8.466  0.1667 -0.2145  0.2018
  413POPI    C1 6445   8.855  10.696  10.419  0.0186  0.2946  0.1905
  413POPI    C2 6446   9.155  10.716  10.683  0.1636  0.0981  0.0436
  413POPI    C3 6447   8.848  10.469  10.749  0.2051  0.0411  0.0239
  413POPI   PO4 6448   8.996  10.569  10.186 -0.2004  0.0239 -0.2958
  413POPI   GL1 6449   9.151  10.264   9.826 -0.0524 -0.0774 -0.1346
  413POPI   GL2 6450   8.812  10.006   9.965 -0.2735  0.2028  0.1876
  413POPI   C1A 6451   9.319  10.331   9.501 -0.2856 -0.1392  0.2391
  413POPI   D2A 6452   9.296  10.426   9.140  0.0035 -0.0178  0.0323
  413POPI   C3A 6453   9.353  10.408   8.736 -0.0150  0.0693  0.1516
  413POPI   C4A 6454   9.404  10.531   8.335 -0.0942 -0.1247  0.3859
  413POPI   C1B 6455   8.704  10.060   9.532 -0.1792 -0.2291  0.0303
  413POPI   C2B 6456   8.724  10.176   9.097 -0.3759  0.0860 -0.0727
  413POPI   C3B 6457   8.653  10.191   8.648  0.0537  0.0979  0.1372
  413POPI   C4B 6458   8.953  10.227   8.390 -0.4202  0.1414 -0.3291
  414POPI    C1 6459   3.164  11.898  10.039  0.0408  0.0610  0.1457
  414POPI    C2 6460   3.242  12.288   9.994 -0.0474  0.0604 -0.0228
  414POPI    C3 6461   3.542  12.026  10.024  0.0122  0.1302 -0.0062
  414POPI   PO4 6462   2.950  11.867   9.920 -0.3757  0.1984  0.1188
  414POPI   GL1 6463   2.794  11.655   9.616  0.0423  0.2302  0.0410
  414POPI   GL2 6464   2.982  11.711   9.293 -0.3528 -0.2151 -0.1452
  414POPI   C1A 6465   2.399  11.692   9.267  0.1657 -0.2274 -0.3295
  414POPI   D2A 6466   2.339  11.915   8.809 -0.2823 -0.1450 -0.5363
  414POPI   C3A 6467   2.279  11.902   8.266  0.2052  0.1105 -0.0461
  414POPI   C4A 6468   2.240  12.173   7.942 -0.1953  0.0604 -0.0145
  414POPI   C1B 6469   2.857  11.689   8.955 -0.0661  0.0049  0.4187
  414POPI   C2B 6470   2.749  11.765   8.573  0.0781  0.2094 -0.0459
  414POPI   C3B 6471   2.689  11.528   8.181 -0.4290  0.1838 -0.0596
  414POPI   C4B 6472   2.702  11.165   7.972 -0.3341  0.0213  0.1088
  415POPI    C1 6473   6.187   5.588   9.949  0.0050 -0.0931 -0.1622
  415POPI    C2 6474   5.977   5.420  10.246  0.1363 -0.2630 -0.1636
  415POPI    C3 6475   6.336   5.581  10.321 -0.0422  0.1347 -0.1377
  415POPI   PO4 6476   5.932   5.781   9.788  0.2556  0.0928  0.2327
  415POPI   GL1 6477   5.728   5.695   9.427 -0.1595 -0.2925  0.0363
  415POPI   GL2 6478   5.652   5.491   9.352  0.2160  0.0284  0.2229
  415POPI   C1A 6479   5.670   5.849   8.933  0.1827  0.2225 -0.0462
  415POPI   D2A 6480   5.775   5.735   8.478  0.1343  0.2263  0.2438
  415POPI   C3A 6481   5.886   5.773   7.983 -0.2125 -0.2148 -0.0085
  415POPI   C4A 6482   5.993   5.577   7.607  0.0668 -0.1110 -0.0845
  415POPI   C1B 6483   5.650   5.309   8.981  0.0787 -0.0596 -0.0472
  415POPI   C2B 6484   5.699   4.997   8.715 -0.0619  0.0271  0.0030
  415POPI   C3B 6485   5.655   4.804   8.335 -0.0638  0.0495 -0.0600
  415POPI   C4B 6486   5.508   4.788   7.872  0.0420  0.1777 -0.1522
  416POPI    C1 6487  12.059   9.615  10.819  0.2456  0.0652  0.0596
  416POPI    C2 6488  12.087   9.941  11.050 -0.0819  0.0834  0.0784
  416POPI    C3 6489  11.839   9.644  11.152  0.0402 -0.0693 -0.0622
  416POPI   PO4 6490  11.951   9.675  10.581  0.1760  0.1152  0.1357
  416POPI   GL1 6491  11.990   9.844  10.018  0.2121  0.2263  0.0479
  416POPI   GL2 6492  11.910   9.506  10.114  0.0029  0.0363  0.1246
  416POPI   C1A 6493  12.009   9.786   9.594  0.3450 -0.0451 -0.3421
  416POPI   D2A 6494  11.984   9.705   9.216 -0.1395  0.1723  0.0180
  416POPI   C3A 6495  12.188   9.683   8.801  0.0040 -0.0179  0.2927
  416POPI   C4A 6496  12.029   9.581   8.352 -0.2328 -0.0266  0.1786
  416POPI   C1B 6497  11.926   9.343   9.733  0.1274  0.0793 -0.0236
  416POPI   C2B 6498  11.855   9.244   9.299 -0.2698 -0.0596  0.2058
  416POPI   C3B 6499  11.859   9.238   8.905 -0.1016  0.1276  0.0092
  416POPI   C4B 6500  11.658   9.105   8.528  0.4883 -0.2365  0.0592
  417POPI    C1 6501   7.751  17.192  10.846  0.0149  0.0475 -0.0284
  417POPI    C2 6502   7.512  16.922  11.019 -0.1008  0.1106 -0.0889
  417POPI    C3 6503   7.895  16.832  10.946 -0.0510  0.0820  0.1964
  417POPI   PO4 6504   7.656  17.311  10.632  0.0264 -0.3375 -0.2571
  417POPI   GL1 6505   7.661  17.341  10.200 -0.0235  0.1633 -0.1419
  417POPI   GL2 6506   7.963  17.388  10.145  0.0370 -0.3019  0.1125
  417POPI   C1A 6507   7.525  17.747  10.127 -0.1741 -0.1185 -0.2311
  417POPI   D2A 6508   7.699  18.007   9.742 -0.1407 -0.1415 -0.1050
  417POPI   C3A 6509   7.528  18.021   9.402 -0.0111  0.0869  0.2589
  417POPI   C4A 6510   7.260  18.164   9.122  0.3385 -0.0305  0.0039
  417POPI   C1B 6511   7.792  17.524   9.687  0.1919  0.1514  0.0780
  417POPI   C2B 6512   7.760  17.539   9.250  0.0678  0.0925 -0.0861
  417POPI   C3B 6513   7.491  17.748   8.937  0.1514  0.0606  0.2330
  417POPI   C4B 6514   7.213  18.026   8.604  0.1220  0.2572  0.2906
  418POPI    C1 6515   6.130   8.758  10.521 -0.0049  0.0764  0.0248
  418POPI    C2 6516   5.834   8.621  10.753  0.1660 -0.1201  0.1306
  418POPI    C3 6517   6.085   8.900  10.892  0.0403  0.0372  0.0454
  418POPI   PO4 6518   6.208   8.598  10.322 -0.2320 -0.2714  0.1214
  418POPI   GL1 6519   6.302   8.570  10.020 -0.1020 -0.0514 -0.2922
  418POPI   GL2 6520   6.451   8.799   9.882 -0.1175 -0.1804 -0.0384
  418POPI   C1A 6521   6.310   8.374   9.659  0.2013  0.2329  0.3035
  418POPI   D2A 6522   6.396   8.014   9.390 -0.2738  0.0589 -0.0286
  418POPI   C3A 6523   6.401   8.018   9.001  0.0596  0.0008 -0.1618
  418POPI   C4A 6524   6.398   7.988   8.646  0.0683  0.0530  0.0503
  418POPI   C1B 6525   6.408   8.851   9.481 -0.0007 -0.5204  0.0276
  418POPI   C2B 6526   6.451   8.908   9.086  0.0528  0.2065  0.1492
  418POPI   C3B 6527   6.478   8.993   8.734 -0.1071 -0.0978 -0.0194
  418POPI   C4B 6528   6.464   8.757   8.348  0.0482  0.2015 -0.4521
  419POPI    C1 6529   2.594   9.492   9.894  0.0469 -0.1157  0.0310
  419POPI    C2 6530   2.684   9.497  10.284  0.1255  0.0775  0.0119
  419POPI    C3 6531   2.530   9.167  10.117  0.1509 -0.0267  0.1924
  419POPI   PO4 6532   2.491   9.712   9.792 -0.0945  0.0418  0.0509
  419POPI   GL1 6533   2.163   9.671   9.526  0.1951 -0.1434  0.0896
  419POPI   GL2 6534   2.461   9.620   9.292  0.0276  0.1683 -0.1499
  419POPI   C1A 6535   2.023   9.466   9.155  0.2708 -0.3046 -0.0453
  419POPI   D2A 6536   2.096   9.535   8.750  0.0058  0.0526 -0.0808
  419POPI   C3A 6537   1.707   9.494   8.627 -0.3257  0.2589 -0.1445
  419POPI   C4A 6538   1.413   9.588   8.391  0.2163  0.2088 -0.0660
  419POPI   C1B 6539   2.456   9.380   9.066 -0.1578  0.2425  0.2404
  419POPI   C2B 6540   2.555   9.216   8.722 -0.0532 -0.2103  0.1249
  419POPI   C3B 6541   2.580   9.127   8.313 -0.3416  0.1848  0.1029
  419POPI   C4B 6542   2.629   9.385   8.002 -0.2010 -0.3193  0.0206
  420POPI    C1 6543   7.492  16.403  11.011  0.1960  0.0629 -0.1907
  420POPI    C2 6544   7.220  16.125  11.106  0.1077  0.1046 -0.3192
  420POPI    C3 6545   7.297  16.425  11.360 -0.1231  0.2128 -0.3744
  420POPI   PO4 6546   7.424  16.481  10.728  0.0696 -0.0811 -0.0267
  420POPI   GL1 6547   7.506  16.314  10.284 -0.0805 -0.0405 -0.0415
  420POPI   GL2 6548   7.527  16.529  10.005  0.0167  0.1743 -0.0536
  420POPI   C1A 6549   7.408  15.864  10.093 -0.0405 -0.1763 -0.0527
  420POPI   D2A 6550   7.352  15.734   9.664 -0.2181 -0.0899 -0.1206
  420POPI   C3A 6551   7.305  15.866   9.323 -0.1860 -0.1525 -0.0505
  420POPI   C4A 6552   7.311  15.914   8.905  0.0466  0.1865 -0.2155
  420POPI   C1B 6553   7.547  16.659   9.582 -0.0526 -0.0505 -0.2326
  420POPI   C2B 6554   7.498  16.764   9.202  0.2243 -0.1702 -0.0383
  420POPI   C3B 6555   7.443  16.859   8.850  0.1872  0.1443  0.1103
  420POPI   C4B 6556   7.373  16.870   8.415  0.0537 -0.0422  0.2723
  421POPI    C1 6557   3.092   7.055  10.224  0.0530  0.1193  0.0914
  421POPI    C2 6558   3.204   7.046  10.608 -0.0825  0.0767  0.1303
  421POPI    C3 6559   3.341   7.333  10.367  0.1186  0.0189  0.1743
  421POPI   PO4 6560   3.122   6.786  10.158 -0.0394  0.1674  0.1247
  421POPI   GL1 6561   3.346   6.573   9.810 -0.0508  0.0561  0.0704
  421POPI   GL2 6562   3.370   6.230   9.811  0.1740  0.2039 -0.1652
  421POPI   C1A 6563   3.304   6.475   9.325 -0.0252  0.0108  0.1093
  421POPI   D2A 6564   3.258   6.353   8.959  0.0439 -0.0916 -0.0231
  421POPI   C3A 6565   3.115   6.451   8.541 -0.0236 -0.2050 -0.3010
  421POPI   C4A 6566   3.344   6.156   8.135 -0.1861  0.0965 -0.2947
  421POPI   C1B 6567   3.301   5.966   9.419 -0.0007 -0.1984  0.0450
  421POPI   C2B 6568   3.356   5.609   8.999 -0.1819 -0.0720 -0.1204
  421POPI   C3B 6569   3.120   5.541   8.589 -0.1883  0.1235  0.1414
  421POPI   C4B 6570   2.899   5.435   8.185  0.0713  0.0081 -0.0141
  422POPI    C1 6571   3.933   0.913  10.719  0.0961  0.1557 -0.0406
  422POPI    C2 6572   4.042   1.210  10.963  0.3266  0.1230 -0.1014
  422POPI    C3 6573   4.110   0.830  11.068  0.4068  0.1081 -0.2058
  422POPI   PO4 6574   4.009   0.903  10.480  0.0996 -0.1805 -0.0846
  422POPI   GL1 6575   4.239   0.969  10.230  0.0919 -0.0644  0.1300
  422POPI   GL2 6576   4.321   1.284  10.256  0.0464  0.2128  0.4068
  422POPI   C1A 6577   4.402   0.811   9.817 -0.1844 -0.1672 -0.0880
  422POPI   D2A 6578   4.521   0.798   9.363  0.2343 -0.2824 -0.1930
  422POPI   C3A 6579   4.456   0.624   8.982 -0.0808  0.0153 -0.1053
  422POPI   C4A 6580   4.620   0.388   8.638 -0.1546  0.0474 -0.0792
  422POPI   C1B 6581   4.433   1.380   9.837 -0.0897  0.1114 -0.2716
  422POPI   C2B 6582   4.544   1.274   9.425 -0.0168 -0.3662 -0.2130
  422POPI   C3B 6583   4.522   1.179   9.026 -0.0400 -0.0931 -0.0841
  422POPI   C4B 6584   4.331   1.156   8.654 -0.2702  0.0182 -0.0231
  423DPPI    C1 6585   3.938  17.314  10.773  0.0588  0.2623  0.1185
  423DPPI    C2 6586   4.299  17.317  10.946 -0.0106  0.2237  0.2652
  423DPPI    C3 6587   4.063  16.997  10.982  0.0380  0.1507 -0.0365
  423DPPI   PO4 6588   4.002  17.364  10.539 -0.0885 -0.1131  0.0529
  423DPPI   GL1 6589   4.083  17.529  10.107 -0.0819  0.0205  0.0300
  423DPPI   GL2 6590   4.094  17.144  10.053  0.0175  0.0084  0.0427
  423DPPI   C1A 6591   3.864  17.568   9.755  0.0339  0.2324  0.0812
  423DPPI   C2A 6592   4.006  17.499   9.320  0.1366  0.1633 -0.0118
  423DPPI   C3A 6593   4.436  17.430   9.153 -0.0618  0.0324 -0.0520
  423DPPI   C4A 6594   4.619  17.282   8.783 -0.2665  0.1633  0.0778
  423DPPI   C1B 6595   4.297  17.359   9.663 -0.1516 -0.0903 -0.1518
  423DPPI   C2B 6596   4.568  17.664   9.635  0.0391  0.0249 -0.2826
  423DPPI   C3B 6597   4.831  17.937   9.365  0.0093 -0.0350  0.2952
  423DPPI   C4B 6598   5.240  17.891   9.217 -0.1401 -0.2335  0.2273
  424DPPI    C1 6599   2.892  10.825   9.853  0.4787 -0.0037 -0.4004
  424DPPI    C2 6600   2.954  10.528  10.113 -0.1344 -0.1038 -0.3535
  424DPPI    C3 6601   3.011  10.907  10.226  0.0102 -0.1679 -0.2070
  424DPPI   PO4 6602   2.678  10.689   9.659 -0.2532  0.2081 -0.0981
  424DPPI   GL1 6603   2.564  10.826   9.309 -0.3317  0.3516  0.1234
  424DPPI   GL2 6604   2.408  10.473   9.300 -0.0431 -0.1750 -0.1680
  424DPPI   C1A 6605   2.400  10.893   8.910 -0.0517 -0.1163 -0.0583
  424DPPI   C2A 6606   2.412  10.953   8.391  0.0454  0.0660  0.0658
  424DPPI   C3A 6607   2.198  10.966   7.881 -0.2117  0.2317  0.1260
  424DPPI   C4A 6608   2.304  10.926   7.461  0.2978  0.1279  0.1231
  424DPPI   C1B 6609   2.534  10.379   8.902  0.1029 -0.0464 -0.0492
  424DPPI   C2B 6610   2.602  10.264   8.463 -0.0901  0.0116 -0.0895
  424DPPI   C3B 6611   2.488  10.000   8.181 -0.0102  0.2933  0.2392
  424DPPI   C4B 6612   2.354   9.713   7.751 -0.2881  0.0988  0.2872
  425DPPI    C1 6613   4.161  10.178  10.075 -0.1122 -0.0462  0.1117
  425DPPI    C2 6614   3.815  10.052   9.917 -0.1429 -0.0985  0.2199
  425DPPI    C3 6615   3.829  10.172  10.299 -0.0180 -0.2038  0.2491
  425DPPI   PO4 6616   4.260  10.367   9.877 -0.1751 -0.1086 -0.0151
  425DPPI   GL1 6617   4.221  10.224   9.496  0.0346 -0.1378  0.0341
  425DPPI   GL2 6618   4.311   9.974   9.399  0.2664  0.4387 -0.0357
  425DPPI   C1A 6619   4.066  10.464   9.118  0.3744  0.1175 -0.4210
  425DPPI   C2A 6620   4.099  10.665   8.786  0.0098 -0.0938 -0.1347
  425DPPI   C3A 6621   4.293  10.796   8.415  0.0534 -0.3273 -0.1953
  425DPPI   C4A 6622   4.200  10.770   7.963 -0.2290 -0.3378  0.2472
  425DPPI   C1B 6623   4.318  10.098   8.978 -0.1359  0.1765  0.1948
  425DPPI   C2B 6624   4.326  10.091   8.610 -0.0400 -0.0351  0.1888
  425DPPI   C3B 6625   4.153  10.295   8.404 -0.1680 -0.1754  0.0533
  425DPPI   C4B 6626   4.232  10.183   8.023  0.0472 -0.0388 -0.1075
  426DPPI    C1 6627  12.161   6.250  10.739 -0.2224  0.3710 -0.2558
  426DPPI    C2 6628  12.449   6.350  10.998 -0.0653 -0.0540 -0.2581
  426DPPI    C3 6629  12.066   6.428  11.083  0.0210  0.2101 -0.1018
  426DPPI   PO4 6630  12.330   6.331  10.511  0.1597  0.1514  0.3082
  426DPPI   GL1 6631  12.444   6.069  10.094  0.1554 -0.0756 -0.1347
  426DPPI   GL2 6632  12.224   6.229   9.880  0.0834  0.1399  0.2054
  426DPPI   C1A 6633  12.750   6.205   9.768 -0.0716 -0.1388 -0.4821
  426DPPI   C2A 6634  12.824   6.364   9.389 -0.2748  0.0249 -0.0463
  426DPPI   C3A 6635  12.598   6.307   9.052  0.1419  0.0505 -0.0408
  426DPPI   C4A 6636  12.353   6.218   8.651  0.0614 -0.0163 -0.0012
  426DPPI   C1B 6637  12.359   6.329   9.477 -0.1388  0.0403 -0.2007
  426DPPI   C2B 6638  12.158   6.431   9.160  0.1207 -0.0856 -0.1766
  426DPPI   C3B 6639  12.071   6.631   8.850  0.1361 -0.1786 -0.1640
  426DPPI   C4B 6640  11.965   6.876   8.539  0.0132 -0.4042 -0.2339
  427DPPI    C1 6641   9.159   6.570   9.899  0.0904 -0.0097 -0.1900
  427DPPI    C2 6642   9.229   6.800  10.218 -0.2059  0.3064 -0.3458
  427DPPI    C3 6643   9.033   6.454  10.260  0.0590  0.1769 -0.1403
  427DPPI   PO4 6644   9.169   6.777   9.747  0.0552 -0.0985  0.1932
  427DPPI   GL1 6645   9.278   7.147   9.300 -0.1222 -0.0467 -0.0084
  427DPPI   GL2 6646   9.496   7.123   9.571  0.1863 -0.0868  0.0407
  427DPPI   C1A 6647   9.308   7.348   9.007 -0.1388  0.0840 -0.0156
  427DPPI   C2A 6648   9.316   7.454   8.533 -0.0461 -0.0269  0.0340
  427DPPI   C3A 6649   9.229   7.592   8.233  0.2505  0.0822 -0.1882
  427DPPI   C4A 6650   8.950   7.864   7.938  0.1101 -0.0251 -0.3147
  427DPPI   C1B 6651   9.774   7.237   9.130  0.3443  0.0225 -0.0112
  427DPPI   C2B 6652   9.747   7.315   8.701 -0.2218 -0.2533  0.1887
  427DPPI   C3B 6653   9.802   7.388   8.265 -0.2281  0.2188 -0.1694
  427DPPI   C4B 6654   9.934   7.629   7.986 -0.2624 -0.0233  0.2996
  428DPPI    C1 6655  11.302   5.961  10.268 -0.0697 -0.2352  0.0148
  428DPPI    C2 6656  11.355   6.029   9.878 -0.0758 -0.1318  0.0318
  428DPPI    C3 6657  11.373   5.656  10.020  0.2236 -0.1401 -0.0218
  428DPPI   PO4 6658  11.504   6.150  10.362  0.1393 -0.0805  0.2836
  428DPPI   GL1 6659  11.774   6.303  10.010 -0.1774 -0.1307 -0.3779
  428DPPI   GL2 6660  11.716   6.670   9.975  0.1318 -0.0137  0.0569
  428DPPI   C1A 6661  11.652   6.244   9.617 -0.0647  0.0250 -0.1742
  428DPPI   C2A 6662  11.739   6.170   9.196 -0.1071 -0.1364  0.0826
  428DPPI   C3A 6663  11.848   6.129   8.753 -0.0921  0.2045  0.1660
  428DPPI   C4A 6664  11.944   6.115   8.309 -0.4635  0.2814 -0.1108
  428DPPI   C1B 6665  12.008   6.712   9.657  0.0950  0.0484  0.3715
  428DPPI   C2B 6666  12.038   6.885   9.298 -0.1125  0.0745 -0.5718
  428DPPI   C3B 6667  12.040   7.106   8.989 -0.0962 -0.1004  0.2896
  428DPPI   C4B 6668  12.367   7.262   8.723 -0.0444  0.0077 -0.1570
  429DPPI    C1 6669   3.773  15.634  10.707  0.3683 -0.3113 -0.0705
  429DPPI    C2 6670   3.882  15.553  11.083 -0.0260 -0.1533  0.0840
  429DPPI    C3 6671   3.640  15.302  10.887 -0.1618 -0.0256  0.0869
  429DPPI   PO4 6672   3.968  15.653  10.582  0.2461  0.0880  0.1130
  429DPPI   GL1 6673   4.183  15.560  10.265  0.4011 -0.2146 -0.2867
  429DPPI   GL2 6674   3.873  15.472  10.061 -0.3347 -0.1562  0.0047
  429DPPI   C1A 6675   4.449  15.526   9.793 -0.1331 -0.0733  0.0262
  429DPPI   C2A 6676   4.523  15.628   9.404 -0.0891 -0.2071  0.1023
  429DPPI   C3A 6677   4.526  15.683   8.931 -0.1358 -0.0698  0.0822
  429DPPI   C4A 6678   4.711  15.579   8.484 -0.2525  0.0977 -0.1226
  429DPPI   C1B 6679   3.986  15.197   9.779 -0.2134  0.0178 -0.0526
  429DPPI   C2B 6680   4.116  15.319   9.367 -0.0416 -0.1324 -0.0442
  429DPPI   C3B 6681   4.084  15.299   8.976 -0.0836  0.1196  0.0260
  429DPPI   C4B 6682   4.276  15.400   8.597 -0.4854  0.1265 -0.2852
  430DPPI    C1 6683  11.338   8.184  10.659  0.1186  0.0362  0.1353
  430DPPI    C2 6684  11.356   7.798  10.762 -0.0568  0.0069  0.0597
  430DPPI    C3 6685  11.184   8.062  11.008 -0.0217  0.0214  0.0687
  430DPPI   PO4 6686  11.240   8.159  10.399 -0.0337 -0.1324  0.0121
  430DPPI   GL1 6687  11.410   8.081   9.975  0.1211 -0.3536 -0.0904
  430DPPI   GL2 6688  11.425   8.381   9.860  0.0829 -0.1363  0.1459
  430DPPI   C1A 6689  11.633   7.894   9.569 -0.0960  0.1220  0.0635
  430DPPI   C2A 6690  11.535   7.894   9.132  0.3165 -0.0657 -0.0794
  430DPPI   C3A 6691  11.488   7.784   8.652  0.0476  0.1391  0.1471
  430DPPI   C4A 6692  11.736   7.989   8.302  0.0070 -0.1806  0.0470
  430DPPI   C1B 6693  11.403   8.310   9.432  0.1739 -0.1194 -0.1663
  430DPPI   C2B 6694  11.455   8.375   8.973  0.2143 -0.1871 -0.0261
  430DPPI   C3B 6695  11.510   8.262   8.601  0.0136 -0.0765 -0.0962
  430DPPI   C4B 6696  11.352   8.250   8.129 -0.0891 -0.1248 -0.1315
  431DPPI    C1 6697  12.429   5.805  10.601 -0.1182 -0.0772 -0.0692
  431DPPI    C2 6698  12.646   5.619  10.881 -0.2228 -0.1370 -0.0274
  431DPPI    C3 6699  12.326   5.835  10.987 -0.0809  0.0975 -0.0722
  431DPPI   PO4 6700  12.431   5.630  10.385 -0.1969  0.1621 -0.0316
  431DPPI   GL1 6701  12.308   5.572  10.044 -0.0593  0.1820 -0.1010
  431DPPI   GL2 6702  12.157   5.377   9.874 -0.1554  0.1519  0.0704
  431DPPI   C1A 6703  12.568   5.729   9.603 -0.1754 -0.2409  0.3629
  431DPPI   C2A 6704  12.640   5.855   9.184  0.0968 -0.0876  0.3720
  431DPPI   C3A 6705  12.674   5.826   8.658 -0.2518  0.1285  0.3767
  431DPPI   C4A 6706  12.707   5.871   8.331 -0.0833  0.1221 -0.2434
  431DPPI   C1B 6707  12.216   5.203   9.544  0.0208  0.0062 -0.0525
  431DPPI   C2B 6708  12.221   5.274   9.139 -0.0757 -0.2458  0.1817
  431DPPI   C3B 6709  12.160   5.202   8.752 -0.1198 -0.1208  0.0580
  431DPPI   C4B 6710  11.995   5.211   8.419  0.2129  0.0884  0.0877
  432DPPI    C1 6711  11.256   1.762  10.198  0.1101  0.2240 -0.1731
  432DPPI    C2 6712  11.321   1.721  10.591 -0.0974 -0.1580 -0.1735
  432DPPI    C3 6713  11.090   2.019  10.456  0.2252  0.1617 -0.0361
  432DPPI   PO4 6714  11.441   1.693  10.128 -0.0789 -0.0079  0.3279
  432DPPI   GL1 6715  11.648   1.841   9.776 -0.3165 -0.0171 -0.2110
  432DPPI   GL2 6716  11.909   1.552   9.879 -0.1011 -0.2950  0.0657
  432DPPI   C1A 6717  11.734   1.862   9.332  0.0284  0.1529  0.2512
  432DPPI   C2A 6718  11.871   1.959   8.888 -0.0294 -0.1594 -0.2911
  432DPPI   C3A 6719  12.039   1.949   8.498 -0.1044 -0.0518 -0.5597
  432DPPI   C4A 6720  12.080   1.825   8.063  0.2443  0.2176 -0.1268
  432DPPI   C1B 6721  11.866   1.434   9.474  0.1711  0.0045  0.0400
  432DPPI   C2B 6722  11.917   1.466   9.042 -0.0624 -0.1950 -0.0106
  432DPPI   C3B 6723  11.983   1.420   8.543 -0.0276  0.2738  0.0330
  432DPPI   C4B 6724  12.248   1.410   8.168 -0.2317 -0.1006 -0.2107
  433DPPI    C1 6725  14.397  10.778  10.511  0.2976 -0.3105 -0.0004
  433DPPI    C2 6726  14.485  10.902  10.881  0.0032 -0.0373 -0.0175
  433DPPI    C3 6727  14.280  10.563  10.827 -0.2230  0.0801  0.0875
  433DPPI   PO4 6728  14.330  10.967  10.396  0.2458 -0.0800  0.1886
  433DPPI   GL1 6729  14.054  11.072  10.081  0.1323  0.2011  0.0828
  433DPPI   GL2 6730  14.015  11.369   9.994  0.2437 -0.0161 -0.0969
  433DPPI   C1A 6731  14.128  11.041   9.626 -0.2045 -0.2193  0.1973
  433DPPI   C2A 6732  14.113  11.232   9.257  0.1838 -0.3703 -0.0345
  433DPPI   C3A 6733  14.043  11.271   8.771 -0.1915 -0.1732  0.1502
  433DPPI   C4A 6734  13.950  11.397   8.353  0.4075  0.2155  0.0160
  433DPPI   C1B 6735  14.045  11.515   9.674  0.2839  0.1299  0.0280
  433DPPI   C2B 6736  14.124  11.768   9.374  0.0649  0.1382  0.2681
  433DPPI   C3B 6737  14.062  11.749   8.969 -0.0989 -0.3007 -0.0830
  433DPPI   C4B 6738  14.412  11.655   8.715  0.0133  0.1797  0.1411
  434DPPI    C1 6739   6.835   4.908  10.335 -0.1313 -0.2540  0.0265
  434DPPI    C2 6740   7.194   5.027  10.465 -0.2157  0.0102  0.0254
  434DPPI    C3 6741   6.997   4.736  10.657 -0.0125 -0.1200  0.0393
  434DPPI   PO4 6742   6.800   4.923  10.154 -0.0465 -0.0650 -0.0612
  434DPPI   GL1 6743   6.744   4.821   9.828 -0.1413 -0.0563 -0.1093
  434DPPI   GL2 6744   6.494   4.847   9.613 -0.3148 -0.0150 -0.0450
  434DPPI   C1A 6745   7.033   4.867   9.446 -0.1139 -0.1191 -0.0009
  434DPPI   C2A 6746   7.182   5.008   8.966  0.0455  0.0824  0.1427
  434DPPI   C3A 6747   7.277   5.170   8.607 -0.1854 -0.0882 -0.3855
  434DPPI   C4A 6748   7.279   5.513   8.214 -0.2916 -0.0388  0.1951
  434DPPI   C1B 6749   6.325   4.810   9.238  0.2671  0.2534 -0.0009
  434DPPI   C2B 6750   6.209   4.896   8.884 -0.0112  0.1311  0.3135
  434DPPI   C3B 6751   6.244   4.853   8.519  0.0444  0.1264 -0.3509
  434DPPI   C4B 6752   6.103   4.648   8.211 -0.1259 -0.2145 -0.0020
  435DPPI    C1 6753   3.682   9.476  10.166  0.0912 -0.1519  0.2535
  435DPPI    C2 6754   3.967   9.724  10.297  0.0804 -0.0954  0.1704
  435DPPI    C3 6755   3.683   9.595  10.547  0.0483  0.0285  0.1985
  435DPPI   PO4 6756   3.768   9.558   9.891  0.1886 -0.0962  0.0249
  435DPPI   GL1 6757   3.831   9.804   9.501  0.2674  0.0057 -0.0431
  435DPPI   GL2 6758   3.790   9.953   9.243 -0.4485 -0.2286  0.1079
  435DPPI   C1A 6759   3.694   9.435   9.131  0.2116  0.4894 -0.0291
  435DPPI   C2A 6760   3.596   9.334   8.694  0.0799  0.0096  0.2424
  435DPPI   C3A 6761   3.625   9.405   8.205 -0.2187  0.1039  0.1620
  435DPPI   C4A 6762   3.793   9.283   7.830 -0.3709  0.0173 -0.2940
  435DPPI   C1B 6763   3.793  10.177   8.803  0.0815 -0.1144 -0.0922
  435DPPI   C2B 6764   3.621  10.194   8.451 -0.3936  0.0276  0.2558
  435DPPI   C3B 6765   3.414  10.411   8.316 -0.0923 -0.0918 -0.0923
  435DPPI   C4B 6766   3.340  10.395   7.860  0.1053 -0.4922  0.3425
  436DPPI    C1 6767  12.765  16.147  10.784 -0.1409  0.0761  0.0667
  436DPPI    C2 6768  13.134  16.086  10.926 -0.0502  0.1265 -0.1435
  436DPPI    C3 6769  12.876  16.314  11.130 -0.0268 -0.0571  0.0953
  436DPPI   PO4 6770  12.780  16.219  10.565  0.1426  0.3920 -0.0672
  436DPPI   GL1 6771  12.676  16.178  10.165 -0.1328 -0.1718  0.0247
  436DPPI   GL2 6772  12.949  16.442  10.162 -0.0168 -0.0560  0.0076
  436DPPI   C1A 6773  12.750  16.219   9.768  0.2900 -0.1991 -0.1428
  436DPPI   C2A 6774  12.655  16.188   9.306 -0.1422 -0.0831 -0.1745
  436DPPI   C3A 6775  12.774  16.196   8.933 -0.1202 -0.1317 -0.0032
  436DPPI   C4A 6776  12.778  16.461   8.534 -0.1963  0.0370  0.2635
  436DPPI   C1B 6777  13.142  16.520   9.764 -0.0327  0.0354  0.3612
  436DPPI   C2B 6778  13.160  16.463   9.252  0.0264  0.0994  0.2735
  436DPPI   C3B 6779  13.207  16.327   8.849  0.2470 -0.2450 -0.2062
  436DPPI   C4B 6780  13.139  16.153   8.389  0.1286 -0.1116  0.1248
  437DPPI    C1 6781   0.458  10.938  10.688  0.0781  0.0798 -0.0154
  437DPPI    C2 6782   0.842  10.838  10.732 -0.0102 -0.2215  0.0950
  437DPPI    C3 6783   0.605  10.867  11.053 -0.1077 -0.1515  0.0171
  437DPPI   PO4 6784   0.464  11.141  10.505  0.2984  0.3441  0.1175
  437DPPI   GL1 6785   0.366  11.098  10.098 -0.2178  0.2109  0.1226
  437DPPI   GL2 6786   0.229  11.298  10.018 -0.1528  0.2197 -0.0885
  437DPPI   C1A 6787   0.365  10.797   9.712 -0.2656  0.1551  0.1225
  437DPPI   C2A 6788   0.418  10.660   9.286  0.0230  0.0648 -0.0706
  437DPPI   C3A 6789   0.503  10.647   8.795 -0.0247  0.2088 -0.0136
  437DPPI   C4A 6790   0.378  10.801   8.349  0.1610  0.0291  0.0288
  437DPPI   C1B 6791   0.138  11.596   9.675  0.0581  0.2269  0.0545
  437DPPI   C2B 6792   0.157  11.522   9.215 -0.0395  0.0685  0.0833
  437DPPI   C3B 6793   0.088  11.508   8.833  0.2222  0.1330 -0.1459
  437DPPI   C4B 6794   0.180  11.221   8.565  0.1166  0.3131  0.1532
  438DPPI    C1 6795   8.711  13.025  10.505  0.0449 -0.0008  0.1836
  438DPPI    C2 6796   8.535  13.077  10.861  0.3044  0.3363  0.2679
  438DPPI    C3 6797   8.872  12.864  10.834  0.1785  0.1442  0.1904
  438DPPI   PO4 6798   8.708  13.409  10.427  0.0368 -0.2642  0.1230
  438DPPI   GL1 6799   8.765  13.660  10.091  0.0418 -0.1272  0.0602
  438DPPI   GL2 6800   8.668  13.833   9.972 -0.0557  0.0052 -0.1271
  438DPPI   C1A 6801   8.786  13.472   9.702 -0.1088  0.0012  0.3106
  438DPPI   C2A 6802   8.880  13.237   9.269 -0.2701 -0.0546 -0.1352
  438DPPI   C3A 6803   9.023  13.354   8.884 -0.1227  0.1359 -0.0155
  438DPPI   C4A 6804   8.833  13.317   8.454 -0.1454  0.2755  0.0715
  438DPPI   C1B 6805   8.820  13.936   9.589  0.0032  0.1493 -0.2230
  438DPPI   C2B 6806   8.912  13.841   9.255 -0.0130 -0.0436  0.2292
  438DPPI   C3B 6807   8.786  13.824   8.863  0.2134 -0.3390 -0.2824
  438DPPI   C4B 6808   8.521  14.000   8.410 -0.2258  0.0720 -0.1536
  439DPPI    C1 6809  12.698  10.724  10.334  0.2119 -0.1870 -0.0481
  439DPPI    C2 6810  12.685  10.765  10.732  0.0732  0.0079 -0.0716
  439DPPI    C3 6811  12.743  10.404  10.570  0.1279 -0.0726  0.1251
  439DPPI   PO4 6812  12.645  11.036  10.304  0.0062  0.0497  0.1439
  439DPPI   GL1 6813  12.540  11.135   9.839  0.0514  0.1103 -0.3983
  439DPPI   GL2 6814  12.385  11.463   9.904 -0.2668  0.5596  0.1974
  439DPPI   C1A 6815  12.862  11.037   9.524 -0.1511  0.0413  0.0144
  439DPPI   C2A 6816  12.850  11.054   9.095 -0.1030  0.0685  0.1369
  439DPPI   C3A 6817  12.719  10.930   8.595 -0.0197  0.0251  0.0645
  439DPPI   C4A 6818  12.840  10.845   8.153 -0.4427  0.1803 -0.1892
  439DPPI   C1B 6819  12.642  11.520   9.453  0.2041 -0.1476  0.0986
  439DPPI   C2B 6820  12.566  11.474   8.999  0.3266  0.1576 -0.0564
  439DPPI   C3B 6821  12.596  11.649   8.605  0.0281 -0.3426  0.1020
  439DPPI   C4B 6822  12.584  11.908   8.391  0.3126  0.1420  0.1344
  440DPPI    C1 6823  16.404   7.537  10.751  0.3033 -0.2076  0.0624
  440DPPI    C2 6824  16.227   7.218  10.915 -0.0260 -0.0240  0.0712
  440DPPI    C3 6825  16.326   7.532  11.143  0.1337 -0.0452  0.0321
  440DPPI   PO4 6826  16.556   7.406  10.573 -0.1311 -0.3391 -0.1193
  440DPPI   GL1 6827  16.452   7.290  10.204 -0.1960 -0.2003 -0.1629
  440DPPI   GL2 6828  16.212   7.615  10.078  0.0507  0.1493 -0.0075
  440DPPI   C1A 6829  16.261   7.154   9.784 -0.2412 -0.0909  0.0609
  440DPPI   C2A 6830  16.292   7.124   9.305 -0.1550 -0.2764  0.1609
  440DPPI   C3A 6831  16.408   7.244   8.967  0.2016  0.0419 -0.0005
  440DPPI   C4A 6832  16.170   7.398   8.523  0.2934  0.1422 -0.2206
  440DPPI   C1B 6833  16.176   7.724   9.773 -0.0380  0.1248 -0.0017
  440DPPI   C2B 6834  16.140   7.599   9.308  0.1529 -0.0410  0.5625
  440DPPI   C3B 6835  16.123   7.756   8.899 -0.1426 -0.0062 -0.3152
  440DPPI   C4B 6836  16.057   7.929   8.474 -0.2401 -0.0908  0.1316
  441DPPI    C1 6837   2.192  13.709  10.565 -0.0523 -0.1040 -0.0937
  441DPPI    C2 6838   2.282  14.077  10.693 -0.0625 -0.0554 -0.2248
  441DPPI    C3 6839   2.015  13.856  10.892  0.0600 -0.0527 -0.0555
  441DPPI   PO4 6840   2.194  13.747  10.305 -0.1232  0.0291 -0.3185
  441DPPI   GL1 6841   2.083  13.697  10.008 -0.0731 -0.2139  0.0100
  441DPPI   GL2 6842   1.959  13.491   9.869  0.0050 -0.3367  0.2515
  441DPPI   C1A 6843   2.096  14.050   9.681 -0.0509 -0.1489 -0.5392
  441DPPI   C2A 6844   2.207  14.081   9.285 -0.1071 -0.2600  0.0990
  441DPPI   C3A 6845   2.101  14.242   8.882  0.2595  0.0689 -0.1418
  441DPPI   C4A 6846   2.053  14.398   8.513  0.0447  0.1357 -0.0054
  441DPPI   C1B 6847   2.001  13.599   9.410  0.1290  0.2307 -0.0577
  441DPPI   C2B 6848   1.864  13.781   9.003 -0.2275  0.2335  0.2009
  441DPPI   C3B 6849   2.108  13.774   8.742 -0.1937 -0.2892  0.2640
  441DPPI   C4B 6850   2.413  14.046   8.455  0.2067 -0.0486  0.0738
  442DPPI    C1 6851  11.159   5.230  10.171 -0.2120 -0.1200 -0.0136
  442DPPI    C2 6852  10.839   5.233  10.410 -0.0594  0.0141  0.1917
  442DPPI    C3 6853  11.133   5.498  10.466  0.1062 -0.1328  0.0292
  442DPPI   PO4 6854  11.019   5.126   9.926  0.0203 -0.1219 -0.0205
  442DPPI   GL1 6855  10.891   4.824   9.694 -0.0890 -0.1768  0.2503
  442DPPI   GL2 6856  11.131   4.664   9.761 -0.0747 -0.1814  0.2782
  442DPPI   C1A 6857  10.932   4.786   9.268 -0.0433 -0.0198  0.1879
  442DPPI   C2A 6858  10.873   4.749   8.842 -0.3748  0.0679  0.0202
  442DPPI   C3A 6859  11.083   4.527   8.469 -0.0713 -0.1665 -0.2347
  442DPPI   C4A 6860  10.976   4.179   8.121 -0.1258  0.0069 -0.0962
  442DPPI   C1B 6861  11.377   4.792   9.454 -0.2049  0.1411  0.0841
  442DPPI   C2B 6862  11.586   4.766   9.123  0.1799  0.5395  0.2131
  442DPPI   C3B 6863  11.741   4.785   8.639  0.0480 -0.0685  0.1072
  442DPPI   C4B 6864  11.449   4.740   8.224 -0.0972 -0.3459 -0.0938
  443DPPI    C1 6865  10.310   4.074  10.261  0.1447 -0.4538 -0.2929
  443DPPI    C2 6866   9.953   3.911  10.335  0.1568 -0.2295  0.3203
  443DPPI    C3 6867  10.283   3.685  10.352  0.0785 -0.3675  0.0712
  443DPPI   PO4 6868  10.251   4.115   9.990 -0.0826  0.2741  0.0533
  443DPPI   GL1 6869  10.504   4.025   9.636  0.2520  0.0192  0.4082
  443DPPI   GL2 6870  10.590   4.304   9.539 -0.2247 -0.2275  0.0491
  443DPPI   C1A 6871  10.409   3.871   9.229  0.1926 -0.0088  0.0493
  443DPPI   C2A 6872  10.469   3.694   8.782  0.3940  0.0194  0.1174
  443DPPI   C3A 6873  10.678   3.771   8.311 -0.1061 -0.2242  0.1408
  443DPPI   C4A 6874  10.464   3.818   7.902  0.1130 -0.1630  0.0843
  443DPPI   C1B 6875  10.645   4.315   9.070  0.1098  0.1285  0.1369
  443DPPI   C2B 6876  10.695   4.261   8.641 -0.0102  0.3254 -0.3849
  443DPPI   C3B 6877  10.530   4.322   8.178  0.1282 -0.0684  0.0881
  443DPPI   C4B 6878  10.154   4.539   7.962 -0.2242  0.0424 -0.0359
  444DPPI    C1 6879  11.006   4.008  10.238 -0.1767  0.2048  0.1149
  444DPPI    C2 6880  10.825   3.799  10.528 -0.2892  0.1651  0.0170
  444DPPI    C3 6881  11.119   4.055  10.619 -0.1906  0.0086  0.1444
  444DPPI   PO4 6882  11.114   3.735  10.146 -0.1996  0.3865 -0.1001
  444DPPI   GL1 6883  11.398   3.435   9.893  0.0949  0.0408 -0.3155
  444DPPI   GL2 6884  11.124   3.280   9.839 -0.0293 -0.2621 -0.0322
  444DPPI   C1A 6885  11.675   3.369   9.583  0.1567 -0.1881 -0.1146
  444DPPI   C2A 6886  11.727   3.286   9.145  0.0782  0.0332  0.1694
  444DPPI   C3A 6887  11.837   3.314   8.793  0.1149  0.1405  0.1356
  444DPPI   C4A 6888  11.728   3.229   8.314 -0.1200  0.1427  0.0044
  444DPPI   C1B 6889  11.240   3.441   9.345  0.2927 -0.2088  0.0749
  444DPPI   C2B 6890  11.267   3.337   8.943  0.0210 -0.0760  0.0295
  444DPPI   C3B 6891  11.290   3.282   8.561  0.1943  0.1937 -0.0481
  444DPPI   C4B 6892  11.320   3.228   8.015  0.1469  0.1436  0.2593
  445DPPI    C1 6893   7.025  13.338  10.503  0.0189  0.0457  0.1913
  445DPPI    C2 6894   6.744  13.560  10.681 -0.0425 -0.0127  0.1678
  445DPPI    C3 6895   6.966  13.307  10.897 -0.0843 -0.0486  0.1690
  445DPPI   PO4 6896   6.922  13.366  10.255 -0.0687  0.1697  0.1997
  445DPPI   GL1 6897   6.992  13.558   9.945 -0.2550  0.0501  0.0081
  445DPPI   GL2 6898   7.293  13.812   9.974  0.1404  0.0322  0.1102
  445DPPI   C1A 6899   6.934  13.648   9.540  0.0134 -0.1008  0.1516
  445DPPI   C2A 6900   6.978  13.697   9.185 -0.1517 -0.0051 -0.1401
  445DPPI   C3A 6901   7.052  13.646   8.766  0.0767 -0.2009  0.0303
  445DPPI   C4A 6902   7.149  13.707   8.390  0.1288  0.0167 -0.1126
  445DPPI   C1B 6903   7.436  13.696   9.573 -0.0612  0.0842  0.3646
  445DPPI   C2B 6904   7.479  13.755   9.156  0.1812 -0.0652 -0.0718
  445DPPI   C3B 6905   7.506  13.884   8.709  0.0758 -0.0674 -0.2775
  445DPPI   C4B 6906   7.426  14.137   8.354 -0.0913  0.0030  0.1828
  446DPPI    C1 6907  12.403   5.152  10.657  0.1674  0.0888 -0.0848
  446DPPI    C2 6908  12.365   4.882  10.949 -0.1186  0.1937 -0.0215
  446DPPI    C3 6909  12.253   5.261  11.012  0.0914  0.2829 -0.1749
  446DPPI   PO4 6910  12.618   5.131  10.541 -0.2305  0.1706 -0.1806
  446DPPI   GL1 6911  12.713   5.207  10.105 -0.0834 -0.0734  0.0171
  446DPPI   GL2 6912  12.726   4.849  10.147 -0.5135  0.1023 -0.0901
  446DPPI   C1A 6913  12.756   5.249   9.614  0.1112 -0.1201  0.3767
  446DPPI   C2A 6914  12.702   5.360   9.280  0.1387  0.0384 -0.1455
  446DPPI   C3A 6915  12.641   5.352   8.836  0.2987  0.3811  0.1319
  446DPPI   C4A 6916  12.526   5.145   8.409 -0.1912 -0.1252 -0.2675
  446DPPI   C1B 6917  13.016   4.877   9.826  0.1464  0.1446 -0.0346
  446DPPI   C2B 6918  13.211   5.174   9.418 -0.0123  0.1802 -0.1652
  446DPPI   C3B 6919  13.114   5.314   8.990 -0.0916  0.0349 -0.0880
  446DPPI   C4B 6920  12.985   5.320   8.524 -0.0074 -0.1742  0.2432
  447DPPI    C1 6921   3.019   9.094   9.926  0.0010 -0.0474 -0.1530
  447DPPI    C2 6922   3.355   9.145  10.138 -0.0224 -0.2436 -0.0671
  447DPPI    C3 6923   3.003   9.111  10.325 -0.0882 -0.0647 -0.1557
  447DPPI   PO4 6924   2.974   9.236   9.712  0.1786  0.0131 -0.1572
  447DPPI   GL1 6925   2.757   9.130   9.450 -0.0965  0.1122 -0.0682
  447DPPI   GL2 6926   2.422   9.213   9.567 -0.3301  0.0935  0.0640
  447DPPI   C1A 6927   2.505   8.889   9.113 -0.0513  0.1029 -0.1390
  447DPPI   C2A 6928   2.356   8.759   8.651  0.0941 -0.1769  0.1523
  447DPPI   C3A 6929   2.176   8.864   8.181  0.0595 -0.2325  0.0313
  447DPPI   C4A 6930   2.056   9.076   7.920  0.0431  0.0241  0.1280
  447DPPI   C1B 6931   2.097   9.012   9.378 -0.1067 -0.0484  0.0772
  447DPPI   C2B 6932   1.973   8.959   8.986 -0.0734 -0.1458 -0.0091
  447DPPI   C3B 6933   1.961   9.068   8.545 -0.1882 -0.0870 -0.3168
  447DPPI   C4B 6934   1.679   9.210   8.183  0.0711 -0.2186 -0.2203
  448DPPI    C1 6935  10.253   6.975  10.188 -0.1312  0.3148  0.1179
  448DPPI    C2 6936  10.440   6.993  10.541  0.1868  0.1649 -0.0387
  448DPPI    C3 6937  10.088   6.805  10.510  0.1746  0.1475  0.1900
  448DPPI   PO4 6938  10.417   7.194   9.979  0.1006  0.1344 -0.4189
  448DPPI   GL1 6939  10.587   7.186   9.611 -0.4201 -0.1755 -0.0251
  448DPPI   GL2 6940  10.855   7.364   9.614  0.0143 -0.2446  0.0618
  448DPPI   C1A 6941  10.644   7.161   9.175  0.2443 -0.2186  0.0790
  448DPPI   C2A 6942  10.652   6.819   8.915 -0.1440 -0.0907  0.1374
  448DPPI   C3A 6943  10.635   6.606   8.525 -0.0100 -0.1505  0.1538
  448DPPI   C4A 6944  10.632   6.382   8.145  0.0531  0.0222  0.0254
  448DPPI   C1B 6945  11.094   7.321   9.249 -0.1299 -0.0439 -0.0880
  448DPPI   C2B 6946  11.093   7.066   8.870  0.0452 -0.2764 -0.0562
  448DPPI   C3B 6947  11.117   6.990   8.451  0.0416 -0.3512  0.1080
  448DPPI   C4B 6948  11.503   6.926   8.236 -0.2271 -0.0667 -0.0033
  449DPPI    C1 6949   8.969   7.287  10.413 -0.0259  0.0220  0.0382
  449DPPI    C2 6950   9.163   7.562  10.628 -0.0117 -0.1027  0.1864
  449DPPI    C3 6951   9.313   7.192  10.593 -0.0227 -0.0887 -0.0245
  449DPPI   PO4 6952   8.834   7.487  10.183 -0.1029  0.3509  0.1207
  449DPPI   GL1 6953   8.876   7.257   9.767  0.0699 -0.2792 -0.0984
  449DPPI   GL2 6954   8.558   7.213   9.569 -0.2704  0.3169 -0.0114
  449DPPI   C1A 6955   8.919   7.484   9.269 -0.3544 -0.0257  0.2829
  449DPPI   C2A 6956   8.907   7.542   8.806 -0.2422 -0.1548  0.1898
  449DPPI   C3A 6957   8.753   7.549   8.355 -0.0427 -0.1466 -0.2749
  449DPPI   C4A 6958   8.527   7.661   8.005  0.0099 -0.0270  0.2114
  449DPPI   C1B 6959   8.374   7.367   9.241  0.1832  0.0570 -0.7209
  449DPPI   C2B 6960   8.402   7.429   8.827  0.2635 -0.0003 -0.1650
  449DPPI   C3B 6961   8.256   7.339   8.449  0.1506  0.2901  0.3430
  449DPPI   C4B 6962   8.077   7.456   8.148 -0.0178 -0.1864 -0.1316
  450DPPI    C1 6963   6.050   3.897  10.276 -0.0841 -0.1149 -0.1271
  450DPPI    C2 6964   5.659   3.916  10.356 -0.0074 -0.0990  0.2598
  450DPPI    C3 6965   5.912   4.168  10.535  0.1759 -0.0740 -0.0285
  450DPPI   PO4 6966   6.066   3.801  10.038  0.0936 -0.0416  0.0279
  450DPPI   GL1 6967   6.301   3.444   9.805 -0.4173 -0.0980  0.2236
  450DPPI   GL2 6968   6.330   3.153   9.858 -0.0607  0.0152 -0.2038
  450DPPI   C1A 6969   6.319   3.398   9.325 -0.2695 -0.0716  0.0660
  450DPPI   C2A 6970   6.097   3.320   9.042  0.1051 -0.1472  0.1448
  450DPPI   C3A 6971   5.754   3.135   8.796  0.0734 -0.0471 -0.0724
  450DPPI   C4A 6972   5.959   2.842   8.512  0.0273 -0.0085  0.0617
  450DPPI   C1B 6973   6.244   2.928   9.521 -0.0533 -0.2071 -0.1287
  450DPPI   C2B 6974   6.291   2.886   9.074 -0.3055  0.1486 -0.1747
  450DPPI   C3B 6975   6.407   2.809   8.760  0.0869  0.0600 -0.0513
  450DPPI   C4B 6976   6.403   2.764   8.285  0.1967  0.1835 -0.3304
  451DPPI    C1 6977   2.009   1.566  10.531  0.0178  0.0907 -0.1973
  451DPPI    C2 6978   1.633   1.456  10.451  0.0504 -0.1503 -0.0273
  451DPPI    C3 6979   1.738   1.553  10.825  0.1413 -0.0154 -0.0872
  451DPPI   PO4 6980   2.061   1.803  10.400  0.1210 -0.2657 -0.1598
  451DPPI   GL1 6981   2.084   1.976  10.044 -0.0330 -0.0277  0.0930
  451DPPI   GL2 6982   1.892   2.322  10.012 -0.0028 -0.1815 -0.3112
  451DPPI   C1A 6983   2.244   1.809   9.751  0.1447  0.1059  0.1034
  451DPPI   C2A 6984   2.362   1.761   9.387 -0.2407  0.0978  0.0128
  451DPPI   C3A 6985   2.362   1.791   8.943  0.0399 -0.0618  0.2443
  451DPPI   C4A 6986   2.166   1.781   8.577 -0.0851 -0.1536 -0.1472
  451DPPI   C1B 6987   1.962   2.184   9.564  0.0292 -0.2418 -0.0090
  451DPPI   C2B 6988   2.060   2.237   9.110  0.2085  0.1863  0.0750
  451DPPI   C3B 6989   2.057   2.269   8.704  0.2556 -0.0236  0.0978
  451DPPI   C4B 6990   2.029   2.299   8.196 -0.0040 -0.0296  0.0655
  452DPPI    C1 6991  16.978   6.462  11.010 -0.1539 -0.0210  0.1249
  452DPPI    C2 6992  16.804   6.613  11.336 -0.1075  0.0814  0.1026
  452DPPI    C3 6993  17.025   6.848  11.101 -0.3627  0.0730 -0.1514
  452DPPI   PO4 6994  16.731   6.339  10.848  0.2638 -0.2152  0.1019
  452DPPI   GL1 6995  16.684   6.469  10.429  0.1263 -0.0321 -0.0386
  452DPPI   GL2 6996  16.553   6.781  10.195 -0.2145 -0.2596  0.1002
  452DPPI   C1A 6997  16.725   6.255  10.066 -0.0680 -0.1319 -0.0899
  452DPPI   C2A 6998  16.722   6.010   9.791  0.0140 -0.1258 -0.0148
  452DPPI   C3A 6999  16.694   6.203   9.407 -0.0655  0.2622  0.0335
  452DPPI   C4A 7000  16.683   6.264   9.030 -0.1250 -0.3169  0.1889
  452DPPI   C1B 7001  16.490   6.737   9.748  0.0847 -0.0711  0.1202
  452DPPI   C2B 7002  16.485   6.679   9.282 -0.0690 -0.0005  0.0607
  452DPPI   C3B 7003  16.474   6.724   8.872  0.0912  0.0788 -0.0999
  452DPPI   C4B 7004  16.587   7.012   8.555 -0.0545 -0.2770 -0.0718
  453DPPI    C1 7005  15.062   2.611  10.916  0.0198 -0.0195 -0.0594
  453DPPI    C2 7006  14.824   2.834  11.148 -0.2582 -0.1596 -0.2045
  453DPPI    C3 7007  14.842   2.438  11.202 -0.0597 -0.1510 -0.1989
  453DPPI   PO4 7008  14.960   2.630  10.644  0.0362  0.0730 -0.3370
  453DPPI   GL1 7009  14.836   2.509  10.245  0.0915 -0.1933  0.0231
  453DPPI   GL2 7010  14.856   2.110  10.217  0.2292  0.1883 -0.1921
  453DPPI   C1A 7011  14.945   2.347   9.822  0.1152  0.1301 -0.1875
  453DPPI   C2A 7012  14.931   2.188   9.418  0.0858  0.2529  0.2097
  453DPPI   C3A 7013  14.833   2.023   9.004 -0.1574  0.2115  0.2997
  453DPPI   C4A 7014  14.912   2.119   8.590  0.0170 -0.0874  0.2441
  453DPPI   C1B 7015  14.924   1.846   9.802  0.0535 -0.0474  0.2556
  453DPPI   C2B 7016  14.649   1.657   9.531  0.2628  0.0153  0.0910
  453DPPI   C3B 7017  14.651   1.556   9.109 -0.1021 -0.2430 -0.0259
  453DPPI   C4B 7018  14.706   1.625   8.688  0.2973 -0.0044  0.3202
  454DPPI    C1 7019  11.101   9.549  10.389 -0.0382 -0.2259 -0.2268
  454DPPI    C2 7020  11.486   9.451  10.433 -0.0272 -0.0250  0.1762
  454DPPI    C3 7021  11.209   9.164  10.405  0.1461 -0.1705 -0.0918
  454DPPI   PO4 7022  11.128   9.748  10.134  0.1412  0.0579 -0.0038
  454DPPI   GL1 7023  11.047   9.659   9.732 -0.0683 -0.0031 -0.0981
  454DPPI   GL2 7024  10.725   9.799   9.712  0.2448 -0.0679 -0.1349
  454DPPI   C1A 7025  11.068   9.506   9.344  0.0894 -0.1235  0.0066
  454DPPI   C2A 7026  11.130   9.594   8.935  0.0141  0.3427  0.0723
  454DPPI   C3A 7027  11.179   9.845   8.631  0.2528  0.0513 -0.1477
  454DPPI   C4A 7028  11.119  10.109   8.114 -0.1354 -0.4156 -0.1112
  454DPPI   C1B 7029  10.668   9.765   9.303  0.0672 -0.2440  0.1263
  454DPPI   C2B 7030  10.658   9.783   8.936  0.3600 -0.3025  0.0030
  454DPPI   C3B 7031  10.732   9.533   8.558  0.3867 -0.0444  0.0179
  454DPPI   C4B 7032  10.917   9.384   8.199  0.2163  0.3445  0.3008
  455DPPI    C1 7033   7.800   3.106  10.468  0.0517 -0.0289 -0.0339
  455DPPI    C2 7034   7.970   3.052  10.826 -0.3734  0.3818  0.2422
  455DPPI    C3 7035   8.104   3.340  10.582 -0.0015  0.0210  0.0055
  455DPPI   PO4 7036   7.851   2.918  10.252  0.2093  0.1771  0.1268
  455DPPI   GL1 7037   8.028   2.784   9.848 -0.1000 -0.0554 -0.1189
  455DPPI   GL2 7038   8.084   3.150   9.687  0.0961  0.0156 -0.1446
  455DPPI   C1A 7039   7.777   2.720   9.491 -0.0245  0.0570  0.3339
  455DPPI   C2A 7040   7.625   2.785   9.091 -0.0042 -0.0595  0.1241
  455DPPI   C3A 7041   7.371   2.676   8.671  0.4019 -0.0640 -0.2485
  455DPPI   C4A 7042   7.456   2.889   8.169 -0.2355 -0.1510 -0.1721
  455DPPI   C1B 7043   7.864   3.282   9.286  0.1638 -0.0776 -0.0663
  455DPPI   C2B 7044   7.721   3.246   8.845 -0.0206  0.1154  0.1561
  455DPPI   C3B 7045   7.994   3.278   8.582  0.0433 -0.0412 -0.2493
  455DPPI   C4B 7046   8.023   3.244   8.227 -0.1407  0.0592  0.1822
  456DPPI    C1 7047   1.652  15.801  10.653 -0.0979 -0.1712  0.1155
  456DPPI    C2 7048   1.753  15.456  10.829 -0.1002 -0.2888 -0.1111
  456DPPI    C3 7049   1.990  15.776  10.866 -0.1224 -0.2996  0.1402
  456DPPI   PO4 7050   1.635  15.693  10.366 -0.0534  0.0634  0.0366
  456DPPI   GL1 7051   1.517  15.957   9.994 -0.1049  0.0564  0.1263
  456DPPI   GL2 7052   1.186  16.039  10.035  0.2552 -0.1301 -0.0967
  456DPPI   C1A 7053   1.520  15.852   9.572 -0.1699 -0.1388 -0.1022
  456DPPI   C2A 7054   1.684  15.840   9.113  0.0621 -0.0041  0.2888
  456DPPI   C3A 7055   1.848  15.741   8.808  0.2003 -0.1822 -0.0251
  456DPPI   C4A 7056   2.073  15.850   8.478  0.0101 -0.1140  0.2437
  456DPPI   C1B 7057   1.119  16.146   9.667  0.0250 -0.2967  0.1179
  456DPPI   C2B 7058   1.191  16.190   9.158  0.0028  0.0140  0.1189
  456DPPI   C3B 7059   1.093  16.109   8.762  0.3074 -0.1489  0.1820
  456DPPI   C4B 7060   1.067  16.157   8.253  0.2020  0.2064 -0.1190
  457DPPI    C1 7061  11.070   0.929  10.843 -0.1939 -0.0823 -0.2046
  457DPPI    C2 7062  10.961   0.692  11.146  0.1512 -0.0894 -0.0805
  457DPPI    C3 7063  10.783   1.047  11.096  0.0982 -0.0839  0.1362
  457DPPI   PO4 7064  11.069   0.719  10.562 -0.0940  0.1498 -0.3203
  457DPPI   GL1 7065  11.034   0.602  10.124 -0.0482 -0.2880 -0.1087
  457DPPI   GL2 7066  11.029   0.361   9.987  0.0398 -0.3459 -0.0133
  457DPPI   C1A 7067  11.152   0.796   9.759 -0.1228 -0.0447  0.4166
  457DPPI   C2A 7068  11.375   0.868   9.327  0.0977 -0.1156  0.1289
  457DPPI   C3A 7069  11.308   0.866   8.941 -0.1751 -0.0313 -0.0234
  457DPPI   C4A 7070  11.247   0.904   8.619 -0.0680 -0.3310  0.1877
  457DPPI   C1B 7071  11.128   0.325   9.603  0.1055  0.2440 -0.2378
  457DPPI   C2B 7072  11.160   0.161   9.121  0.0667 -0.1528 -0.2331
  457DPPI   C3B 7073  11.054   0.160   8.683 -0.1435 -0.2348  0.1977
  457DPPI   C4B 7074  10.783   0.184   8.279 -0.0320  0.0175 -0.1464
  458DPPI    C1 7075   4.958  17.507  10.189  0.0958  0.1465 -0.1158
  458DPPI    C2 7076   4.787  17.146  10.207  0.3101  0.0520  0.0625
  458DPPI    C3 7077   4.561  17.471  10.155  0.1292 -0.1195 -0.2497
  458DPPI   PO4 7078   5.117  17.604  10.336 -0.0805  0.0128  0.0999
  458DPPI   GL1 7079   5.614  17.683  10.096 -0.0194 -0.0044  0.2000
  458DPPI   GL2 7080   5.438  17.361  10.083  0.2989 -0.0783  0.1353
  458DPPI   C1A 7081   5.886  17.533   9.688 -0.0685 -0.2954  0.0695
  458DPPI   C2A 7082   6.040  17.386   9.310 -0.2135 -0.1692  0.1839
  458DPPI   C3A 7083   5.909  17.057   9.061  0.0121 -0.1128 -0.3093
  458DPPI   C4A 7084   5.757  16.830   8.692 -0.1351  0.1397 -0.0361
  458DPPI   C1B 7085   5.552  17.182   9.784 -0.0727 -0.1194  0.0915
  458DPPI   C2B 7086   5.498  16.894   9.460 -0.1939 -0.2449 -0.1163
  458DPPI   C3B 7087   5.300  16.909   9.128  0.0654  0.2230 -0.1070
  458DPPI   C4B 7088   5.223  17.014   8.782 -0.3411  0.0697 -0.1067
  459DPPI    C1 7089   8.243   2.042  10.519 -0.1219 -0.0303  0.3247
  459DPPI    C2 7090   8.092   2.408  10.570  0.0232  0.0884 -0.0595
  459DPPI    C3 7091   8.475   2.337  10.658 -0.0492 -0.0182  0.1792
  459DPPI   PO4 7092   8.285   1.983  10.298 -0.0640 -0.0899  0.2299
  459DPPI   GL1 7093   8.176   2.115   9.857  0.1084  0.0552 -0.0789
  459DPPI   GL2 7094   8.046   1.757   9.810 -0.0776 -0.0511  0.0491
  459DPPI   C1A 7095   8.204   2.318   9.509  0.0198 -0.5197 -0.0192
  459DPPI   C2A 7096   8.046   2.302   9.157  0.1635  0.1103 -0.0854
  459DPPI   C3A 7097   7.782   2.363   8.757  0.0476 -0.1856 -0.0593
  459DPPI   C4A 7098   7.527   2.337   8.339  0.1111  0.2613  0.0358
  459DPPI   C1B 7099   8.060   1.812   9.364  0.1211 -0.1265  0.0118
  459DPPI   C2B 7100   7.949   1.866   8.921 -0.1708 -0.0158 -0.0712
  459DPPI   C3B 7101   8.090   1.647   8.586 -0.0437  0.0672  0.1356
  459DPPI   C4B 7102   8.191   1.598   8.164 -0.0856 -0.0116 -0.4015
  460DPPI    C1 7103   1.039   9.582  10.652 -0.1767 -0.2207 -0.0024
  460DPPI    C2 7104   1.194   9.357  10.944  0.3503  0.0062 -0.0967
  460DPPI    C3 7105   1.139   9.749  11.001  0.0549 -0.0238 -0.1600
  460DPPI   PO4 7106   1.140   9.480  10.451 -0.0271 -0.1232  0.1594
  460DPPI   GL1 7107   1.123   9.487  10.050  0.0707  0.4182  0.1550
  460DPPI   GL2 7108   1.346   9.721   9.912  0.2632  0.0245  0.0654
  460DPPI   C1A 7109   0.999   9.308   9.716  0.1402 -0.0552 -0.0385
  460DPPI   C2A 7110   0.879   9.274   9.422 -0.2287  0.1531  0.0958
  460DPPI   C3A 7111   0.904   9.125   9.138  0.1257 -0.2823 -0.0265
  460DPPI   C4A 7112   0.794   9.134   8.725 -0.0747 -0.0470  0.1074
  460DPPI   C1B 7113   1.150   9.724   9.406 -0.0520  0.2122  0.0559
  460DPPI   C2B 7114   0.961   9.598   9.052 -0.0307  0.1357  0.0199
  460DPPI   C3B 7115   0.905   9.672   8.589 -0.0283 -0.2241  0.1546
  460DPPI   C4B 7116   0.979   9.843   8.169 -0.1723  0.1928 -0.2144
  461DPPI    C1 7117  11.033   6.425  10.353 -0.0788 -0.0006  0.0701
  461DPPI    C2 7118  10.837   6.261  10.662  0.1753  0.0174  0.2439
  461DPPI    C3 7119  10.903   6.656  10.653  0.1649  0.0175  0.1640
  461DPPI   PO4 7120  10.906   6.309  10.131 -0.0443 -0.0108 -0.3488
  461DPPI   GL1 7121  10.982   6.606   9.730  0.1188  0.1961  0.0378
  461DPPI   GL2 7122  11.237   6.504   9.740  0.3791  0.1975 -0.4561
  461DPPI   C1A 7123  10.981   6.795   9.320  0.2801  0.2194  0.1019
  461DPPI   C2A 7124  11.108   6.579   8.970  0.3089  0.0626  0.4297
  461DPPI   C3A 7125  11.082   6.525   8.380 -0.0511 -0.0781  0.1797
  461DPPI   C4A 7126  11.130   6.735   7.977 -0.1369  0.3552 -0.5375
  461DPPI   C1B 7127  11.233   6.227   9.368 -0.2821  0.2131  0.0300
  461DPPI   C2B 7128  11.339   6.134   8.904  0.1911  0.2119  0.1661
  461DPPI   C3B 7129  11.439   5.986   8.407  0.3353 -0.1264  0.1820
  461DPPI   C4B 7130  11.517   6.022   8.003 -0.0931 -0.0341  0.1108
  462DPPI    C1 7131  13.395  11.657  10.460  0.0546  0.3453 -0.2145
  462DPPI    C2 7132  13.152  11.626  10.776  0.2171 -0.2049 -0.1328
  462DPPI    C3 7133  13.395  11.942  10.740 -0.2655  0.1875 -0.0490
  462DPPI   PO4 7134  13.175  11.507  10.273 -0.0143  0.1264 -0.0183
  462DPPI   GL1 7135  12.824  11.726   9.896 -0.1075 -0.0093 -0.3220
  462DPPI   GL2 7136  13.021  11.386   9.849 -0.0150 -0.1011  0.0460
  462DPPI   C1A 7137  12.589  11.968   9.677  0.0034 -0.0677 -0.0932
  462DPPI   C2A 7138  12.340  11.943   9.342  0.0721 -0.0306  0.0767
  462DPPI   C3A 7139  12.023  12.114   9.200 -0.4256 -0.2411  0.1380
  462DPPI   C4A 7140  11.786  12.052   8.947  0.0166  0.0881  0.0724
  462DPPI   C1B 7141  13.246  11.545   9.498  0.1510 -0.1069  0.2803
  462DPPI   C2B 7142  13.064  11.481   9.132 -0.2296 -0.1546  0.1117
  462DPPI   C3B 7143  13.050  11.374   8.737  0.2650 -0.1212 -0.1056
  462DPPI   C4B 7144  12.999  11.613   8.266 -0.1703  0.0710 -0.2195
  463DPPI    C1 7145   4.934  10.912  10.420  0.0345  0.2335  0.1917
  463DPPI    C2 7146   5.192  11.197  10.533  0.2602  0.1405 -0.0764
  463DPPI    C3 7147   5.264  10.814  10.624  0.1839  0.1204 -0.0995
  463DPPI   PO4 7148   4.802  11.027  10.180 -0.0374 -0.0625 -0.2037
  463DPPI   GL1 7149   4.769  11.331   9.728  0.1001  0.3087 -0.2525
  463DPPI   GL2 7150   4.591  11.166   9.631  0.0958 -0.1582  0.0663
  463DPPI   C1A 7151   4.751  11.455   9.295  0.2561 -0.0434  0.1678
  463DPPI   C2A 7152   4.769  11.460   8.910 -0.1386  0.0507 -0.0598
  463DPPI   C3A 7153   4.676  11.560   8.539  0.2012 -0.2153  0.0600
  463DPPI   C4A 7154   4.607  11.617   8.189 -0.0446 -0.0850  0.3116
  463DPPI   C1B 7155   4.762  10.933   9.234  0.0287  0.0429  0.1389
  463DPPI   C2B 7156   4.787  10.896   8.722 -0.1842  0.2509  0.0033
  463DPPI   C3B 7157   4.810  11.158   8.335  0.0386  0.2351  0.4481
  463DPPI   C4B 7158   5.058  11.429   8.116 -0.1197  0.2583  0.4479
  464DPPI    C1 7159  11.946   5.449  10.335  0.1661  0.4007 -0.2150
  464DPPI    C2 7160  11.629   5.629  10.501 -0.0176 -0.1721  0.0803
  464DPPI    C3 7161  11.947   5.538  10.725  0.0358 -0.2937 -0.0431
  464DPPI   PO4 7162  11.716   5.270  10.131 -0.0943  0.0748 -0.1390
  464DPPI   GL1 7163  11.697   5.288   9.744 -0.1151  0.2988  0.1638
  464DPPI   GL2 7164  11.425   5.162   9.729  0.2054 -0.0052 -0.0951
  464DPPI   C1A 7165  11.749   5.353   9.337  0.0810 -0.0348 -0.3969
  464DPPI   C2A 7166  11.730   5.179   8.922 -0.2130 -0.3292 -0.2847
  464DPPI   C3A 7167  11.502   5.188   8.486 -0.1471 -0.0538 -0.1368
  464DPPI   C4A 7168  11.586   5.182   8.016  0.1169 -0.0144 -0.0696
  464DPPI   C1B 7169  11.243   5.206   9.221 -0.0075 -0.0323 -0.2508
  464DPPI   C2B 7170  11.132   5.125   8.837 -0.0370  0.0191 -0.1183
  464DPPI   C3B 7171  11.032   5.043   8.452 -0.1829  0.0745  0.3386
  464DPPI   C4B 7172  11.043   5.171   8.013 -0.0746 -0.2923  0.1292
  465DPPI    C1 7173  11.802   4.759  10.436  0.0125  0.2417  0.0120
  465DPPI    C2 7174  11.925   4.626  10.793  0.0504  0.0575 -0.0681
  465DPPI    C3 7175  11.912   5.019  10.719  0.1030  0.0945  0.1139
  465DPPI   PO4 7176  11.923   4.615  10.279  0.2396  0.0205 -0.1634
  465DPPI   GL1 7177  11.745   4.496   9.810 -0.2244  0.2093 -0.0317
  465DPPI   GL2 7178  11.896   4.790   9.770  0.1158 -0.0492 -0.3018
  465DPPI   C1A 7179  11.723   4.372   9.390  0.0175 -0.2944  0.0089
  465DPPI   C2A 7180  11.803   4.251   8.991 -0.2156 -0.0480  0.0014
  465DPPI   C3A 7181  11.811   4.305   8.674  0.5114 -0.1441  0.0112
  465DPPI   C4A 7182  11.992   4.508   8.245 -0.1923  0.0821  0.1041
  465DPPI   C1B 7183  11.962   4.815   9.383  0.2432  0.0919 -0.3767
  465DPPI   C2B 7184  12.095   4.812   8.980 -0.1214  0.2242  0.3625
  465DPPI   C3B 7185  12.226   4.732   8.595  0.0480 -0.2802  0.1386
  465DPPI   C4B 7186  12.511   4.619   8.194 -0.0608  0.1363  0.1649
  466DPPI    C1 7187   8.531   6.042   9.668 -0.1641  0.0370  0.0424
  466DPPI    C2 7188   8.372   5.907  10.009 -0.2810  0.2711  0.0822
  466DPPI    C3 7189   8.690   5.724   9.852 -0.4506 -0.0646  0.1200
  466DPPI   PO4 7190   8.376   6.101   9.515 -0.1833  0.0713  0.0819
  466DPPI   GL1 7191   8.350   6.081   9.194  0.0596  0.0745  0.0121
  466DPPI   GL2 7192   8.322   5.770   9.111  0.0655 -0.1306 -0.1818
  466DPPI   C1A 7193   8.465   6.411   8.851 -0.0409  0.1366  0.1680
  466DPPI   C2A 7194   8.580   6.584   8.455 -0.2806  0.4953 -0.3104
  466DPPI   C3A 7195   8.531   6.578   8.096 -0.3867  0.0568  0.0332
  466DPPI   C4A 7196   8.331   6.589   7.717  0.4659  0.0813  0.0056
  466DPPI   C1B 7197   8.331   5.785   8.754 -0.1657 -0.0964  0.1868
  466DPPI   C2B 7198   8.380   5.847   8.312  0.2225  0.1560  0.0236
  466DPPI   C3B 7199   8.227   5.618   8.045  0.1851  0.2405 -0.1761
  466DPPI   C4B 7200   8.150   5.205   7.857 -0.1763  0.0602 -0.2629
  467DPPI    C1 7201  15.295  10.939  10.518 -0.0301  0.1037  0.0026
  467DPPI    C2 7202  15.387  10.560  10.610  0.0616  0.1658  0.1715
  467DPPI    C3 7203  15.427  10.848  10.885 -0.0560  0.2910  0.0592
  467DPPI   PO4 7204  15.423  11.060  10.331  0.0335 -0.1431 -0.1289
  467DPPI   GL1 7205  15.404  10.927   9.827  0.0493  0.5723 -0.2088
  467DPPI   GL2 7206  15.684  11.127   9.897 -0.3127 -0.1050 -0.2857
  467DPPI   C1A 7207  15.434  10.838   9.353 -0.1080  0.2999  0.0344
  467DPPI   C2A 7208  15.534  10.908   8.904 -0.3582  0.1233 -0.2495
  467DPPI   C3A 7209  15.434  11.081   8.526 -0.3994  0.0073 -0.0888
  467DPPI   C4A 7210  15.299  10.965   8.080 -0.2276 -0.0563  0.0853
  467DPPI   C1B 7211  15.753  11.241   9.526  0.1282  0.0067  0.1597
  467DPPI   C2B 7212  15.741  11.534   9.238  0.0517 -0.2236  0.2713
  467DPPI   C3B 7213  15.506  11.529   8.859 -0.1065 -0.2280  0.0998
  467DPPI   C4B 7214  15.441  11.572   8.464 -0.2869 -0.0924  0.1939
  468DPPI    C1 7215   6.246   3.426  10.336  0.1945 -0.1265 -0.0870
  468DPPI    C2 7216   6.060   3.570  10.660  0.1185  0.0433 -0.2044
  468DPPI    C3 7217   6.435   3.682  10.579  0.2161 -0.1703 -0.0577
  468DPPI   PO4 7218   6.107   3.226  10.300 -0.0632 -0.3259  0.1482
  468DPPI   GL1 7219   5.880   2.903  10.004 -0.0119 -0.0319  0.0429
  468DPPI   GL2 7220   6.128   2.680  10.101  0.0169 -0.0144 -0.0125
  468DPPI   C1A 7221   5.817   2.543   9.729 -0.0238  0.2760  0.0497
  468DPPI   C2A 7222   5.669   2.357   9.429  0.1004  0.2411 -0.0062
  468DPPI   C3A 7223   5.448   2.210   9.144  0.1101  0.2656 -0.1622
  468DPPI   C4A 7224   5.233   1.744   9.098 -0.0445 -0.0007  0.3673
  468DPPI   C1B 7225   6.275   2.412   9.761 -0.0608 -0.2349  0.2290
  468DPPI   C2B 7226   6.145   2.411   9.310  0.3951 -0.1201 -0.0653
  468DPPI   C3B 7227   6.054   2.470   8.871  0.0041  0.0953  0.0212
  468DPPI   C4B 7228   6.248   2.375   8.520 -0.1451  0.1207  0.0377
  469DPPI    C1 7229   1.546  15.166  10.401  0.1238 -0.0798  0.1896
  469DPPI    C2 7230   1.866  15.010  10.582  0.1371 -0.1937  0.0696
  469DPPI    C3 7231   1.506  14.985  10.755  0.1539 -0.2780  0.0930
  469DPPI   PO4 7232   1.494  15.139  10.206  0.1882 -0.2750 -0.2055
  469DPPI   GL1 7233   1.457  15.016   9.869  0.1288  0.1009 -0.0152
  469DPPI   GL2 7234   1.386  14.695   9.927  0.1333 -0.2629  0.0973
  469DPPI   C1A 7235   1.314  15.196   9.542  0.0758  0.1430  0.1472
  469DPPI   C2A 7236   1.395  15.293   9.130 -0.2421 -0.0873  0.0938
  469DPPI   C3A 7237   1.372  15.506   8.829  0.1499  0.2161  0.1432
  469DPPI   C4A 7238   1.402  15.846   8.500  0.0458 -0.1378  0.1519
  469DPPI   C1B 7239   1.409  14.731   9.401 -0.2565 -0.0527  0.3197
  469DPPI   C2B 7240   1.350  14.714   8.938  0.3210  0.0710 -0.1987
  469DPPI   C3B 7241   1.659  14.738   8.625 -0.0618  0.1360  0.1197
  469DPPI   C4B 7242   2.015  14.922   8.306  0.0249 -0.1389 -0.0466
  470DPPI    C1 7243  14.952  10.618  10.967  0.2211  0.1146 -0.1135
  470DPPI    C2 7244  15.037  10.238  11.060  0.3243  0.1229 -0.1728
  470DPPI    C3 7245  14.956  10.502  11.349  0.1308  0.0271 -0.1385
  470DPPI   PO4 7246  14.873  10.632  10.647 -0.1416  0.2415  0.0456
  470DPPI   GL1 7247  14.809  10.656  10.181 -0.1118 -0.0751  0.3284
  470DPPI   GL2 7248  15.107  10.565  10.160  0.2865 -0.1525 -0.0832
  470DPPI   C1A 7249  14.567  10.931   9.833  0.0720  0.1412 -0.4047
  470DPPI   C2A 7250  14.492  10.874   9.331  0.1671  0.0781 -0.0867
  470DPPI   C3A 7251  14.642  10.732   8.961 -0.4350  0.1185  0.0592
  470DPPI   C4A 7252  14.759  10.317   8.769 -0.0298  0.3667 -0.1400
  470DPPI   C1B 7253  15.058  10.537   9.745  0.2109  0.1535 -0.1422
  470DPPI   C2B 7254  15.049  10.529   9.288  0.0141 -0.0520  0.0657
  470DPPI   C3B 7255  15.240  10.472   8.886  0.0144 -0.2033  0.2614
  470DPPI   C4B 7256  15.485  10.531   8.572 -0.1742  0.1238 -0.0660
  471DPPI    C1 7257   0.643   2.902  10.825 -0.1178 -0.1163  0.2101
  471DPPI    C2 7258   0.781   3.206  11.045  0.1642 -0.0587 -0.0409
  471DPPI    C3 7259   0.725   2.848  11.213  0.3244 -0.0015  0.1377
  471DPPI   PO4 7260   0.761   2.944  10.521  0.1011  0.0917 -0.1477
  471DPPI   GL1 7261   0.663   3.165  10.084 -0.0329  0.2637  0.2070
  471DPPI   GL2 7262   0.426   2.983  10.146  0.2972 -0.3368 -0.1165
  471DPPI   C1A 7263   0.848   3.169   9.707 -0.1897  0.2869  0.1791
  471DPPI   C2A 7264   0.700   3.098   9.195  0.0110 -0.2431  0.0706
  471DPPI   C3A 7265   0.432   3.005   8.734 -0.1689 -0.0339 -0.0236
  471DPPI   C4A 7266   0.374   3.111   8.293 -0.2116 -0.4307 -0.1706
  471DPPI   C1B 7267   0.469   2.833   9.708 -0.2107  0.0872  0.2984
  471DPPI   C2B 7268   0.229   2.908   9.355 -0.1320  0.1277 -0.2116
  471DPPI   C3B 7269  -0.039   2.998   9.031 -0.0557 -0.2445  0.1613
  471DPPI   C4B 7270  -0.225   2.905   8.727 -0.0304 -0.2540  0.1500
  472DPPI    C1 7271   2.856   8.275   9.968 -0.2016  0.2647 -0.1474
  472DPPI    C2 7272   3.097   8.280  10.286 -0.3485 -0.0267 -0.0280
  472DPPI    C3 7273   3.089   8.592  10.037  0.0066  0.0674  0.0728
  472DPPI   PO4 7274   2.850   8.002   9.869 -0.0047  0.0708  0.0450
  472DPPI   GL1 7275   2.998   7.886   9.574  0.2270  0.1285 -0.3978
  472DPPI   GL2 7276   3.253   7.786   9.503 -0.0887 -0.2239 -0.0410
  472DPPI   C1A 7277   2.786   7.920   9.240 -0.2609  0.1079 -0.1424
  472DPPI   C2A 7278   2.834   7.847   8.751  0.2614  0.3355 -0.2690
  472DPPI   C3A 7279   2.935   8.148   8.365  0.1681 -0.2079  0.3694
  472DPPI   C4A 7280   2.865   8.309   7.928  0.0466 -0.1752 -0.0151
  472DPPI   C1B 7281   3.252   7.830   9.011  0.1338 -0.0294  0.1474
  472DPPI   C2B 7282   3.320   7.803   8.616 -0.3528  0.2809 -0.0421
  472DPPI   C3B 7283   3.476   7.551   8.320 -0.1237 -0.1001 -0.1234
  472DPPI   C4B 7284   3.546   7.279   7.876  0.1001  0.0615 -0.2121
  473PYPI    C1 7285   1.881  16.734  10.615 -0.1760  0.0241  0.0487
  473PYPI    C2 7286   1.697  17.038  10.430 -0.1931 -0.1220 -0.1787
  473PYPI    C3 7287   1.690  17.012  10.829 -0.1069  0.2296 -0.1516
  473PYPI   PO4 7288   1.964  16.589  10.319 -0.1307  0.2023 -0.0162
  473PYPI   GL1 7289   1.889  16.778  10.016  0.0831 -0.3586  0.0195
  473PYPI   GL2 7290   1.997  16.460   9.845  0.0415  0.1447 -0.0968
  473PYPI   C1A 7291   1.745  16.822   9.673  0.0913 -0.1954 -0.2116
  473PYPI   C2A 7292   1.631  16.795   9.333  0.3190 -0.3021  0.1708
  473PYPI   D3A 7293   1.665  16.827   8.870 -0.0429 -0.0575 -0.1998
  473PYPI   C4A 7294   1.783  16.685   8.428 -0.0385  0.1094 -0.0521
  473PYPI   C1B 7295   2.070  16.580   9.417  0.2166  0.1043  0.0943
  473PYPI   C2B 7296   2.027  16.619   9.086 -0.0440 -0.2807  0.0464
  473PYPI   C3B 7297   2.171  16.830   8.675  0.0276  0.0488  0.3473
  473PYPI   C4B 7298   2.432  16.598   8.279  0.1276  0.1072  0.3465
  474PYPI    C1 7299  15.542   9.115  10.601 -0.1966 -0.0661 -0.1097
  474PYPI    C2 7300  15.488   8.719  10.615  0.0208 -0.0931  0.0166
  474PYPI    C3 7301  15.474   8.934  10.951  0.2740 -0.0462 -0.0013
  474PYPI   PO4 7302  15.334   9.170  10.394 -0.2817  0.0454  0.1477
  474PYPI   GL1 7303  15.231   9.543  10.174 -0.0593  0.1525  0.0167
  474PYPI   GL2 7304  15.212   9.353   9.933  0.0502 -0.1243 -0.1614
  474PYPI   C1A 7305  15.511   9.806   9.944  0.2694  0.2448  0.0074
  474PYPI   C2A 7306  15.673   9.747   9.617 -0.0405  0.2211 -0.0661
  474PYPI   D3A 7307  15.542   9.864   9.300 -0.1047 -0.0086  0.3037
  474PYPI   C4A 7308  15.674   9.970   8.916 -0.3057  0.1523  0.2338
  474PYPI   C1B 7309  14.998   9.204   9.642  0.1970 -0.1587  0.0515
  474PYPI   C2B 7310  14.684   9.167   9.317  0.0661  0.1501  0.1202
  474PYPI   C3B 7311  14.783   9.273   8.962 -0.1537  0.2309 -0.0339
  474PYPI   C4B 7312  14.918   9.411   8.583  0.1339 -0.0798  0.1466
  475PYPI    C1 7313   6.748  15.045  10.486 -0.0498 -0.1380  0.1601
  475PYPI    C2 7314   6.639  15.344  10.728 -0.1622 -0.1696  0.1487
  475PYPI    C3 7315   6.614  14.965  10.855 -0.4113 -0.1988  0.0196
  475PYPI   PO4 7316   7.020  15.109  10.368  0.0024  0.0079 -0.0590
  475PYPI   GL1 7317   7.050  15.289  10.021  0.3159 -0.0348 -0.2346
  475PYPI   GL2 7318   7.389  15.195  10.011  0.1011 -0.0479  0.1486
  475PYPI   C1A 7319   7.051  15.356   9.542 -0.4688 -0.3443  0.1219
  475PYPI   C2A 7320   6.950  15.374   9.114 -0.3871  0.2966 -0.1192
  475PYPI   D3A 7321   7.058  15.467   8.788  0.0970  0.0962 -0.1601
  475PYPI   C4A 7322   7.550  15.523   8.760 -0.2886 -0.0849 -0.4365
  475PYPI   C1B 7323   7.508  15.178   9.627  0.0073 -0.0657 -0.0013
  475PYPI   C2B 7324   7.878  15.223   9.371 -0.2564 -0.2124  0.3597
  475PYPI   C3B 7325   8.004  15.157   8.968 -0.0043 -0.0319  0.3937
  475PYPI   C4B 7326   7.931  15.273   8.522 -0.0192 -0.1316 -0.2831
  476PYPI    C1 7327   3.085  13.040  10.490 -0.0126  0.1314 -0.0460
  476PYPI    C2 7328   3.111  12.653  10.587 -0.2382  0.1302  0.0136
  476PYPI    C3 7329   3.420  12.897  10.656 -0.1437 -0.0118  0.0985
  476PYPI   PO4 7330   2.888  13.050  10.319 -0.1026  0.0388 -0.2325
  476PYPI   GL1 7331   2.836  13.214   9.970  0.0885  0.1497  0.0457
  476PYPI   GL2 7332   3.164  13.224   9.804 -0.3238  0.1694  0.0193
  476PYPI   C1A 7333   2.760  13.335   9.525  0.1032 -0.4384  0.0701
  476PYPI   C2A 7334   2.760  13.314   9.007 -0.1592 -0.4045  0.0213
  476PYPI   D3A 7335   2.488  13.470   8.599 -0.0054 -0.2498  0.0881
  476PYPI   C4A 7336   2.633  13.532   8.247 -0.1740 -0.0073  0.2353
  476PYPI   C1B 7337   3.212  13.095   9.366  0.1742 -0.1758 -0.0347
  476PYPI   C2B 7338   3.219  13.235   8.938  0.2612  0.1323  0.2437
  476PYPI   C3B 7339   3.203  13.110   8.573 -0.4907  0.0739 -0.0523
  476PYPI   C4B 7340   3.361  12.816   8.350 -0.0904  0.0608 -0.4449
  477PYPI    C1 7341  10.328   7.988  10.164  0.0268 -0.1016 -0.0888
  477PYPI    C2 7342  10.700   7.986  10.312  0.0202 -0.0124 -0.0703
  477PYPI    C3 7343  10.386   7.980  10.560  0.0093 -0.0139 -0.0842
  477PYPI   PO4 7344  10.332   8.211   9.940 -0.0467  0.0832  0.0154
  477PYPI   GL1 7345  10.205   8.348   9.585 -0.1878 -0.0018 -0.2300
  477PYPI   GL2 7346  10.027   8.624   9.440 -0.1134  0.2760  0.1068
  477PYPI   C1A 7347  10.262   8.230   9.128  0.1698 -0.0635 -0.0229
  477PYPI   C2A 7348  10.154   8.325   8.717 -0.0834  0.0763  0.0596
  477PYPI   D3A 7349  10.093   8.157   8.320  0.3546 -0.2924  0.2422
  477PYPI   C4A 7350  10.363   7.865   7.990  0.0336  0.0746  0.0861
  477PYPI   C1B 7351  10.092   8.713   8.988  0.2224  0.0913 -0.1017
  477PYPI   C2B 7352  10.191   8.794   8.573 -0.0456  0.0842 -0.2412
  477PYPI   C3B 7353  10.175   8.682   8.183  0.0337 -0.0243 -0.0548
  477PYPI   C4B 7354  10.441   8.719   7.800  0.0767 -0.2752  0.2164
  478PYPI    C1 7355   2.294   3.189  10.238 -0.0510 -0.1117 -0.0888
  478PYPI    C2 7356   2.006   3.442  10.124 -0.1472 -0.1766  0.0080
  478PYPI    C3 7357   2.007   3.294  10.496  0.1884  0.0674  0.1094
  478PYPI   PO4 7358   2.453   3.175  10.253  0.0934 -0.0322 -0.0104
  478PYPI   GL1 7359   2.795   3.284   9.816 -0.0163  0.0964 -0.0353
  478PYPI   GL2 7360   2.456   3.225   9.731 -0.1365  0.0904  0.0537
  478PYPI   C1A 7361   2.924   3.199   9.435 -0.2985  0.0311 -0.2201
  478PYPI   C2A 7362   3.012   3.134   9.038  0.0366 -0.1289 -0.6403
  478PYPI   D3A 7363   3.061   3.299   8.676 -0.0709 -0.0824 -0.2572
  478PYPI   C4A 7364   3.063   3.527   8.331  0.2137 -0.0297 -0.2546
  478PYPI   C1B 7365   2.432   3.146   9.345 -0.3081 -0.0437 -0.3939
  478PYPI   C2B 7366   2.464   3.261   8.901  0.0409  0.2305  0.0314
  478PYPI   C3B 7367   2.528   3.459   8.522  0.1232  0.1040 -0.2704
  478PYPI   C4B 7368   2.568   3.458   8.159 -0.0063 -0.0279  0.2841
  479PYPI    C1 7369   2.689  15.539  10.732 -0.0693 -0.0847  0.1990
  479PYPI    C2 7370   2.368  15.402  10.927 -0.1407  0.0772  0.1972
  479PYPI    C3 7371   2.709  15.464  11.125 -0.1498  0.0340  0.2266
  479PYPI   PO4 7372   2.478  15.714  10.475 -0.0574 -0.0526 -0.2127
  479PYPI   GL1 7373   2.421  15.986  10.052  0.2738  0.0849 -0.2413
  479PYPI   GL2 7374   2.394  16.355  10.116  0.1503 -0.2369 -0.5351
  479PYPI   C1A 7375   2.015  15.941   9.778 -0.0577 -0.3106  0.4337
  479PYPI   C2A 7376   1.992  16.096   9.450  0.0877 -0.0665 -0.1541
  479PYPI   D3A 7377   2.158  15.997   9.042  0.0615 -0.2136  0.0062
  479PYPI   C4A 7378   2.153  16.323   8.676 -0.2425 -0.1361 -0.2510
  479PYPI   C1B 7379   2.494  16.277   9.633 -0.0605  0.1667 -0.0950
  479PYPI   C2B 7380   2.472  16.345   9.205  0.1359 -0.0547 -0.1343
  479PYPI   C3B 7381   2.579  16.552   8.854  0.1014 -0.0699  0.1091
  479PYPI   C4B 7382   2.866  16.554   8.590 -0.0612  0.0427 -0.0153
  480PYPI    C1 7383   7.723  14.623  10.562  0.2207  0.1876 -0.0034
  480PYPI    C2 7384   7.984  14.418  10.785 -0.2560 -0.4527 -0.0043
  480PYPI    C3 7385   7.689  14.623  10.961 -0.1258 -0.2451 -0.0245
  480PYPI   PO4 7386   7.830  14.517  10.296  0.1704  0.1910 -0.1289
  480PYPI   GL1 7387   7.638  14.439   9.941 -0.0691 -0.1540 -0.2016
  480PYPI   GL2 7388   7.732  14.127   9.849 -0.3790 -0.0195 -0.0555
  480PYPI   C1A 7389   8.028  14.476   9.610  0.1951  0.2622 -0.0232
  480PYPI   C2A 7390   8.054  14.686   9.343  0.2915  0.0082  0.3267
  480PYPI   D3A 7391   8.042  14.567   8.862 -0.0838 -0.2905  0.1186
  480PYPI   C4A 7392   7.680  14.487   8.609 -0.0681  0.0248  0.1853
  480PYPI   C1B 7393   7.682  14.171   9.457 -0.1033 -0.1772 -0.0314
  480PYPI   C2B 7394   7.760  14.196   8.997  0.2289 -0.1297 -0.1443
  480PYPI   C3B 7395   8.052  14.122   8.711 -0.1438 -0.1023  0.0737
  480PYPI   C4B 7396   8.098  14.311   8.323 -0.1358 -0.2565  0.0530
  481PYPI    C1 7397  12.776  15.239  10.388 -0.1347 -0.1127 -0.1421
  481PYPI    C2 7398  12.926  15.120  10.037  0.0981 -0.2514  0.0015
  481PYPI    C3 7399  13.172  15.238  10.330 -0.1022  0.0225  0.0639
  481PYPI   PO4 7400  12.565  15.284  10.355 -0.2802 -0.1278  0.1333
  481PYPI   GL1 7401  12.402  15.404   9.945  0.0500 -0.0068 -0.2326
  481PYPI   GL2 7402  12.045  15.518   9.942 -0.2885 -0.0734  0.2792
  481PYPI   C1A 7403  12.477  15.289   9.520 -0.3023  0.0432  0.2126
  481PYPI   C2A 7404  12.387  15.348   9.056  0.1537 -0.2263 -0.1127
  481PYPI   D3A 7405  12.436  15.335   8.597  0.1765 -0.0553  0.1025
  481PYPI   C4A 7406  12.631  15.197   8.198  0.1035 -0.0173  0.0126
  481PYPI   C1B 7407  12.009  15.440   9.530 -0.0945  0.1486 -0.7165
  481PYPI   C2B 7408  11.890  15.357   9.141 -0.2638 -0.3273  0.0217
  481PYPI   C3B 7409  12.023  15.605   8.832  0.4035  0.0858 -0.0123
  481PYPI   C4B 7410  12.131  15.748   8.428 -0.2011 -0.1051 -0.3434
  482PYPI    C1 7411   8.276  17.224  10.575  0.2113  0.0580 -0.1561
  482PYPI    C2 7412   8.349  17.110  10.951  0.0754 -0.0142 -0.1511
  482PYPI    C3 7413   8.633  17.296  10.740  0.1321  0.0801  0.0070
  482PYPI   PO4 7414   8.073  17.030  10.510 -0.1922 -0.1174 -0.0885
  482PYPI   GL1 7415   7.980  16.857  10.056  0.0191  0.2189 -0.4984
  482PYPI   GL2 7416   7.755  17.012   9.885 -0.1321 -0.2956 -0.1815
  482PYPI   C1A 7417   8.025  16.591   9.712 -0.0903 -0.2260  0.1167
  482PYPI   C2A 7418   8.032  16.656   9.342  0.1804 -0.1144  0.0048
  482PYPI   D3A 7419   8.035  16.734   8.866 -0.0371 -0.0288 -0.2330
  482PYPI   C4A 7420   7.991  16.984   8.514 -0.1697  0.3692 -0.2009
  482PYPI   C1B 7421   7.735  17.105   9.483  0.0993 -0.0307  0.1575
  482PYPI   C2B 7422   7.802  17.120   9.029 -0.0147  0.1725 -0.1098
  482PYPI   C3B 7423   7.670  17.281   8.669  0.0839 -0.3543  0.1789
  482PYPI   C4B 7424   7.484  17.637   8.409  0.0013  0.1705 -0.5502
  483PYPI    C1 7425  10.702   9.110  10.302  0.0840  0.0446 -0.0233
  483PYPI    C2 7426  10.659   8.718  10.364 -0.1176  0.0996  0.1991
  483PYPI    C3 7427  10.869   8.939  10.623  0.0916  0.1210  0.0136
  483PYPI   PO4 7428  10.795   9.132  10.105 -0.0049  0.1035 -0.0211
  483PYPI   GL1 7429  11.149   9.226   9.900  0.1414 -0.0484  0.5028
  483PYPI   GL2 7430  11.402   9.438   9.898 -0.0059 -0.0359 -0.0418
  483PYPI   C1A 7431  11.441   9.097   9.543  0.0953 -0.0346 -0.1022
  483PYPI   C2A 7432  11.319   9.172   9.041  0.1612 -0.3394 -0.0156
  483PYPI   D3A 7433  11.172   9.195   8.578 -0.0900  0.1542 -0.1812
  483PYPI   C4A 7434  11.372   9.472   8.356  0.1403 -0.1623  0.2864
  483PYPI   C1B 7435  11.518   9.628   9.533 -0.0088  0.0548 -0.1148
  483PYPI   C2B 7436  11.525   9.711   9.205 -0.1221 -0.1439  0.3696
  483PYPI   C3B 7437  11.641   9.678   8.783 -0.2053  0.1567 -0.0244
  483PYPI   C4B 7438  11.808   9.998   8.322 -0.0320 -0.5009 -0.1555
  484PYPI    C1 7439   7.701   5.236   9.777 -0.0514  0.1252  0.1090
  484PYPI    C2 7440   7.697   4.847   9.681 -0.1722  0.0841  0.2767
  484PYPI    C3 7441   8.040   5.023   9.789 -0.0739  0.0811 -0.0236
  484PYPI   PO4 7442   7.516   5.356   9.696 -0.1897  0.0779 -0.0443
  484PYPI   GL1 7443   7.352   5.258   9.391  0.2240  0.2418  0.4980
  484PYPI   GL2 7444   7.164   5.474   9.276 -0.1814 -0.1231 -0.1830
  484PYPI   C1A 7445   7.642   4.980   9.229 -0.0748 -0.1223  0.0467
  484PYPI   C2A 7446   7.802   4.800   8.940 -0.0993 -0.1822  0.3171
  484PYPI   D3A 7447   7.930   4.944   8.655  0.0039 -0.3557  0.0497
  484PYPI   C4A 7448   7.893   5.064   8.254  0.0907  0.1718  0.4753
  484PYPI   C1B 7449   6.982   5.588   8.911  0.2062 -0.3101  0.1391
  484PYPI   C2B 7450   6.880   5.673   8.463  0.0165  0.3830  0.2026
  484PYPI   C3B 7451   6.768   5.558   8.027  0.0308  0.2221 -0.1727
  484PYPI   C4B 7452   6.750   5.869   7.741  0.0883 -0.0942  0.1755
  485PYPI    C1 7453   5.785  12.009  10.596  0.1965 -0.1210  0.1760
  485PYPI    C2 7454   5.417  11.939  10.735  0.1010 -0.0118 -0.0179
  485PYPI    C3 7455   5.651  12.207  10.916  0.0654 -0.0414  0.0728
  485PYPI   PO4 7456   5.809  11.811  10.370 -0.3337 -0.0021 -0.1117
  485PYPI   GL1 7457   5.774  11.727   9.970  0.0016 -0.3331  0.2486
  485PYPI   GL2 7458   6.089  11.921   9.923 -0.1666 -0.0099  0.2464
  485PYPI   C1A 7459   5.714  11.643   9.580  0.0193 -0.0066  0.2293
  485PYPI   C2A 7460   5.670  11.703   9.151 -0.0933 -0.0378  0.3324
  485PYPI   D3A 7461   5.590  11.702   8.704 -0.1878  0.1385  0.0496
  485PYPI   C4A 7462   5.709  11.545   8.342 -0.1264  0.1642  0.2302
  485PYPI   C1B 7463   6.085  12.017   9.517 -0.1406 -0.3124 -0.0349
  485PYPI   C2B 7464   6.113  12.013   9.145  0.0063  0.0895 -0.1330
  485PYPI   C3B 7465   6.021  11.919   8.669  0.4303  0.2912  0.2038
  485PYPI   C4B 7466   5.749  12.045   8.343  0.1493  0.4089 -0.2079
  486PYPI    C1 7467   4.720  16.392  10.692 -0.0634 -0.0940 -0.1569
  486PYPI    C2 7468   4.881  16.362  11.057  0.0538 -0.1113 -0.2099
  486PYPI    C3 7469   4.510  16.228  10.991  0.0560 -0.1660 -0.1121
  486PYPI   PO4 7470   4.886  16.165  10.500  0.1295  0.1638 -0.1007
  486PYPI   GL1 7471   4.934  15.770  10.348 -0.0522 -0.0744 -0.0683
  486PYPI   GL2 7472   4.673  15.789  10.127 -0.0497  0.0870 -0.1949
  486PYPI   C1A 7473   5.169  15.809   9.978  0.2042  0.1069  0.1476
  486PYPI   C2A 7474   5.451  15.622   9.763  0.1620 -0.4816  0.0290
  486PYPI   D3A 7475   5.550  15.299   9.442  0.1164  0.3144  0.1507
  486PYPI   C4A 7476   5.535  15.346   8.941 -0.0966 -0.2282  0.2803
  486PYPI   C1B 7477   4.844  15.906   9.660  0.1159  0.0405  0.0496
  486PYPI   C2B 7478   4.989  16.034   9.234 -0.1796  0.2037  0.2567
  486PYPI   C3B 7479   5.354  16.326   9.124  0.1184 -0.2462  0.1014
  486PYPI   C4B 7480   5.655  16.595   9.132 -0.0982 -0.0270  0.1115
  487PYPI    C1 7481  14.771  13.699  10.548  0.3544 -0.0514  0.0188
  487PYPI    C2 7482  14.713  13.425  10.833  0.0035  0.0361  0.0362
  487PYPI    C3 7483  14.692  13.814  10.923 -0.0074  0.0649 -0.0888
  487PYPI   PO4 7484  14.663  13.580  10.304  0.0596  0.2468 -0.4439
  487PYPI   GL1 7485  14.702  13.655   9.979 -0.0651  0.0912  0.0830
  487PYPI   GL2 7486  14.442  13.849   9.820  0.0820 -0.0197  0.1139
  487PYPI   C1A 7487  14.561  13.368   9.677 -0.1576  0.0555  0.1380
  487PYPI   C2A 7488  14.474  13.208   9.384 -0.1885 -0.1325  0.1069
  487PYPI   D3A 7489  14.361  13.299   8.988  0.2266 -0.0537 -0.0611
  487PYPI   C4A 7490  13.983  13.266   8.708  0.0533  0.3254 -0.1132
  487PYPI   C1B 7491  14.494  13.781   9.396  0.0502  0.0492  0.2889
  487PYPI   C2B 7492  14.614  13.784   8.998 -0.2500  0.1576 -0.1213
  487PYPI   C3B 7493  14.747  13.716   8.692 -0.1918  0.2821  0.0690
  487PYPI   C4B 7494  14.820  13.595   8.314 -0.1051 -0.0914 -0.2296
  488PYPI    C1 7495  15.839   9.759  10.761  0.0162  0.0603  0.1787
  488PYPI    C2 7496  15.506   9.947  10.878 -0.0001  0.1313  0.0208
  488PYPI    C3 7497  15.501   9.715  10.552  0.0738  0.0305  0.0909
  488PYPI   PO4 7498  16.029   9.931  10.662 -0.0922 -0.0821  0.1454
  488PYPI   GL1 7499  15.980  10.206  10.391  0.1955 -0.0271 -0.0782
  488PYPI   GL2 7500  15.668  10.140  10.350 -0.0976  0.2699 -0.3825
  488PYPI   C1A 7501  15.932  10.109   9.891  0.0261 -0.1210 -0.1276
  488PYPI   C2A 7502  15.983  10.139   9.484 -0.2654  0.0620  0.1798
  488PYPI   D3A 7503  16.208  10.004   9.066  0.1056  0.1857 -0.0109
  488PYPI   C4A 7504  16.160  10.143   8.589  0.0551 -0.1779  0.0122
  488PYPI   C1B 7505  15.482  10.299  10.037  0.0866  0.0432 -0.1288
  488PYPI   C2B 7506  15.445  10.285   9.611 -0.1297 -0.2120 -0.2705
  488PYPI   C3B 7507  15.609  10.340   9.235  0.1659  0.0335  0.0421
  488PYPI   C4B 7508  15.907  10.428   8.901 -0.0745 -0.0173  0.1071
  489PYPI    C1 7509   2.651   4.023  10.521  0.0132  0.0436 -0.0737
  489PYPI    C2 7510   2.534   4.396  10.606  0.1028  0.0632 -0.0350
  489PYPI    C3 7511   2.302   4.087  10.706 -0.0212  0.1140 -0.1621
  489PYPI   PO4 7512   2.624   4.012  10.206  0.0542  0.0836 -0.3235
  489PYPI   GL1 7513   2.680   3.748   9.910 -0.3290 -0.1931 -0.0014
  489PYPI   GL2 7514   2.368   3.689   9.896  0.3317 -0.2855  0.0777
  489PYPI   C1A 7515   2.734   3.647   9.471  0.0619  0.0788  0.4986
  489PYPI   C2A 7516   2.753   3.672   8.997 -0.1138 -0.0665 -0.1757
  489PYPI   D3A 7517   2.806   3.910   8.625  0.1795 -0.1346  0.3290
  489PYPI   C4A 7518   2.803   3.946   8.163  0.1394 -0.3765  0.0513
  489PYPI   C1B 7519   2.210   3.555   9.432  0.2394 -0.2003  0.2092
  489PYPI   C2B 7520   2.130   3.620   8.961  0.4273 -0.4337 -0.0913
  489PYPI   C3B 7521   2.029   3.519   8.737 -0.2528  0.0708  0.2509
  489PYPI   C4B 7522   2.069   3.573   8.302 -0.2301  0.0228  0.0327
  490PYPI    C1 7523  10.938  11.404  10.576 -0.3233  0.2151 -0.1467
  490PYPI    C2 7524  11.146  11.744  10.617 -0.0639  0.0898 -0.3911
  490PYPI    C3 7525  10.979  11.572  10.937  0.2419  0.1733 -0.1825
  490PYPI   PO4 7526  10.763  11.403  10.313 -0.2063  0.4322 -0.1111
  490PYPI   GL1 7527  10.751  11.081  10.016  0.2522 -0.1546  0.3770
  490PYPI   GL2 7528  10.531  10.970   9.812  0.0235 -0.2037  0.2514
  490PYPI   C1A 7529  10.978  11.166   9.670  0.1019  0.0704 -0.1247
  490PYPI   C2A 7530  11.154  11.239   9.314 -0.2746 -0.2546 -0.0446
  490PYPI   D3A 7531  11.102  11.215   8.914  0.0652  0.1326 -0.2890
  490PYPI   C4A 7532  11.343  11.192   8.494  0.0155 -0.1167  0.0706
  490PYPI   C1B 7533  10.191  10.991   9.922  0.0535  0.0622 -0.0856
  490PYPI   C2B 7534   9.801  11.074   9.734  0.5642 -0.0139  0.3606
  490PYPI   C3B 7535   9.764  11.045   9.315 -0.0861  0.3347 -0.0081
  490PYPI   C4B 7536   9.739  11.218   8.933  0.3518  0.0027 -0.0744
  491PYPI    C1 7537   4.996   4.121  10.174  0.0283 -0.0806  0.1055
  491PYPI    C2 7538   4.880   4.046  10.550 -0.0922  0.1101  0.1077
  491PYPI    C3 7539   4.788   4.396  10.378 -0.0016  0.0406 -0.0854
  491PYPI   PO4 7540   5.148   3.876  10.127  0.2758  0.2804  0.1732
  491PYPI   GL1 7541   5.205   3.598   9.762  0.1359  0.0333 -0.2204
  491PYPI   GL2 7542   5.021   3.451   9.837 -0.0807 -0.4481  0.1511
  491PYPI   C1A 7543   5.478   3.656   9.441 -0.4692 -0.3555  0.1730
  491PYPI   C2A 7544   5.618   3.542   9.094  0.1448 -0.2924  0.0642
  491PYPI   D3A 7545   5.464   3.516   8.618  0.0478 -0.1117 -0.2023
  491PYPI   C4A 7546   5.760   3.285   8.283  0.0520 -0.2562  0.3079
  491PYPI   C1B 7547   4.954   3.554   9.368 -0.0287 -0.2630 -0.3144
  491PYPI   C2B 7548   4.977   3.568   8.982  0.2049 -0.1209  0.1329
  491PYPI   C3B 7549   4.892   3.519   8.587 -0.1713  0.2788 -0.4736
  491PYPI   C4B 7550   4.652   3.425   8.200  0.0878 -0.0207  0.0365
  492PYPI    C1 7551   1.453  12.767  10.368  0.0765 -0.1522  0.3642
  492PYPI    C2 7552   1.254  13.105  10.289  0.0462 -0.2549 -0.0188
  492PYPI    C3 7553   1.569  13.111  10.536 -0.2242 -0.0312  0.3296
  492PYPI   PO4 7554   1.388  12.611  10.115  0.3434 -0.1875  0.1097
  492PYPI   GL1 7555   1.304  12.437   9.851  0.1615 -0.0225 -0.3797
  492PYPI   GL2 7556   1.468  12.203   9.723  0.1710  0.0370 -0.2452
  492PYPI   C1A 7557   1.194  12.501   9.446  0.1807 -0.1633 -0.1353
  492PYPI   C2A 7558   1.050  12.404   8.997  0.0866  0.3060 -0.2079
  492PYPI   D3A 7559   1.037  12.217   8.655  0.0926  0.2705  0.0667
  492PYPI   C4A 7560   0.930  11.850   8.773  0.0802  0.0914  0.0932
  492PYPI   C1B 7561   1.662  12.293   9.367 -0.2921 -0.0128  0.0702
  492PYPI   C2B 7562   1.551  12.284   8.902 -0.0004  0.2193  0.3442
  492PYPI   C3B 7563   1.598  12.358   8.453 -0.0645  0.2182  0.1095
  492PYPI   C4B 7564   1.617  12.369   7.984  0.3401  0.2713  0.0855
  493PYPI    C1 7565   4.082   4.252  10.496 -0.1607 -0.0108  0.0813
  493PYPI    C2 7566   4.327   3.952  10.598 -0.2344 -0.0590  0.1171
  493PYPI    C3 7567   4.050   4.081  10.856 -0.0328  0.2141  0.2012
  493PYPI   PO4 7568   4.249   4.415  10.348 -0.0619  0.3272 -0.0745
  493PYPI   GL1 7569   4.460   4.644  10.031 -0.1896  0.0515  0.0975
  493PYPI   GL2 7570   4.626   4.862   9.959 -0.0194 -0.0403 -0.3097
  493PYPI   C1A 7571   4.499   4.528   9.565 -0.0357  0.0019  0.0917
  493PYPI   C2A 7572   4.518   4.516   9.068 -0.4809  0.2804 -0.2123
  493PYPI   D3A 7573   4.452   4.356   8.663 -0.0187 -0.1026  0.2869
  493PYPI   C4A 7574   4.305   4.234   8.177 -0.1488 -0.2174  0.0171
  493PYPI   C1B 7575   4.476   5.008   9.573  0.0917 -0.0711 -0.2169
  493PYPI   C2B 7576   4.324   4.983   9.129 -0.3190 -0.0029 -0.2373
  493PYPI   C3B 7577   4.342   4.994   8.757 -0.0840  0.2927  0.1637
  493PYPI   C4B 7578   4.475   5.055   8.272  0.0129 -0.0801 -0.0552
  494PYPI    C1 7579  15.581   3.222  10.817 -0.0627  0.0001  0.0281
  494PYPI    C2 7580  15.361   3.478  11.033  0.0317 -0.0342  0.1667
  494PYPI    C3 7581  15.371   3.091  11.131  0.1413 -0.0357  0.1518
  494PYPI   PO4 7582  15.529   3.280  10.543 -0.1661 -0.0645 -0.1526
  494PYPI   GL1 7583  15.213   3.230  10.229 -0.0109  0.0810  0.2339
  494PYPI   GL2 7584  14.907   3.043  10.227 -0.2501 -0.2103 -0.2716
  494PYPI   C1A 7585  15.255   3.139   9.780 -0.2455  0.2306 -0.0233
  494PYPI   C2A 7586  15.258   3.059   9.339 -0.4526  0.3138 -0.0484
  494PYPI   D3A 7587  15.290   2.990   8.895  0.0010  0.1282 -0.2119
  494PYPI   C4A 7588  15.418   3.318   8.668 -0.1078 -0.0060 -0.1248
  494PYPI   C1B 7589  14.807   2.833   9.836 -0.1437 -0.0212 -0.3522
  494PYPI   C2B 7590  14.832   2.848   9.371 -0.0780 -0.0230 -0.0066
  494PYPI   C3B 7591  14.681   2.878   8.955  0.1527 -0.0418  0.0219
  494PYPI   C4B 7592  14.627   2.864   8.556  0.1196  0.1423 -0.0467
  495PYPI    C1 7593   6.661   3.172  10.306  0.0144  0.2321  0.0195
  495PYPI    C2 7594   6.498   2.880  10.525  0.1075  0.0466 -0.1551
  495PYPI    C3 7595   6.560   3.240  10.687  0.1930 -0.0927  0.1293
  495PYPI   PO4 7596   6.793   3.138  10.242  0.1835  0.0468  0.1994
  495PYPI   GL1 7597   6.937   2.871   9.935  0.2282  0.0341 -0.2035
  495PYPI   GL2 7598   6.649   2.699   9.878 -0.3493 -0.1319  0.1618
  495PYPI   C1A 7599   6.774   2.987   9.487  0.3644 -0.0080 -0.2761
  495PYPI   C2A 7600   6.692   3.148   9.085 -0.0220  0.0696  0.0961
  495PYPI   D3A 7601   6.528   3.430   8.781  0.0925  0.1041 -0.0500
  495PYPI   C4A 7602   6.246   3.298   8.512 -0.1888  0.2448 -0.0118
  495PYPI   C1B 7603   6.627   2.475   9.439 -0.1337  0.0342  0.1366
  495PYPI   C2B 7604   6.547   2.423   9.016 -0.2580  0.1159 -0.6692
  495PYPI   C3B 7605   6.722   2.257   8.560  0.0191 -0.2178  0.1100
  495PYPI   C4B 7606   6.538   2.123   8.124  0.2140  0.3042  0.1878
  496PYPI    C1 7607  14.181  10.019  10.600  0.0146  0.1133  0.4878
  496PYPI    C2 7608  13.927   9.791  10.391  0.2633  0.1568  0.1301
  496PYPI    C3 7609  14.024   9.690  10.765 -0.2125  0.0949  0.2430
  496PYPI   PO4 7610  14.068  10.260  10.417 -0.3067 -0.2904  0.1097
  496PYPI   GL1 7611  14.041  10.384   9.990 -0.3088 -0.0016  0.2376
  496PYPI   GL2 7612  14.240  10.556  10.104 -0.1241 -0.1279  0.2718
  496PYPI   C1A 7613  13.887  10.120   9.617 -0.4023  0.1610  0.0330
  496PYPI   C2A 7614  13.893  10.083   9.124  0.0414 -0.1649 -0.3739
  496PYPI   D3A 7615  13.745  10.266   8.754  0.1833 -0.1027  0.0942
  496PYPI   C4A 7616  13.604   9.904   8.548 -0.1752  0.2337 -0.0428
  496PYPI   C1B 7617  14.399  10.453   9.641  0.0816  0.3004  0.0713
  496PYPI   C2B 7618  14.319  10.385   9.307 -0.0331 -0.2042 -0.2258
  496PYPI   C3B 7619  14.267  10.299   8.958 -0.2427  0.0742  0.2738
  496PYPI   C4B 7620  14.270  10.266   8.539 -0.1041  0.0808  0.1367
  497PYPI    C1 7621  14.081   3.976  10.905  0.1690  0.1323  0.2822
  497PYPI    C2 7622  14.339   4.277  10.852  0.0390  0.1751 -0.1504
  497PYPI    C3 7623  13.962   4.354  10.960  0.1637  0.1207  0.3509
  497PYPI   PO4 7624  14.037   3.830  10.648  0.0431 -0.1375  0.3562
  497PYPI   GL1 7625  14.063   3.612  10.244 -0.1180  0.1368  0.1897
  497PYPI   GL2 7626  14.317   3.652  10.130 -0.1737  0.1679 -0.2316
  497PYPI   C1A 7627  13.919   3.395   9.811  0.1060  0.3690  0.0641
  497PYPI   C2A 7628  13.782   3.335   9.453  0.0701 -0.0884 -0.0513
  497PYPI   D3A 7629  13.727   3.165   9.176  0.1085 -0.2478 -0.1064
  497PYPI   C4A 7630  13.757   3.088   8.785  0.1746 -0.3420  0.1818
  497PYPI   C1B 7631  14.552   3.746   9.724  0.0263 -0.0483  0.1360
  497PYPI   C2B 7632  14.774   3.787   9.282 -0.0044  0.0097 -0.0198
  497PYPI   C3B 7633  14.571   3.668   8.964 -0.1199  0.2672 -0.1897
  497PYPI   C4B 7634  14.439   3.251   8.794  0.1891  0.1146  0.0263
  498PYPI    C1 7635  17.075   1.657  10.434  0.0243 -0.0467 -0.0102
  498PYPI    C2 7636  17.420   1.655  10.636  0.0050  0.2128  0.0295
  498PYPI    C3 7637  17.083   1.537  10.816  0.0387  0.1532  0.0539
  498PYPI   PO4 7638  17.007   1.864  10.336 -0.0262 -0.1170 -0.2951
  498PYPI   GL1 7639  17.306   2.111  10.084  0.1071  0.2400  0.0158
  498PYPI   GL2 7640  17.527   1.964  10.230 -0.1362  0.1302  0.2097
  498PYPI   C1A 7641  17.256   2.036   9.673  0.2949 -0.1266  0.0197
  498PYPI   C2A 7642  17.120   2.034   9.226 -0.1368  0.0565  0.1068
  498PYPI   D3A 7643  16.855   2.054   8.862  0.3316 -0.1801 -0.0835
  498PYPI   C4A 7644  16.867   2.028   8.318 -0.2959 -0.2896 -0.0989
  498PYPI   C1B 7645  17.816   1.968   9.854 -0.0262 -0.4021  0.0605
  498PYPI   C2B 7646  17.774   2.072   9.437  0.1036 -0.0881  0.2705
  498PYPI   C3B 7647  17.620   1.974   8.886 -0.1605  0.1181 -0.1162
  498PYPI   C4B 7648  17.715   2.116   8.491  0.3886 -0.0384  0.0675
  499PYPI    C1 7649   6.515  16.649  10.836  0.0953  0.3872 -0.0098
  499PYPI    C2 7650   6.166  16.831  10.908 -0.2021 -0.1482 -0.0485
  499PYPI    C3 7651   6.385  16.692  11.212 -0.0697  0.0956 -0.0304
  499PYPI   PO4 7652   6.638  16.738  10.559 -0.1583 -0.0999 -0.2033
  499PYPI   GL1 7653   6.485  16.804  10.098 -0.0743 -0.1250 -0.0917
  499PYPI   GL2 7654   6.472  17.196  10.175  0.0024 -0.0310 -0.0560
  499PYPI   C1A 7655   6.554  16.588   9.796 -0.2559 -0.0237  0.1650
  499PYPI   C2A 7656   6.502  16.610   9.327 -0.2820  0.1602 -0.2834
  499PYPI   D3A 7657   6.612  16.362   9.042 -0.1146  0.0560  0.0036
  499PYPI   C4A 7658   6.685  16.475   8.666 -0.1631 -0.0429  0.2076
  499PYPI   C1B 7659   6.556  17.341   9.806  0.0576 -0.2180 -0.0089
  499PYPI   C2B 7660   6.770  17.456   9.459  0.0984  0.1993 -0.0344
  499PYPI   C3B 7661   6.893  17.450   9.015 -0.0761 -0.1155 -0.0748
  499PYPI   C4B 7662   6.839  17.712   8.619 -0.1111 -0.2329  0.2115
  500PYPI    C1 7663   2.830   0.762  10.553  0.0188  0.0622 -0.0201
  500PYPI    C2 7664   2.562   1.043  10.458 -0.0905 -0.0484 -0.0412
  500PYPI    C3 7665   2.527   0.841  10.802  0.1247  0.1304  0.0882
  500PYPI   PO4 7666   2.802   0.581  10.362 -0.0507  0.0991  0.1096
  500PYPI   GL1 7667   2.531   0.426   9.956 -0.2729 -0.1382 -0.1296
  500PYPI   GL2 7668   2.229   0.402   9.941 -0.1907 -0.0703 -0.0728
  500PYPI   C1A 7669   2.659   0.295   9.554 -0.2806  0.0545 -0.1554
  500PYPI   C2A 7670   2.705  -0.088   9.313 -0.3750  0.1831 -0.0792
  500PYPI   D3A 7671   2.917  -0.434   9.245 -0.0281  0.0479  0.0323
  500PYPI   C4A 7672   3.351  -0.449   9.265  0.1214 -0.0909  0.2357
  500PYPI   C1B 7673   2.149   0.491   9.535  0.0953 -0.0417  0.3771
  500PYPI   C2B 7674   2.344   0.409   9.180  0.0425 -0.0033  0.0613
  500PYPI   C3B 7675   2.558   0.367   8.894 -0.1367 -0.2038  0.0317
  500PYPI   C4B 7676   2.672  -0.080   8.821  0.2790 -0.1271 -0.1736
  501PYPI    C1 7677   5.880  17.533  11.068 -0.1541  0.0208  0.3048
  501PYPI    C2 7678   5.699  17.847  10.899  0.0035 -0.1141 -0.1304
  501PYPI    C3 7679   5.496  17.610  11.150 -0.1594  0.2421  0.0825
  501PYPI   PO4 7680   5.990  17.417  10.808 -0.1179  0.1656 -0.2256
  501PYPI   GL1 7681   6.346  17.602  10.404 -0.0021  0.2356  0.0374
  501PYPI   GL2 7682   6.228  17.653  10.071  0.0669  0.1081 -0.1528
  501PYPI   C1A 7683   6.700  17.667  10.165 -0.0218  0.0817  0.1304
  501PYPI   C2A 7684   7.016  17.411   9.935  0.0424 -0.3319 -0.3315
  501PYPI   D3A 7685   7.330  17.478   9.547 -0.0393  0.3210 -0.0255
  501PYPI   C4A 7686   7.312  17.246   9.197  0.2456  0.2790  0.1757
  501PYPI   C1B 7687   6.324  17.707   9.597  0.1734 -0.0655 -0.1141
  501PYPI   C2B 7688   6.365  17.745   9.141  0.1499  0.4137 -0.0971
  501PYPI   C3B 7689   6.335  17.915   8.791 -0.2076  0.1676  0.1755
  501PYPI   C4B 7690   6.350  17.773   8.394 -0.0094 -0.0065 -0.1016
  502PYPI    C1 7691  13.392   5.693  10.403 -0.1242  0.0101  0.0151
  502PYPI    C2 7692  13.724   5.615  10.195 -0.0477 -0.0975  0.1749
  502PYPI    C3 7693  13.631   5.392  10.514 -0.1794  0.0464  0.2385
  502PYPI   PO4 7694  13.380   5.926  10.469  0.2283 -0.0597  0.2870
  502PYPI   GL1 7695  13.518   6.116  10.149  0.3207 -0.1324  0.1539
  502PYPI   GL2 7696  13.099   6.239  10.081  0.2769  0.0062  0.0624
  502PYPI   C1A 7697  13.575   5.887   9.675  0.0165 -0.0666  0.1243
  502PYPI   C2A 7698  13.630   5.734   9.416 -0.1527  0.1200  0.0821
  502PYPI   D3A 7699  13.593   5.447   9.077  0.2300 -0.3367  0.1531
  502PYPI   C4A 7700  13.525   5.395   8.681 -0.3158  0.0056 -0.1068
  502PYPI   C1B 7701  13.229   6.238   9.671 -0.3282  0.0330  0.1289
  502PYPI   C2B 7702  13.220   6.456   9.134 -0.1081  0.1881  0.0090
  502PYPI   C3B 7703  13.042   6.401   8.804 -0.0994  0.3547  0.1915
  502PYPI   C4B 7704  13.185   6.208   8.459 -0.1353 -0.2199 -0.0126
  503PYPI    C1 7705   2.284   8.343  10.077 -0.0834 -0.0075  0.1512
  503PYPI    C2 7706   1.939   8.382  10.276 -0.2469 -0.0675 -0.1150
  503PYPI    C3 7707   2.269   8.564  10.410 -0.4037  0.0726  0.0873
  503PYPI   PO4 7708   2.354   8.132   9.950 -0.0409 -0.0692 -0.0384
  503PYPI   GL1 7709   2.464   8.047   9.565  0.0434 -0.2443  0.1567
  503PYPI   GL2 7710   2.731   8.360   9.489  0.0268 -0.1828  0.3101
  503PYPI   C1A 7711   2.346   8.005   9.074  0.2480 -0.2910  0.1754
  503PYPI   C2A 7712   2.355   7.823   8.623  0.0040 -0.0323 -0.1331
  503PYPI   D3A 7713   2.527   7.832   8.245  0.0599  0.2254  0.2672
  503PYPI   C4A 7714   2.188   7.628   7.989 -0.2059 -0.2405 -0.0759
  503PYPI   C1B 7715   2.622   8.410   9.009 -0.2043 -0.1692 -0.2000
  503PYPI   C2B 7716   2.529   8.318   8.637 -0.0572 -0.3124 -0.1136
  503PYPI   C3B 7717   2.350   8.361   8.175 -0.4720  0.0226 -0.1895
  503PYPI   C4B 7718   2.360   8.110   7.894  0.1188 -0.0959 -0.1693
  504PYPI    C1 7719   1.982   7.781  10.326 -0.0271  0.2677 -0.0883
  504PYPI    C2 7720   1.814   7.989  10.623 -0.0054  0.1286  0.0229
  504PYPI    C3 7721   2.212   7.985  10.582 -0.0142  0.2402 -0.0779
  504PYPI   PO4 7722   1.912   7.911  10.111  0.2230  0.1504 -0.2251
  504PYPI   GL1 7723   1.909   8.092   9.714  0.1232  0.0344  0.1847
  504PYPI   GL2 7724   1.861   8.405   9.811 -0.1635  0.2906  0.5050
  504PYPI   C1A 7725   1.894   7.999   9.266 -0.1219  0.2904  0.0590
  504PYPI   C2A 7726   1.769   7.892   8.918  0.1072  0.2262 -0.0097
  504PYPI   D3A 7727   1.884   7.709   8.556 -0.0177  0.3106 -0.4354
  504PYPI   C4A 7728   1.959   8.058   8.269 -0.0160 -0.1580 -0.0211
  504PYPI   C1B 7729   1.745   8.817   9.633  0.3392 -0.0671  0.1693
  504PYPI   C2B 7730   1.582   8.796   9.184  0.1998  0.0197 -0.0906
  504PYPI   C3B 7731   1.523   8.782   8.734 -0.3121 -0.1356  0.1933
  504PYPI   C4B 7732   1.508   8.742   8.304 -0.0475  0.1179  0.1463
  505PYPI    C1 7733   3.185   9.647  10.019 -0.2152 -0.2164  0.0355
  505PYPI    C2 7734   3.412   9.869  10.263 -0.1795 -0.0469 -0.1493
  505PYPI    C3 7735   3.209   9.556  10.408  0.1592 -0.1928  0.0215
  505PYPI   PO4 7736   3.340   9.681   9.790 -0.0176  0.1553 -0.2234
  505PYPI   GL1 7737   3.292   9.991   9.506  0.0096  0.2605  0.2229
  505PYPI   GL2 7738   3.366   9.743   9.311 -0.1845 -0.1262 -0.3306
  505PYPI   C1A 7739   3.348  10.308   9.150 -0.1292  0.0935  0.0133
  505PYPI   C2A 7740   3.609  10.631   8.821 -0.1758  0.0254 -0.1985
  505PYPI   D3A 7741   3.834  10.644   8.362  0.0502 -0.2933  0.0132
  505PYPI   C4A 7742   3.685  10.801   7.994  0.0250 -0.4184 -0.1178
  505PYPI   C1B 7743   3.433   9.811   8.859 -0.0994 -0.1077 -0.2675
  505PYPI   C2B 7744   3.453   9.754   8.476 -0.3257 -0.1338 -0.0513
  505PYPI   C3B 7745   3.497   9.840   8.041  0.1525 -0.1943  0.0777
  505PYPI   C4B 7746   3.292   9.941   7.680  0.2293 -0.2480 -0.0403
  506ERGO   ROH 7747  15.969   5.061   6.703 -0.4445  0.1029  0.0773
  506ERGO    R1 7748  15.857   4.997   6.955 -0.2165 -0.0808  0.1365
  506ERGO    R2 7749  15.960   4.798   7.117  0.1194 -0.0035  0.0388
  506ERGO    R3 7750  15.970   4.998   7.301  0.0033 -0.0228  0.0644
  506ERGO    R4 7751  15.991   4.752   7.458  0.1191 -0.0163  0.0360
  506ERGO    R5 7752  15.848   4.913   7.488  0.0392 -0.0998  0.0455
  506ERGO    C1 7753  16.018   4.913   7.830  0.0100 -0.0419  0.0584
  506ERGO    C2 7754  16.150   5.044   8.264  0.4574 -0.2801  0.2565
  507ERGO   ROH 7755   4.766   4.775   6.305 -0.0495 -0.1835 -0.1154
  507ERGO    R1 7756   4.812   4.736   6.581  0.0088  0.0212 -0.0940
  507ERGO    R2 7757   4.803   4.943   6.764 -0.0858  0.1386 -0.2239
  507ERGO    R3 7758   4.623   4.782   6.889  0.0203  0.1141 -0.1019
  507ERGO    R4 7759   4.801   4.875   7.103  0.1812  0.0840 -0.2309
  507ERGO    R5 7760   4.752   4.668   7.057  0.1530  0.0935 -0.2206
  507ERGO    C1 7761   4.631   4.685   7.418  0.4364  0.0292 -0.1204
  507ERGO    C2 7762   4.660   4.443   7.705 -0.0834  0.3633  0.1875
  508ERGO   ROH 7763   9.745  10.057   9.788 -0.3391  0.0705 -0.1518
  508ERGO    R1 7764   9.775   9.941   9.531  0.0714  0.0343 -0.0941
  508ERGO    R2 7765   9.611  10.006   9.318 -0.0136 -0.4668 -0.1909
  508ERGO    R3 7766   9.847  10.058   9.194 -0.0783  0.0893 -0.1088
  508ERGO    R4 7767   9.645  10.094   8.986 -0.1021 -0.4871 -0.2065
  508ERGO    R5 7768   9.821   9.967   8.975  0.2368 -0.0580 -0.0925
  508ERGO    C1 7769   9.887  10.194   8.676 -0.2144  0.0231 -0.1383
  508ERGO    C2 7770  10.082  10.431   8.415  0.2032 -0.0399 -0.2551
  509ERGO   ROH 7771  17.319   2.851   6.719 -0.2589 -0.0971  0.0223
  509ERGO    R1 7772  17.280   2.891   6.997 -0.2253  0.0137  0.0108
  509ERGO    R2 7773  17.477   2.843   7.184 -0.2885 -0.1720  0.0274
  509ERGO    R3 7774  17.426   3.099   7.258  0.0046 -0.0916 -0.0307
  509ERGO    R4 7775  17.567   2.983   7.487 -0.2122 -0.2337  0.0346
  509ERGO    R5 7776  17.374   3.085   7.491 -0.0912  0.0083 -0.0439
  509ERGO    C1 7777  17.571   3.305   7.732  0.1077 -0.1942 -0.0157
  509ERGO    C2 7778  17.701   3.460   8.119 -0.2566  0.1874  0.2323
  510ERGO   ROH 7779  15.221  15.008   6.172 -0.2704  0.1121 -0.1217
  510ERGO    R1 7780  15.280  15.089   6.437 -0.0871 -0.0586 -0.1081
  510ERGO    R2 7781  15.116  15.258   6.581  0.2263  0.2025 -0.0400
  510ERGO    R3 7782  15.125  15.057   6.764 -0.1029  0.1313 -0.0971
  510ERGO    R4 7783  15.049  15.295   6.918 -0.0110  0.1406 -0.0790
  510ERGO    R5 7784  15.215  15.160   6.961 -0.1686 -0.0217  0.0107
  510ERGO    C1 7785  15.018  15.127   7.286 -0.4582  0.0376 -0.1552
  510ERGO    C2 7786  15.064  15.091   7.633  0.1396  0.0120  0.1276
  511ERGO   ROH 7787  15.303  12.501   6.647  0.2510 -0.2578  0.2015
  511ERGO    R1 7788  15.134  12.580   6.861  0.1766 -0.0870  0.0858
  511ERGO    R2 7789  15.041  12.401   7.050 -0.0600  0.0189  0.0881
  511ERGO    R3 7790  15.151  12.578   7.224 -0.0310 -0.0092  0.0938
  511ERGO    R4 7791  14.958  12.425   7.385 -0.0336  0.0188  0.0922
  511ERGO    R5 7792  14.968  12.642   7.366 -0.0051  0.0090  0.1066
  511ERGO    C1 7793  15.013  12.605   7.743  0.0090 -0.0077  0.1000
  511ERGO    C2 7794  14.862  12.696   8.086  0.2569  0.0573 -0.1523
  512ERGO   ROH 7795  16.977   7.255  10.316  0.1435 -0.2130 -0.1772
  512ERGO    R1 7796  17.018   7.144  10.059  0.1993 -0.1428 -0.1981
  512ERGO    R2 7797  16.811   7.093   9.884  0.2286 -0.1938 -0.2131
  512ERGO    R3 7798  16.959   7.245   9.714  0.1698 -0.0982 -0.1808
  512ERGO    R4 7799  16.783   7.087   9.540  0.1396 -0.0393 -0.2102
  512ERGO    R5 7800  17.001   7.101   9.527  0.1376 -0.0103 -0.2590
  512ERGO    C1 7801  16.906   7.227   9.180  0.0326  0.1403 -0.1783
  512ERGO    C2 7802  16.881   7.218   8.849 -0.3383  0.0947 -0.3174
  513ERGO   ROH 7803  16.579  15.998  10.101  0.1328 -0.2088 -0.0747
  513ERGO    R1 7804  16.549  15.912   9.832 -0.0453 -0.2079 -0.0580
  513ERGO    R2 7805  16.306  15.919   9.700 -0.0819  0.0825 -0.0012
  513ERGO    R3 7806  16.447  16.062   9.517  0.0611 -0.1134 -0.0454
  513ERGO    R4 7807  16.273  15.890   9.357 -0.0469 -0.0295  0.0058
  513ERGO    R5 7808  16.488  15.908   9.339 -0.0376 -0.2153  0.0275
  513ERGO    C1 7809  16.385  16.008   8.986  0.1074 -0.2790 -0.0314
  513ERGO    C2 7810  16.290  16.003   8.602 -0.1963  0.0163  0.1313
  514ERGO   ROH 7811   9.023  17.275  10.248 -0.3046 -0.1508  0.0307
  514ERGO    R1 7812   8.944  17.107  10.034 -0.3464 -0.0377 -0.0445
  514ERGO    R2 7813   8.803  17.202   9.815 -0.0328  0.1647 -0.1722
  514ERGO    R3 7814   9.008  17.088   9.677 -0.0563 -0.1055  0.0105
  514ERGO    R4 7815   8.799  17.130   9.477  0.0911 -0.0795 -0.1234
  514ERGO    R5 7816   8.901  16.943   9.520 -0.0874 -0.1293  0.0617
  514ERGO    C1 7817   8.988  16.981   9.151  0.1411 -0.4750  0.0765
  514ERGO    C2 7818   9.119  16.863   8.788  0.0014 -0.1955 -0.1598
  515ERGO   ROH 7819  13.377   7.093   6.408 -0.1002  0.0943  0.0154
  515ERGO    R1 7820  13.462   7.022   6.669 -0.0206  0.1300  0.0009
  515ERGO    R2 7821  13.527   7.209   6.861 -0.0093  0.1604 -0.0239
  515ERGO    R3 7822  13.344   7.074   7.009  0.0511  0.1334  0.0237
  515ERGO    R4 7823  13.497   7.229   7.205  0.1480  0.0596 -0.0048
  515ERGO    R5 7824  13.462   7.014   7.209  0.1344  0.0665 -0.0495
  515ERGO    C1 7825  13.309   7.113   7.544  0.2963 -0.0246  0.0510
  515ERGO    C2 7826  13.212   7.081   7.884  0.2201 -0.0483  0.1849
  516ERGO   ROH 7827  16.072  16.961  10.251 -0.1159 -0.2760  0.1135
  516ERGO    R1 7828  16.160  16.886   9.992 -0.1637 -0.1860  0.0698
  516ERGO    R2 7829  16.005  16.734   9.820 -0.2670  0.0203 -0.0250
  516ERGO    R3 7830  16.050  16.940   9.650 -0.1217  0.0911  0.0980
  516ERGO    R4 7831  16.000  16.710   9.476 -0.0772  0.1800 -0.0394
  516ERGO    R5 7832  16.173  16.842   9.469 -0.0411  0.1455  0.1217
  516ERGO    C1 7833  16.040  16.890   9.115  0.1696  0.3391  0.0676
  516ERGO    C2 7834  15.945  16.788   8.960  0.0180  0.1605 -0.3696
  517ERGO   ROH 7835   8.249  14.050   6.826 -0.0476  0.1616  0.0983
  517ERGO    R1 7836   8.218  14.009   7.104  0.0215  0.0989  0.0982
  517ERGO    R2 7837   8.181  13.758   7.214 -0.0207  0.0752  0.0476
  517ERGO    R3 7838   8.395  13.828   7.366  0.0476 -0.0219 -0.0050
  517ERGO    R4 7839   8.278  13.599   7.505 -0.0360  0.0693  0.0485
  517ERGO    R5 7840   8.323  13.794   7.591  0.0854  0.0491  0.0118
  517ERGO    C1 7841   8.536  13.573   7.817  0.0191 -0.0254 -0.0003
  517ERGO    C2 7842   8.887  13.361   7.898  0.1875 -0.0804  0.1830
  518ERGO   ROH 7843   4.624   1.631   7.052 -0.4317  0.3356  0.0605
  518ERGO    R1 7844   4.558   1.681   7.323 -0.2490  0.2793  0.1160
  518ERGO    R2 7845   4.629   1.510   7.527 -0.1794  0.1985  0.0204
  518ERGO    R3 7846   4.739   1.734   7.634 -0.0410  0.1310  0.0235
  518ERGO    R4 7847   4.625   1.590   7.863 -0.1237  0.1884  0.0242
  518ERGO    R5 7848   4.587   1.798   7.808 -0.0015  0.2164  0.0305
  518ERGO    C1 7849   4.726   1.847   8.159  0.0387  0.1192  0.0294
  518ERGO    C2 7850   4.779   1.796   8.419 -0.0917 -0.1433  0.0936
  519ERGO   ROH 7851  12.563   7.041   6.745  0.3434 -0.0983  0.0650
  519ERGO    R1 7852  12.599   6.913   6.995  0.1819 -0.1051  0.0854
  519ERGO    R2 7853  12.543   7.038   7.236  0.1935 -0.0496  0.0570
  519ERGO    R3 7854  12.388   6.819   7.277  0.0320  0.0561  0.0300
  519ERGO    R4 7855  12.439   6.924   7.545  0.0800  0.0082  0.0417
  519ERGO    R5 7856  12.476   6.721   7.477 -0.0568 -0.0165  0.0351
  519ERGO    C1 7857  12.234   6.651   7.763 -0.1379  0.1413  0.0074
  519ERGO    C2 7858  12.052   6.571   8.106 -0.1949  0.1230 -0.0986
  520ERGO   ROH 7859  12.539  10.550   9.855 -0.1327  0.1201 -0.0531
  520ERGO    R1 7860  12.418  10.573   9.600 -0.0843 -0.0708 -0.0944
  520ERGO    R2 7861  12.528  10.725   9.397 -0.1707 -0.0281 -0.1062
  520ERGO    R3 7862  12.509  10.493   9.256  0.0875 -0.0901 -0.0466
  520ERGO    R4 7863  12.494  10.704   9.053  0.1262 -0.1622 -0.1313
  520ERGO    R5 7864  12.351  10.542   9.082  0.1981 -0.2418 -0.1956
  520ERGO    C1 7865  12.456  10.475   8.722  0.5414 -0.2985 -0.0898
  520ERGO    C2 7866  12.476  10.472   8.359  0.0382 -0.4693 -0.0814
  521ERGO   ROH 7867   6.866  12.839   6.115 -0.2876 -0.2649 -0.0643
  521ERGO    R1 7868   6.793  12.787   6.384 -0.0503 -0.2698  0.0018
  521ERGO    R2 7869   6.976  12.708   6.576  0.1740  0.0161 -0.0884
  521ERGO    R3 7870   6.876  12.921   6.711 -0.0012 -0.0603 -0.0951
  521ERGO    R4 7871   6.922  12.718   6.917  0.0530 -0.0594 -0.1050
  521ERGO    R5 7872   6.736  12.825   6.880 -0.0002 -0.1669 -0.1541
  521ERGO    C1 7873   6.796  12.924   7.243 -0.1820 -0.1750 -0.1210
  521ERGO    C2 7874   6.818  12.788   7.570  0.0448  0.0747 -0.0770
  522ERGO   ROH 7875   7.929  16.167  10.120 -0.1920  0.0357  0.0391
  522ERGO    R1 7876   7.850  16.068   9.867 -0.0167  0.0725 -0.0310
  522ERGO    R2 7877   7.647  16.183   9.718 -0.0178 -0.0016 -0.0819
  522ERGO    R3 7878   7.839  16.193   9.526  0.0616  0.1792  0.0041
  522ERGO    R4 7879   7.588  16.235   9.381  0.0421 -0.3592 -0.1520
  522ERGO    R5 7880   7.740  16.086   9.336  0.3267 -0.1419  0.0344
  522ERGO    C1 7881   7.733  16.275   9.005  0.1514 -0.3976 -0.1121
  522ERGO    C2 7882   7.611  16.400   8.684 -0.1497  0.1615 -0.1838
  523ERGO   ROH 7883   1.560   8.044   6.099  0.2706  0.1095  0.1098
  523ERGO    R1 7884   1.660   7.886   6.312  0.1848  0.1825  0.2058
  523ERGO    R2 7885   1.713   7.989   6.562  0.0429  0.2604  0.2047
  523ERGO    R3 7886   1.549   7.788   6.644  0.0283  0.2608  0.1773
  523ERGO    R4 7887   1.732   7.831   6.869 -0.0719  0.3250  0.2461
  523ERGO    R5 7888   1.692   7.642   6.768 -0.0101  0.3004  0.2683
  523ERGO    C1 7889   1.589   7.550   7.124 -0.1524  0.3631  0.2444
  523ERGO    C2 7890   1.514   7.326   7.339  0.0083 -0.4371  0.0012
  524ERGO   ROH 7891  10.417   2.000   9.677  0.0277  0.1759 -0.0198
  524ERGO    R1 7892  10.454   2.109   9.418  0.1381  0.2170  0.0123
  524ERGO    R2 7893  10.694   2.090   9.282  0.0848 -0.1048 -0.0479
  524ERGO    R3 7894  10.537   1.982   9.088 -0.1322  0.2061 -0.0535
  524ERGO    R4 7895  10.774   2.081   8.946  0.0503 -0.2095 -0.0535
  524ERGO    R5 7896  10.566   2.128   8.900  0.1271  0.1823 -0.0355
  524ERGO    C1 7897  10.674   1.975   8.568 -0.1735  0.0215 -0.0620
  524ERGO    C2 7898  10.826   1.874   8.237  0.1054  0.2355 -0.0287
  525ERGO   ROH 7899  10.863  15.245  10.069  0.2136  0.0228 -0.0119
  525ERGO    R1 7900  10.802  15.317   9.802  0.0668 -0.1970 -0.0401
  525ERGO    R2 7901  10.922  15.530   9.674 -0.2645 -0.0774 -0.1621
  525ERGO    R3 7902  10.982  15.342   9.487 -0.0133 -0.0847 -0.0777
  525ERGO    R4 7903  10.984  15.595   9.340 -0.1780 -0.1260 -0.1556
  525ERGO    R5 7904  10.871  15.417   9.289  0.0037 -0.2464 -0.1503
  525ERGO    C1 7905  11.077  15.457   8.971  0.1082 -0.1610 -0.0725
  525ERGO    C2 7906  11.158  15.313   8.661 -0.2692 -0.1242 -0.0220
  526ERGO   ROH 7907   5.341  13.506   9.632 -0.1987  0.0687 -0.0486
  526ERGO    R1 7908   5.483  13.461   9.390 -0.1023  0.2373 -0.0284
  526ERGO    R2 7909   5.491  13.213   9.266  0.3190  0.2006  0.0302
  526ERGO    R3 7910   5.400  13.354   9.053  0.0879  0.0066  0.0003
  526ERGO    R4 7911   5.535  13.123   8.935  0.2207  0.0869  0.0497
  526ERGO    R5 7912   5.572  13.331   8.888  0.0094  0.0826 -0.0766
  526ERGO    C1 7913   5.475  13.203   8.542 -0.0536 -0.1613  0.0328
  526ERGO    C2 7914   5.396  13.048   8.236  0.1227  0.0484 -0.2039
  527ERGO   ROH 7915   3.748  11.359   9.422 -0.1326 -0.1085  0.0849
  527ERGO    R1 7916   3.877  11.307   9.175 -0.0564 -0.0535  0.1111
  527ERGO    R2 7917   3.812  11.090   9.016  0.0606 -0.0799  0.0856
  527ERGO    R3 7918   3.777  11.281   8.826  0.0271 -0.0822  0.0915
  527ERGO    R4 7919   3.839  11.037   8.676 -0.1576 -0.1029  0.0718
  527ERGO    R5 7920   3.940  11.229   8.659 -0.0955 -0.1509  0.0003
  527ERGO    C1 7921   3.822  11.186   8.299 -0.3161 -0.1185  0.0695
  527ERGO    C2 7922   3.856  11.240   7.993 -0.2575 -0.1842  0.0501
  528ERGO   ROH 7923   3.564  14.409   9.913  0.0731 -0.1292  0.0320
  528ERGO    R1 7924   3.410  14.372   9.679  0.0756 -0.0014  0.0089
  528ERGO    R2 7925   3.278  14.580   9.553  0.0771  0.0692  0.1192
  528ERGO    R3 7926   3.417  14.493   9.335  0.0805  0.1863  0.0741
  528ERGO    R4 7927   3.179  14.624   9.224 -0.1810 -0.2021  0.1568
  528ERGO    R5 7928   3.247  14.421   9.182  0.0914 -0.1224  0.1992
  528ERGO    C1 7929   3.251  14.568   8.830 -0.3281 -0.2500  0.1363
  528ERGO    C2 7930   3.335  14.673   8.609  0.1587 -0.0218 -0.2890
  529ERGO   ROH 7931   2.844  16.197   7.998  0.2985 -0.1050 -0.2992
  529ERGO    R1 7932   2.865  16.476   8.037  0.0058 -0.0974 -0.1499
  529ERGO    R2 7933   3.105  16.601   8.100 -0.1399  0.1123  0.0710
  529ERGO    R3 7934   3.046  16.751   7.881 -0.1479  0.1415  0.0967
  529ERGO    R4 7935   3.277  16.884   8.003 -0.0290  0.0041 -0.0463
  529ERGO    R5 7936   3.087  16.976   7.951  0.0200  0.1139  0.0461
  529ERGO    C1 7937   3.322  17.191   7.741  0.0280 -0.0315 -0.0904
  529ERGO    C2 7938   3.512  17.369   7.608  0.0115  0.0677  0.0418
  530ERGO   ROH 7939  15.279   8.897   9.986 -0.4993 -0.0419 -0.0454
  530ERGO    R1 7940  15.424   8.813   9.758 -0.2991 -0.0230  0.0717
  530ERGO    R2 7941  15.377   8.571   9.632 -0.2482  0.0212 -0.0431
  530ERGO    R3 7942  15.348   8.729   9.412  0.0118  0.0931 -0.0271
  530ERGO    R4 7943  15.382   8.458   9.306 -0.3659  0.0597 -0.0581
  530ERGO    R5 7944  15.498   8.634   9.252 -0.1025 -0.1015 -0.0174
  530ERGO    C1 7945  15.359   8.539   8.910 -0.1903  0.1495 -0.0519
  530ERGO    C2 7946  15.134   8.430   8.652  0.1259 -0.2548 -0.0049
  531ERGO   ROH 7947   4.164  13.654   9.694  0.0434 -0.0839  0.0820
  531ERGO    R1 7948   4.012  13.691   9.458  0.0683 -0.0080  0.0773
  531ERGO    R2 7949   4.001  13.933   9.325  0.1001  0.0295  0.1407
  531ERGO    R3 7950   4.080  13.782   9.113  0.1082  0.0802  0.1081
  531ERGO    R4 7951   4.006  14.042   8.997  0.0896  0.1006  0.1643
  531ERGO    R5 7952   3.931  13.846   8.936  0.1022  0.1083  0.1235
  531ERGO    C1 7953   4.083  13.963   8.606  0.0910  0.1896  0.1475
  531ERGO    C2 7954   4.076  14.024   8.277 -0.1467 -0.1452  0.0161
  532ERGO   ROH 7955  12.376   0.019   6.504  0.1080  0.2060  0.1107
  532ERGO    R1 7956  12.416   0.176   6.736  0.0586  0.1199  0.1785
  532ERGO    R2 7957  12.213   0.319   6.857  0.0519  0.1503  0.1336
  532ERGO    R3 7958  12.291   0.181   7.078 -0.0912  0.0540  0.1250
  532ERGO    R4 7959  12.156   0.419   7.183 -0.0371  0.0760  0.1412
  532ERGO    R5 7960  12.357   0.350   7.234 -0.0852 -0.0189  0.2014
  532ERGO    C1 7961  12.197   0.348   7.580 -0.2234 -0.0577  0.1377
  532ERGO    C2 7962  12.291   0.454   7.803 -0.1147 -0.0380  0.0130
  533ERGO   ROH 7963   3.939   9.795   6.137 -0.0409 -0.0818  0.0596
  533ERGO    R1 7964   4.029   9.700   6.388 -0.2418 -0.1950  0.0906
  533ERGO    R2 7965   4.227   9.828   6.533 -0.0098 -0.5300  0.0768
  533ERGO    R3 7966   4.039   9.826   6.730 -0.0387 -0.1288  0.0624
  533ERGO    R4 7967   4.295   9.801   6.871 -0.0849 -0.5401  0.0916
  533ERGO    R5 7968   4.122   9.668   6.890 -0.3301 -0.2313  0.1220
  533ERGO    C1 7969   4.158   9.782   7.252 -0.1558 -0.1692  0.0868
  533ERGO    C2 7970   4.220   9.987   7.556 -0.0702  0.1072  0.1223
  534ERGO   ROH 7971  10.033   4.198   9.280  0.1934  0.1123  0.0422
  534ERGO    R1 7972  10.094   4.301   9.024  0.3151 -0.0575  0.0007
  534ERGO    R2 7973  10.232   4.155   8.833  0.0036 -0.3591 -0.0045
  534ERGO    R3 7974  10.017   4.215   8.679  0.0638 -0.0028  0.0420
  534ERGO    R4 7975  10.216   4.110   8.491 -0.0887 -0.1745 -0.0253
  534ERGO    R5 7976  10.111   4.301   8.476  0.1568 -0.0274  0.0751
  534ERGO    C1 7977  10.004   4.141   8.146 -0.0859  0.2674  0.0060
  534ERGO    C2 7978   9.971   4.009   7.825 -0.1700  0.1983 -0.0720
  535ERGO   ROH 7979   2.279   8.567   9.571  0.0079 -0.1443 -0.1428
  535ERGO    R1 7980   2.222   8.423   9.334  0.1074 -0.0472 -0.2279
  535ERGO    R2 7981   1.981   8.446   9.200  0.0799 -0.1508 -0.2046
  535ERGO    R3 7982   2.142   8.504   8.988  0.0297  0.1019 -0.1752
  535ERGO    R4 7983   1.881   8.438   8.869  0.1446 -0.2853 -0.2209
  535ERGO    R5 7984   2.074   8.349   8.818  0.2904  0.0063 -0.1944
  535ERGO    C1 7985   1.973   8.488   8.478  0.1351 -0.1263 -0.2026
  535ERGO    C2 7986   1.883   8.492   8.135 -0.2287  0.0609  0.1207
  536ERGO   ROH 7987  13.446  12.140   6.431 -0.3033 -0.2446  0.0912
  536ERGO    R1 7988  13.394  12.309   6.652  0.1842 -0.0639  0.0756
  536ERGO    R2 7989  13.198  12.253   6.839  0.0217  0.5161  0.0756
  536ERGO    R3 7990  13.404  12.279   7.015  0.1056 -0.0518  0.0829
  536ERGO    R4 7991  13.163  12.295   7.180  0.0811  0.8199  0.0492
  536ERGO    R5 7992  13.326  12.439   7.175  0.5762  0.3138 -0.0154
  536ERGO    C1 7993  13.336  12.344   7.544  0.1944  0.4634  0.0407
  536ERGO    C2 7994  13.246  12.502   7.937 -0.2253 -0.1193  0.1210
  537ERGO   ROH 7995  16.440   1.319   6.405 -0.1105  0.0250  0.0923
  537ERGO    R1 7996  16.391   1.160   6.634  0.1472  0.0411  0.1620
  537ERGO    R2 7997  16.487   1.225   6.885  0.0457  0.3093  0.1336
  537ERGO    R3 7998  16.226   1.203   6.956  0.0749 -0.0833  0.1424
  537ERGO    R4 7999  16.374   1.180   7.208  0.1191  0.2092  0.1462
  537ERGO    R5 8000  16.225   1.040   7.131  0.3334 -0.0453  0.1825
  537ERGO    C1 8001  16.062   1.133   7.463  0.1892 -0.2177  0.1618
  537ERGO    C2 8002  15.770   1.049   7.705 -0.1725  0.2847  0.1602
  538ERGO   ROH 8003  12.822  17.670   9.651  0.2534  0.2291  0.0722
  538ERGO    R1 8004  12.931  17.631   9.393  0.0810  0.1632  0.0078
  538ERGO    R2 8005  12.805  17.479   9.200  0.0142  0.0010  0.1737
  538ERGO    R3 8006  12.832  17.704   9.050 -0.2174 -0.0533  0.0437
  538ERGO    R4 8007  12.834  17.486   8.855  0.0234 -0.1603  0.1703
  538ERGO    R5 8008  12.984  17.642   8.876 -0.1438  0.0104  0.0876
  538ERGO    C1 8009  12.877  17.701   8.515 -0.1889 -0.3052  0.0463
  538ERGO    C2 8010  12.775  17.775   8.094 -0.0066  0.1190  0.1375
  539ERGO   ROH 8011   0.243   1.877   9.821  0.0779 -0.3302 -0.0400
  539ERGO    R1 8012   0.126   1.974   9.582  0.1522 -0.1021  0.0135
  539ERGO    R2 8013   0.272   2.011   9.350  0.1593 -0.1953  0.0030
  539ERGO    R3 8014   0.080   1.851   9.242 -0.0551  0.0738 -0.0239
  539ERGO    R4 8015   0.200   1.989   9.013  0.3519 -0.2774 -0.0344
  539ERGO    R5 8016  -0.012   1.982   9.063  0.2961  0.1311 -0.1710
  539ERGO    C1 8017  -0.022   1.828   8.715  0.2628 -0.0726 -0.0815
  539ERGO    C2 8018  -0.129   1.752   8.327  0.0426 -0.0205 -0.1504
  540ERGO   ROH 8019   4.117   8.462   6.180 -0.0158  0.1978 -0.0265
  540ERGO    R1 8020   4.247   8.610   6.383 -0.0581  0.1089  0.0667
  540ERGO    R2 8021   4.122   8.679   6.619 -0.1106  0.0116  0.0694
  540ERGO    R3 8022   4.338   8.558   6.732 -0.1392 -0.0425  0.0657
  540ERGO    R4 8023   4.191   8.675   6.958 -0.1385 -0.0665  0.0743
  540ERGO    R5 8024   4.402   8.706   6.910 -0.1316 -0.0890  0.0997
  540ERGO    C1 8025   4.434   8.559   7.261 -0.1815 -0.1627  0.0736
  540ERGO    C2 8026   4.373   8.549   7.584  0.0408 -0.1337  0.0748
  541ERGO   ROH 8027  14.731   9.603   9.909  0.1317  0.3322  0.0828
  541ERGO    R1 8028  14.582   9.565   9.672  0.1093  0.1028  0.1317
  541ERGO    R2 8029  14.452   9.772   9.543 -0.0417 -0.0526  0.0367
  541ERGO    R3 8030  14.596   9.686   9.329 -0.0323 -0.0869  0.0559
  541ERGO    R4 8031  14.397   9.869   9.216  0.0205 -0.0343  0.0310
  541ERGO    R5 8032  14.434   9.664   9.154 -0.0194 -0.0470  0.0347
  541ERGO    C1 8033  14.499   9.845   8.824  0.0654 -0.0556  0.0458
  541ERGO    C2 8034  14.569   9.915   8.447  0.1462 -0.0272 -0.2518
  542ERGO   ROH 8035   7.795   2.356  10.049  0.1479 -0.0131  0.0452
  542ERGO    R1 8036   7.730   2.381   9.774  0.0473  0.0630  0.0751
  542ERGO    R2 8037   7.749   2.169   9.597  0.0716  0.1339 -0.0098
  542ERGO    R3 8038   7.489   2.232   9.546  0.0290  0.0530  0.1013
  542ERGO    R4 8039   7.606   2.175   9.283 -0.0535  0.1457  0.0469
  542ERGO    R5 8040   7.498   2.355   9.341 -0.0944  0.0957  0.1224
  542ERGO    C1 8041   7.279   2.239   9.051 -0.1663  0.0767  0.1840
  542ERGO    C2 8042   7.268   2.207   8.804  0.1254  0.0970 -0.3120
  543ERGO   ROH 8043  13.091   7.979   6.564 -0.0823 -0.0391  0.0687
  543ERGO    R1 8044  13.039   8.197   6.737  0.0197  0.0436 -0.0043
  543ERGO    R2 8045  13.067   8.180   7.011 -0.1698  0.0631  0.0139
  543ERGO    R3 8046  13.227   8.397   6.976  0.0636 -0.0940  0.0788
  543ERGO    R4 8047  13.186   8.379   7.267 -0.4231  0.1801  0.0450
  543ERGO    R5 8048  13.150   8.554   7.141 -0.0837  0.1089 -0.1716
  543ERGO    C1 8049  13.406   8.699   7.383 -0.3516  0.1008  0.1241
  543ERGO    C2 8050  13.564   9.053   7.617  0.2042  0.1981 -0.1770
  544ERGO   ROH 8051  15.308   5.862   6.730 -0.0973 -0.2913 -0.0667
  544ERGO    R1 8052  15.444   5.763   6.958  0.1647  0.0443 -0.0686
  544ERGO    R2 8053  15.560   5.929   7.146 -0.1632  0.3437 -0.1141
  544ERGO    R3 8054  15.407   5.786   7.319  0.1678  0.0299 -0.0687
  544ERGO    R4 8055  15.566   5.963   7.490 -0.0711  0.2795 -0.1098
  544ERGO    R5 8056  15.550   5.747   7.506  0.3242  0.2447 -0.1430
  544ERGO    C1 8057  15.425   5.849   7.852  0.2932 -0.0525 -0.0646
  544ERGO    C2 8058  15.295   5.925   8.112  0.3676  0.0961  0.1001
  545ERGO   ROH 8059  12.692  13.947   9.963  0.1958  0.2050 -0.1569
  545ERGO    R1 8060  12.493  13.809   9.816  0.1469  0.0715  0.0301
  545ERGO    R2 8061  12.406  13.894   9.568  0.0062 -0.1049  0.0181
  545ERGO    R3 8062  12.471  13.641   9.494  0.0148 -0.1409  0.1471
  545ERGO    R4 8063  12.250  13.717   9.316  0.1171 -0.1715 -0.0039
  545ERGO    R5 8064  12.261  13.539   9.442  0.0256 -0.1293  0.0698
  545ERGO    C1 8065  12.220  13.375   9.100  0.1897 -0.2440  0.1044
  545ERGO    C2 8066  12.256  13.322   8.805 -0.0858  0.0571 -0.1213
  546ERGO   ROH 8067   1.500   2.535   6.559 -0.2057  0.2569  0.1333
  546ERGO    R1 8068   1.736   2.676   6.626 -0.1076  0.1248  0.0707
  546ERGO    R2 8069   1.791   2.761   6.883 -0.0297  0.1660  0.0419
  546ERGO    R3 8070   2.022   2.624   6.845 -0.1217  0.0038  0.0604
  546ERGO    R4 8071   2.060   2.764   7.100  0.0938  0.2621 -0.1107
  546ERGO    R5 8072   2.192   2.771   6.927  0.0021  0.0057 -0.1937
  546ERGO    C1 8073   2.433   2.637   7.190  0.0792  0.1657 -0.1820
  546ERGO    C2 8074   2.681   2.670   7.262  0.0936 -0.0313  0.3577
  547ERGO   ROH 8075  16.807   0.096   6.586 -0.2379  0.2509  0.0039
  547ERGO    R1 8076  16.941   0.139   6.831 -0.0826  0.1657 -0.0658
  547ERGO    R2 8077  16.837   0.296   7.033  0.0457  0.0945  0.0526
  547ERGO    R3 8078  16.877   0.073   7.184  0.1427  0.0450 -0.0442
  547ERGO    R4 8079  16.866   0.293   7.378 -0.3026 -0.0711  0.0861
  547ERGO    R5 8080  17.025   0.145   7.358 -0.1096  0.1152  0.1525
  547ERGO    C1 8081  16.922   0.083   7.719 -0.4145 -0.2140  0.0147
  547ERGO    C2 8082  16.958   0.238   8.018  0.2295 -0.1454  0.1980
  548ERGO   ROH 8083   0.679  16.937   6.623 -0.1690 -0.0415  0.0087
  548ERGO    R1 8084   0.887  16.838   6.788 -0.1363  0.2480  0.1475
  548ERGO    R2 8085   0.871  16.839   7.064 -0.4204  0.0285  0.1385
  548ERGO    R3 8086   0.925  16.574   7.035  0.1229  0.1432 -0.0012
  548ERGO    R4 8087   1.017  16.639   7.305 -0.5571  0.0771  0.2619
  548ERGO    R5 8088   1.133  16.543   7.149 -0.0459  0.4255  0.4056
  548ERGO    C1 8089   1.153  16.275   7.419 -0.1267  0.2130  0.2027
  548ERGO    C2 8090   0.991  16.228   7.744 -0.4869  0.0483 -0.0485
  549ERGO   ROH 8091  16.295   0.538  10.024  0.1513  0.2292 -0.1693
  549ERGO    R1 8092  16.225   0.369   9.808  0.1282  0.1681 -0.1136
  549ERGO    R2 8093  16.102   0.463   9.579  0.0485  0.0923 -0.0986
  549ERGO    R3 8094  16.311   0.341   9.455  0.0382  0.1073 -0.1324
  549ERGO    R4 8095  16.118   0.393   9.241 -0.0636 -0.0200 -0.0816
  549ERGO    R5 8096  16.209   0.201   9.290  0.0103  0.0191 -0.0458
  549ERGO    C1 8097  16.324   0.238   8.928 -0.1387 -0.0712 -0.1036
  549ERGO    C2 8098  16.284   0.352   8.653 -0.0071  0.0507 -0.0442
  550ERGO   ROH 8099  17.899   9.523   9.832 -0.5634 -0.2152  0.0748
  550ERGO    R1 8100  18.010   9.478   9.575 -0.2453 -0.0948  0.1870
  550ERGO    R2 8101  17.948   9.256   9.422 -0.0471 -0.0302  0.0104
  550ERGO    R3 8102  17.885   9.444   9.235  0.1719  0.0475  0.0112
  550ERGO    R4 8103  17.902   9.193   9.086 -0.4177 -0.0397  0.0582
  550ERGO    R5 8104  18.008   9.377   9.041 -0.0901 -0.2450 -0.0654
  550ERGO    C1 8105  17.817   9.331   8.714 -0.4279  0.0277  0.0869
  550ERGO    C2 8106  17.821   9.334   8.380 -0.0439 -0.1342  0.0006
  551ERGO   ROH 8107  11.281   7.050   9.693 -0.2375 -0.3417 -0.0055
  551ERGO    R1 8108  11.457   7.018   9.474 -0.1092 -0.2297  0.0803
  551ERGO    R2 8109  11.544   6.770   9.388 -0.0774 -0.1842 -0.0116
  551ERGO    R3 8110  11.447   6.855   9.149  0.0755 -0.0421 -0.0213
  551ERGO    R4 8111  11.608   6.619   9.084 -0.1609 -0.2042 -0.0206
  551ERGO    R5 8112  11.627   6.817   8.995  0.0741 -0.2098  0.0179
  551ERGO    C1 8113  11.555   6.612   8.682 -0.0660 -0.0824 -0.0349
  551ERGO    C2 8114  11.613   6.446   8.469  0.1010 -0.1344 -0.1689
  552ERGO   ROH 8115   9.263   1.656   6.367 -0.0000 -0.1185 -0.1908
  552ERGO    R1 8116   9.277   1.818   6.598  0.1404 -0.2490 -0.1062
  552ERGO    R2 8117   9.061   1.968   6.688  0.3169  0.0159 -0.1263
  552ERGO    R3 8118   9.108   1.834   6.921  0.0298 -0.1640 -0.1660
  552ERGO    R4 8119   8.986   2.086   7.004  0.3697 -0.0041 -0.1053
  552ERGO    R5 8120   9.174   2.004   7.075  0.2286 -0.3226 -0.0660
  552ERGO    C1 8121   8.985   2.029   7.406  0.1309 -0.1845 -0.1303
  552ERGO    C2 8122   9.010   1.946   7.748 -0.2208 -0.4730 -0.1767
  553ERGO   ROH 8123  13.900   0.057   6.180 -0.0494  0.0746  0.0849
  553ERGO    R1 8124  13.943   0.195   6.423 -0.2501  0.0694  0.1246
  553ERGO    R2 8125  13.780   0.164   6.644 -0.0925 -0.3916  0.1842
  553ERGO    R3 8126  14.014   0.107   6.769  0.0988  0.0698  0.0578
  553ERGO    R4 8127  13.887   0.309   6.938 -0.2645 -0.2380  0.1730
  553ERGO    R5 8128  14.088   0.317   6.855 -0.3086  0.2155  0.0783
  553ERGO    C1 8129  14.169   0.341   7.227 -0.1852  0.2847  0.0479
  553ERGO    C2 8130  14.039   0.513   7.528  0.4184  0.0945 -0.0594
  554ERGO   ROH 8131   9.363  13.497   6.678  0.2348  0.0087 -0.1239
  554ERGO    R1 8132   9.256  13.397   6.920  0.1589 -0.0718 -0.1888
  554ERGO    R2 8133   9.395  13.223   7.083  0.2083  0.0616 -0.0774
  554ERGO    R3 8134   9.342  13.411   7.273 -0.0908  0.0342 -0.1319
  554ERGO    R4 8135   9.412  13.170   7.425  0.3949  0.2205 -0.0607
  554ERGO    R5 8136   9.231  13.290   7.447  0.1784 -0.1063 -0.0594
  554ERGO    C1 8137   9.371  13.315   7.801  0.2227  0.2873 -0.1021
  554ERGO    C2 8138   9.267  13.470   8.161  0.1360 -0.2967  0.2132
  555ERGO   ROH 8139  14.362  11.925   6.626 -0.2043 -0.0020  0.1886
  555ERGO    R1 8140  14.423  12.162   6.769  0.1675 -0.0365  0.0958
  555ERGO    R2 8141  14.268  12.254   6.978  0.1766  0.4086 -0.0854
  555ERGO    R3 8142  14.504  12.250   7.113  0.0669 -0.0010  0.1110
  555ERGO    R4 8143  14.309  12.352   7.307  0.0618  0.2666 -0.0273
  555ERGO    R5 8144  14.497  12.446   7.250  0.2666 -0.0173  0.1486
  555ERGO    C1 8145  14.554  12.405   7.625 -0.1081 -0.2006  0.1909
  555ERGO    C2 8146  14.605  12.304   7.974  0.2029 -0.1740 -0.3606
  556ERGO   ROH 8147   7.878   3.686   9.590 -0.0448 -0.2482 -0.0640
  556ERGO    R1 8148   7.948   3.808   9.344 -0.0124 -0.1354  0.0015
  556ERGO    R2 8149   8.099   3.679   9.152  0.0443 -0.0323 -0.0192
  556ERGO    R3 8150   7.889   3.743   8.991  0.0693  0.0051 -0.0391
  556ERGO    R4 8151   8.111   3.694   8.807  0.0385 -0.1877 -0.0277
  556ERGO    R5 8152   7.987   3.872   8.814  0.1286 -0.1192 -0.0997
  556ERGO    C1 8153   7.922   3.762   8.455  0.0587 -0.2431 -0.0512
  556ERGO    C2 8154   7.804   3.696   8.227  0.1208 -0.1114  0.0329
  557ERGO   ROH 8155  15.226   6.141  10.341  0.0837  0.0725 -0.0531
  557ERGO    R1 8156  15.055   6.253  10.144  0.0896  0.1099 -0.0379
  557ERGO    R2 8157  15.118   6.484  10.007  0.1316  0.0945 -0.0504
  557ERGO    R3 8158  15.076   6.328   9.789  0.0727  0.0973 -0.0407
  557ERGO    R4 8159  15.124   6.597   9.681  0.0318  0.0946 -0.0523
  557ERGO    R5 8160  14.953   6.468   9.638  0.0258  0.0919 -0.0038
  557ERGO    C1 8161  15.089   6.516   9.285 -0.0816  0.0973 -0.0441
  557ERGO    C2 8162  15.108   6.408   8.972  0.0283 -0.0458 -0.1556
  558ERGO   ROH 8163   2.590   4.046   6.254 -0.1277  0.2685 -0.0682
  558ERGO    R1 8164   2.694   4.031   6.517 -0.0540 -0.1208 -0.1124
  558ERGO    R2 8165   2.725   4.254   6.677  0.4449 -0.2829  0.0385
  558ERGO    R3 8166   2.576   4.109   6.853  0.2182 -0.1201 -0.0154
  558ERGO    R4 8167   2.645   4.355   6.998  0.2893 -0.1250 -0.0487
  558ERGO    R5 8168   2.679   4.150   7.066  0.0967 -0.1262  0.0431
  558ERGO    C1 8169   2.458   4.278   7.350 -0.0141  0.1198 -0.1500
  558ERGO    C2 8170   2.177   4.330   7.545  0.0249  0.2025 -0.0410
  559ERGO   ROH 8171  10.118  18.017   9.971 -0.0273 -0.0181 -0.0165
  559ERGO    R1 8172  10.183  18.084   9.704  0.1781 -0.0491  0.0235
  559ERGO    R2 8173  10.299  17.904   9.529 -0.0701 -0.2032  0.0110
  559ERGO    R3 8174  10.087  17.970   9.372  0.0878  0.2088 -0.0417
  559ERGO    R4 8175  10.271  17.826   9.194 -0.1915 -0.2682  0.0363
  559ERGO    R5 8176  10.186  18.023   9.160  0.2443 -0.0822 -0.0483
  559ERGO    C1 8177  10.056  17.841   8.851 -0.1140  0.0807  0.0017
  559ERGO    C2 8178   9.856  17.783   8.485 -0.0277  0.0465  0.3025
  560ERGO   ROH 8179   1.300   6.940  10.212  0.2604  0.0069  0.0107
  560ERGO    R1 8180   1.419   6.977   9.958  0.1974 -0.0609 -0.0296
  560ERGO    R2 8181   1.451   6.771   9.777  0.0847 -0.0941 -0.0128
  560ERGO    R3 8182   1.318   6.940   9.611  0.0849 -0.0773  0.0045
  560ERGO    R4 8183   1.463   6.759   9.432  0.1440 -0.0142 -0.0134
  560ERGO    R5 8184   1.470   6.977   9.429  0.1095 -0.0119  0.0377
  560ERGO    C1 8185   1.346   6.910   9.075  0.1787  0.0482  0.0025
  560ERGO    C2 8186   1.426   6.844   8.707  0.0851 -0.1824 -0.1466
  561ERGO   ROH 8187  13.410   1.721  10.332 -0.2484 -0.2499  0.0555
  561ERGO    R1 8188  13.397   1.615  10.069 -0.1513 -0.1777  0.0207
  561ERGO    R2 8189  13.162   1.606   9.924 -0.0949 -0.1144 -0.0807
  561ERGO    R3 8190  13.310   1.740   9.739 -0.0028 -0.0776  0.0190
  561ERGO    R4 8191  13.166   1.536   9.585 -0.0443  0.0577 -0.1164
  561ERGO    R5 8192  13.381   1.570   9.585 -0.0335 -0.0246 -0.0510
  561ERGO    C1 8193  13.306   1.621   9.214  0.0715  0.1924 -0.0435
  561ERGO    C2 8194  13.295   1.588   8.885 -0.3622  0.0866 -0.1284
  562ERGO   ROH 8195   4.284  12.333   9.561  0.0844 -0.0375  0.1348
  562ERGO    R1 8196   4.138  12.451   9.349  0.0863  0.1283  0.2220
  562ERGO    R2 8197   4.197  12.702   9.250  0.3432  0.0541  0.1542
  562ERGO    R3 8198   4.211  12.570   9.013  0.0157 -0.0013  0.1629
  562ERGO    R4 8199   4.168  12.850   8.939  0.0684 -0.0138  0.1457
  562ERGO    R5 8200   4.050  12.679   8.874 -0.0816  0.0358  0.3147
  562ERGO    C1 8201   4.165  12.811   8.535 -0.3990 -0.1054  0.1489
  562ERGO    C2 8202   4.218  12.857   8.177  0.0250  0.2794 -0.2812
  563ERGO   ROH 8203   3.590  12.704   6.375 -0.1982  0.1908 -0.0661
  563ERGO    R1 8204   3.442  12.756   6.610 -0.1339 -0.0362  0.0270
  563ERGO    R2 8205   3.242  12.588   6.700  0.0050 -0.2105  0.0130
  563ERGO    R3 8206   3.387  12.591   6.930  0.0974 -0.2572 -0.0437
  563ERGO    R4 8207   3.129  12.474   7.006  0.0437 -0.0631  0.0833
  563ERGO    R5 8208   3.227  12.644   7.100  0.1986 -0.1075  0.0072
  563ERGO    C1 8209   3.200  12.410   7.400  0.1530 -0.0213  0.0710
  563ERGO    C2 8210   3.166  12.163   7.729  0.2936 -0.2627  0.2289
  564ERGO   ROH 8211   4.699   2.273  10.174 -0.3182 -0.2624 -0.0712
  564ERGO    R1 8212   4.847   2.223   9.938 -0.1860 -0.4344  0.0453
  564ERGO    R2 8213   4.765   2.040   9.748 -0.4673 -0.0646 -0.2094
  564ERGO    R3 8214   4.791   2.252   9.579  0.2680  0.0408  0.0026
  564ERGO    R4 8215   4.867   2.018   9.419 -0.4090 -0.0608 -0.1911
  564ERGO    R5 8216   4.985   2.199   9.448  0.1657 -0.4463  0.0323
  564ERGO    C1 8217   4.951   2.203   9.068  0.3151  0.0403  0.0186
  564ERGO    C2 8218   5.168   2.183   8.728  0.0128  0.0002  0.2329
  565ERGO   ROH 8219  11.851   3.564   6.512  0.0328  0.0494 -0.0569
  565ERGO    R1 8220  11.777   3.795   6.658 -0.1239 -0.0101 -0.0429
  565ERGO    R2 8221  11.530   3.821   6.778 -0.0595 -0.2796  0.1433
  565ERGO    R3 8222  11.680   3.872   7.000  0.0539 -0.0586  0.0213
  565ERGO    R4 8223  11.413   3.974   7.066 -0.0126 -0.2938  0.1714
  565ERGO    R5 8224  11.601   4.084   7.078 -0.1023 -0.1023 -0.0005
  565ERGO    C1 8225  11.485   4.110   7.440  0.1212 -0.0946  0.0731
  565ERGO    C2 8226  11.312   4.205   7.743  0.3095  0.0103 -0.0300
  566ERGO   ROH 8227   4.798   0.036   6.934  0.0216  0.0272  0.0235
  566ERGO    R1 8228   4.844   0.125   7.199 -0.1720 -0.0373  0.0807
  566ERGO    R2 8229   4.701   0.029   7.415 -0.0424 -0.4078  0.0085
  566ERGO    R3 8230   4.949  -0.024   7.514  0.0417 -0.0347  0.0125
  566ERGO    R4 8231   4.772  -0.031   7.748  0.0443 -0.2810  0.0134
  566ERGO    R5 8232   4.953   0.088   7.726 -0.1270 -0.0096  0.0055
  566ERGO    C1 8233   5.045  -0.116   8.035  0.1737  0.1431  0.0200
  566ERGO    C2 8234   4.904  -0.228   8.368  0.3105 -0.0078  0.0512
  567ERGO   ROH 8235  17.664   3.341  10.032  0.1763  0.1996 -0.0535
  567ERGO    R1 8236  17.696   3.438   9.768  0.2869  0.1064 -0.0756
  567ERGO    R2 8237  17.898   3.350   9.601  0.2535 -0.0820 -0.0217
  567ERGO    R3 8238  17.691   3.297   9.432  0.2411  0.0178 -0.0378
  567ERGO    R4 8239  17.896   3.419   9.262  0.2686  0.0174 -0.0017
  567ERGO    R5 8240  17.689   3.483   9.281  0.2853  0.0619  0.0166
  567ERGO    C1 8241  17.702   3.409   8.907  0.2658  0.1690 -0.0051
  567ERGO    C2 8242  17.601   3.335   8.589 -0.2099 -0.0669  0.1729
  568ERGO   ROH 8243   2.398  16.838   9.817  0.0221 -0.1171 -0.0169
  568ERGO    R1 8244   2.361  16.958   9.563 -0.0945 -0.1072  0.0039
  568ERGO    R2 8245   2.561  17.097   9.433 -0.2111  0.0689  0.0042
  568ERGO    R3 8246   2.505  16.925   9.231 -0.0973  0.0529 -0.0139
  568ERGO    R4 8247   2.657  17.142   9.105 -0.4400  0.2860 -0.0354
  568ERGO    R5 8248   2.462  17.067   9.043 -0.3788  0.0525  0.0476
  568ERGO    C1 8249   2.660  17.007   8.722 -0.4664  0.3974 -0.0754
  568ERGO    C2 8250   2.701  17.043   8.366  0.1065 -0.1435  0.2144
  569ERGO   ROH 8251   0.546  14.262   9.784  0.0066 -0.1210  0.0177
  569ERGO    R1 8252   0.574  14.353   9.518 -0.0418 -0.0702  0.0310
  569ERGO    R2 8253   0.633  14.183   9.308  0.0037 -0.0127  0.0072
  569ERGO    R3 8254   0.410  14.292   9.199 -0.0376 -0.0749  0.0268
  569ERGO    R4 8255   0.562  14.189   8.970  0.0889  0.1402 -0.0093
  569ERGO    R5 8256   0.486  14.392   8.995 -0.0371  0.0922  0.0989
  569ERGO    C1 8257   0.310  14.295   8.671  0.0997  0.1709 -0.0005
  569ERGO    C2 8258   0.291  14.255   8.352  0.3834  0.0988 -0.1702
  570ERGO   ROH 8259   1.146  14.727   6.524 -0.1227  0.0274  0.0193
  570ERGO    R1 8260   1.169  14.820   6.791  0.0007  0.1168 -0.0213
  570ERGO    R2 8261   1.240  14.655   7.001 -0.3210  0.0844  0.0700
  570ERGO    R3 8262   1.432  14.844   7.041  0.0107 -0.2292  0.0039
  570ERGO    R4 8263   1.368  14.743   7.310 -0.3788  0.1727  0.0694
  570ERGO    R5 8264   1.367  14.951   7.245  0.0621  0.1144 -0.1561
  570ERGO    C1 8265   1.623  14.970   7.528 -0.1011 -0.0702  0.0069
  570ERGO    C2 8266   1.794  14.932   7.837 -0.1625 -0.2811 -0.0933
  571ERGO   ROH 8267   9.394  14.569  10.015 -0.1191  0.0385 -0.0424
  571ERGO    R1 8268   9.326  14.683   9.764 -0.0838 -0.0093 -0.0737
  571ERGO    R2 8269   9.514  14.800   9.598 -0.0836  0.0946 -0.0011
  571ERGO    R3 8270   9.413  14.625   9.416  0.0920  0.0292 -0.0373
  571ERGO    R4 8271   9.503  14.855   9.257 -0.0360  0.1050 -0.0010
  571ERGO    R5 8272   9.304  14.764   9.254  0.0305 -0.0416 -0.0576
  571ERGO    C1 8273   9.402  14.723   8.887  0.1564  0.0497 -0.0351
  571ERGO    C2 8274   9.500  14.583   8.596  0.0745 -0.0811 -0.3084
  572ERGO   ROH 8275  16.766   7.692  10.173  0.2715 -0.1077 -0.0178
  572ERGO    R1 8276  16.826   7.602   9.912 -0.1687 -0.3538 -0.0445
  572ERGO    R2 8277  16.630   7.514   9.737 -0.6258  0.4379  0.0010
  572ERGO    R3 8278  16.739   7.701   9.572  0.1125  0.0402 -0.0050
  572ERGO    R4 8279  16.610   7.510   9.392 -0.4909  0.4503 -0.0063
  572ERGO    R5 8280  16.817   7.577   9.384 -0.2385 -0.2765  0.0578
  572ERGO    C1 8281  16.700   7.683   9.037  0.2809  0.0841 -0.0161
  572ERGO    C2 8282  16.592   7.670   8.744  0.2760 -0.0676 -0.2730
  573ERGO   ROH 8283   7.950   5.320   9.336 -0.3330  0.3079  0.0565
  573ERGO    R1 8284   7.948   5.327   9.053 -0.2064  0.1463  0.0509
  573ERGO    R2 8285   7.715   5.324   8.905 -0.1392  0.0468 -0.0517
  573ERGO    R3 8286   7.820   5.549   8.794 -0.1055 -0.0091 -0.1353
  573ERGO    R4 8287   7.679   5.416   8.574 -0.2839  0.0226 -0.0438
  573ERGO    R5 8288   7.887   5.481   8.574 -0.2544 -0.0638 -0.1662
  573ERGO    C1 8289   7.757   5.681   8.277 -0.3365 -0.0438 -0.1179
  573ERGO    C2 8290   7.611   5.748   7.957  0.2005  0.2166 -0.0020
  574ERGO   ROH 8291  10.591  17.847   6.418  0.0278 -0.0961  0.1655
  574ERGO    R1 8292  10.635  18.053   6.607 -0.0514 -0.0216  0.1038
  574ERGO    R2 8293  10.621  18.010   6.880 -0.0277  0.0527  0.1181
  574ERGO    R3 8294  10.870  18.117   6.878 -0.0709  0.1533  0.0795
  574ERGO    R4 8295  10.789  18.125   7.159  0.1077 -0.1887  0.1393
  574ERGO    R5 8296  10.861  18.293   7.040 -0.0346 -0.0293  0.2794
  574ERGO    C1 8297  11.121  18.293   7.320  0.1462 -0.2349  0.1155
  574ERGO    C2 8298  11.359  18.367   7.483  0.2849 -0.2654  0.2484
  575ERGO   ROH 8299   6.423  10.928   6.487 -0.2110 -0.1249 -0.0748
  575ERGO    R1 8300   6.445  11.050   6.741 -0.3019  0.0563 -0.1526
  575ERGO    R2 8301   6.228  11.085   6.909 -0.2934 -0.1983 -0.0891
  575ERGO    R3 8302   6.386  10.953   7.087 -0.0055  0.1524 -0.0711
  575ERGO    R4 8303   6.179  11.082   7.251 -0.3242 -0.2969 -0.0932
  575ERGO    R5 8304   6.395  11.099   7.277 -0.3507  0.1894 -0.0733
  575ERGO    C1 8305   6.299  10.957   7.618 -0.0719 -0.0250 -0.0788
  575ERGO    C2 8306   6.159  10.769   7.892 -0.2075 -0.0426 -0.1898
  576ERGO   ROH 8307   2.306  15.060   6.615 -0.1609 -0.1284 -0.2131
  576ERGO    R1 8308   2.357  14.993   6.885 -0.1430  0.0847 -0.1619
  576ERGO    R2 8309   2.436  14.740   6.963 -0.3153  0.0943  0.0550
  576ERGO    R3 8310   2.642  14.875   7.078 -0.1826  0.0483 -0.1264
  576ERGO    R4 8311   2.536  14.706   7.292 -0.2016  0.2719  0.0402
  576ERGO    R5 8312   2.567  14.921   7.300 -0.0614  0.2583 -0.1280
  576ERGO    C1 8313   2.788  14.812   7.591 -0.0107  0.3323 -0.1387
  576ERGO    C2 8314   2.908  14.839   7.904 -0.0182 -0.1364 -0.0723
  577ERGO   ROH 8315   9.713   3.334   9.597 -0.1413  0.0707  0.1474
  577ERGO    R1 8316   9.593   3.269   9.349 -0.1106 -0.0331  0.1594
  577ERGO    R2 8317   9.372   3.404   9.251  0.0105  0.0462 -0.0072
  577ERGO    R3 8318   9.530   3.439   9.033  0.1005 -0.2261  0.0100
  577ERGO    R4 8319   9.260   3.401   8.925  0.0095  0.3742 -0.0129
  577ERGO    R5 8320   9.439   3.290   8.869 -0.2159  0.0041 -0.0356
  577ERGO    C1 8321   9.343   3.433   8.529  0.0935  0.3095 -0.0001
  577ERGO    C2 8322   9.258   3.549   8.314 -0.0365  0.1289  0.0022
  578ERGO   ROH 8323  12.111   7.873   6.447  0.0272  0.1172  0.1062
  578ERGO    R1 8324  12.119   7.810   6.722 -0.0017  0.0325  0.0876
  578ERGO    R2 8325  12.268   7.955   6.904  0.0335 -0.0657  0.1360
  578ERGO    R3 8326  12.030   7.974   7.034  0.0350 -0.0352  0.1343
  578ERGO    R4 8327  12.230   7.952   7.248  0.0588  0.2078  0.1431
  578ERGO    R5 8328  12.053   7.828   7.222  0.0967  0.1267  0.2568
  578ERGO    C1 8329  11.985   7.969   7.570  0.0751  0.3959  0.1457
  578ERGO    C2 8330  11.757   8.073   7.809  0.0448 -0.2985  0.0443
  579ERGO   ROH 8331   6.931  15.176   6.356  0.0117 -0.1462 -0.2624
  579ERGO    R1 8332   6.975  15.129   6.631 -0.0356  0.0858 -0.2132
  579ERGO    R2 8333   6.770  15.122   6.816 -0.1182 -0.1688 -0.3086
  579ERGO    R3 8334   6.876  14.879   6.877  0.2826  0.0427 -0.1245
  579ERGO    R4 8335   6.764  14.976   7.130 -0.1411 -0.0698 -0.2628
  579ERGO    R5 8336   6.968  14.908   7.096  0.0270  0.2951 -0.0446
  579ERGO    C1 8337   6.860  14.664   7.369  0.2218  0.1864 -0.0633
  579ERGO    C2 8338   6.797  14.626   7.699 -0.1941  0.4680  0.1397
  580ERGO   ROH 8339   1.694  14.209   9.947  0.1501 -0.3443  0.0060
  580ERGO    R1 8340   1.619  14.282   9.684  0.0410 -0.2274  0.0689
  580ERGO    R2 8341   1.798  14.388   9.503 -0.0341 -0.1495  0.0407
  580ERGO    R3 8342   1.711  14.184   9.346 -0.1012 -0.0790 -0.0144
  580ERGO    R4 8343   1.720  14.417   9.167 -0.1544 -0.0000  0.0803
  580ERGO    R5 8344   1.549  14.286   9.201 -0.1497 -0.0069  0.0875
  580ERGO    C1 8345   1.593  14.242   8.825 -0.2874  0.1532  0.0516
  580ERGO    C2 8346   1.515  14.245   8.510 -0.2764  0.1993 -0.0668
  581ERGO   ROH 8347  15.985  14.532  10.182 -0.1370 -0.2535  0.0142
  581ERGO    R1 8348  16.141  14.437   9.965  0.0059 -0.1454  0.0715
  581ERGO    R2 8349  16.028  14.315   9.743  0.1708 -0.1917  0.0290
  581ERGO    R3 8350  16.167  14.507   9.609  0.1164 -0.1098  0.0825
  581ERGO    R4 8351  16.119  14.297   9.410 -0.1874  0.0899 -0.0937
  581ERGO    R5 8352  16.312  14.384   9.463 -0.0818 -0.0429 -0.1947
  581ERGO    C1 8353  16.302  14.466   9.091 -0.4468  0.3306 -0.1149
  581ERGO    C2 8354  16.218  14.404   8.775  0.0040  0.0321  0.0304
  582ERGO   ROH 8355   6.361  15.271  10.295  0.0674 -0.3054 -0.0249
  582ERGO    R1 8356   6.341  15.439  10.068 -0.0110 -0.2314  0.0359
  582ERGO    R2 8357   6.552  15.478   9.894 -0.0709 -0.1761 -0.0253
  582ERGO    R3 8358   6.370  15.400   9.707 -0.1365 -0.1150  0.0127
  582ERGO    R4 8359   6.588  15.520   9.552 -0.0761 -0.2918 -0.0404
  582ERGO    R5 8360   6.376  15.572   9.541 -0.0450 -0.1642 -0.0351
  582ERGO    C1 8361   6.438  15.471   9.179 -0.1407 -0.3019 -0.0135
  582ERGO    C2 8362   6.515  15.578   8.868  0.2635 -0.0303 -0.2105
  583ERGO   ROH 8363  15.048  14.063  10.014  0.0988  0.1546  0.1300
  583ERGO    R1 8364  15.112  13.927   9.775  0.0570  0.0679  0.1686
  583ERGO    R2 8365  14.956  13.945   9.547  0.0333  0.0057  0.1854
  583ERGO    R3 8366  15.191  14.019   9.432  0.0256 -0.0577  0.1252
  583ERGO    R4 8367  15.031  13.911   9.211 -0.0249 -0.1312  0.1852
  583ERGO    R5 8368  15.232  13.850   9.267 -0.0168 -0.1300  0.1820
  583ERGO    C1 8369  15.294  13.960   8.907 -0.0659 -0.2705  0.1285
  583ERGO    C2 8370  15.107  14.050   8.732 -0.1773  0.1377 -0.0365
  584ERGO   ROH 8371   6.267   7.240   9.725 -0.0971  0.4760  0.0847
  584ERGO    R1 8372   6.190   7.275   9.455 -0.0835  0.2333  0.0453
  584ERGO    R2 8373   6.272   7.492   9.303 -0.2215  0.2000 -0.0953
  584ERGO    R3 8374   6.358   7.298   9.133 -0.0464  0.1399  0.0607
  584ERGO    R4 8375   6.369   7.545   8.976 -0.1876  0.0195 -0.1144
  584ERGO    R5 8376   6.267   7.361   8.920 -0.0390 -0.0867 -0.0039
  584ERGO    C1 8377   6.506   7.395   8.625 -0.0035 -0.1422  0.0209
  584ERGO    C2 8378   6.521   7.465   8.264  0.0991  0.0256  0.0093
  585ERGO   ROH 8379   4.416  10.665   9.428  0.0051 -0.0160  0.0918
  585ERGO    R1 8380   4.513  10.479   9.238 -0.1157 -0.0258  0.0401
  585ERGO    R2 8381   4.524  10.535   8.967 -0.0239  0.0654  0.0688
  585ERGO    R3 8382   4.785  10.465   8.997 -0.0838 -0.1656  0.0798
  585ERGO    R4 8383   4.727  10.417   8.713 -0.1122 -0.0483  0.0496
  585ERGO    R5 8384   4.812  10.275   8.854 -0.2438 -0.1617  0.0311
  585ERGO    C1 8385   5.090  10.284   8.593 -0.2198 -0.3311  0.0488
  585ERGO    C2 8386   5.276  10.347   8.342  0.0764  0.0144 -0.1592
  586ERGO   ROH 8387  12.095  10.997   9.923  0.2133 -0.1949  0.1495
  586ERGO    R1 8388  12.043  11.069   9.654  0.1530 -0.0883  0.1885
  586ERGO    R2 8389  12.244  11.131   9.475  0.1103  0.0345  0.1806
  586ERGO    R3 8390  12.127  10.938   9.325  0.1277  0.0734  0.1171
  586ERGO    R4 8391  12.283  11.094   9.134  0.2323  0.0587  0.1917
  586ERGO    R5 8392  12.071  11.047   9.120  0.2285  0.1037  0.1064
  586ERGO    C1 8393  12.195  10.891   8.794  0.3197  0.1095  0.1387
  586ERGO    C2 8394  12.065  10.839   8.418 -0.1268  0.0349  0.0124
  587ERGO   ROH 8395   2.336   5.029   9.865  0.1784 -0.3727  0.1308
  587ERGO    R1 8396   2.378   5.132   9.605  0.1999 -0.2632  0.1753
  587ERGO    R2 8397   2.564   5.026   9.430  0.1459 -0.2592  0.1025
  587ERGO    R3 8398   2.349   5.009   9.264  0.1190 -0.0915  0.1212
  587ERGO    R4 8399   2.579   4.936   9.097  0.0738  0.0676  0.0085
  587ERGO    R5 8400   2.430   5.089   9.053  0.0749  0.1091  0.1854
  587ERGO    C1 8401   2.386   4.867   8.746  0.0065  0.4152 -0.0288
  587ERGO    C2 8402   2.433   4.728   8.449  0.0908 -0.4111  0.1286
  588ERGO   ROH 8403  14.082  11.366   7.399 -0.1511 -0.3410  0.2508
  588ERGO    R1 8404  14.023  11.591   7.561 -0.1012 -0.1549  0.0183
  588ERGO    R2 8405  13.821  11.590   7.749 -0.2290  0.1498 -0.0996
  588ERGO    R3 8406  14.020  11.667   7.917 -0.2743  0.1522 -0.0479
  588ERGO    R4 8407  13.773  11.718   8.066 -0.2880  0.0842 -0.0819
  588ERGO    R5 8408  13.933  11.861   8.027 -0.3129  0.1115 -0.0235
  588ERGO    C1 8409  13.933  11.866   8.408 -0.3648  0.0483 -0.0231
  588ERGO    C2 8410  13.774  11.988   8.667 -0.1115 -0.3949 -0.5685
  589ERGO   ROH 8411  12.430  16.452   6.359  0.0962  0.1053 -0.0608
  589ERGO    R1 8412  12.562  16.349   6.588 -0.0001  0.1351  0.0081
  589ERGO    R2 8413  12.755  16.491   6.725 -0.0002  0.1182  0.0183
  589ERGO    R3 8414  12.594  16.440   6.938 -0.0727  0.2295 -0.0083
  589ERGO    R4 8415  12.828  16.575   7.052  0.3283 -0.5112  0.1234
  589ERGO    R5 8416  12.745  16.383   7.115 -0.1465 -0.4066 -0.1219
  589ERGO    C1 8417  12.719  16.577   7.443  0.4514 -0.7730  0.1597
  589ERGO    C2 8418  12.795  16.749   7.701  0.0378  0.0218 -0.0142
  590ERGO   ROH 8419   4.396  16.374   6.835 -0.3907  0.0762  0.1157
  590ERGO    R1 8420   4.283  16.253   7.065 -0.1894 -0.0717  0.1385
  590ERGO    R2 8421   4.405  16.043   7.198  0.1351  0.1149  0.1424
  590ERGO    R3 8422   4.379  16.207   7.413 -0.0815  0.0965  0.1324
  590ERGO    R4 8423   4.429  15.942   7.527  0.2258  0.1577  0.1497
  590ERGO    R5 8424   4.263  16.074   7.575  0.0602 -0.0366  0.1277
  590ERGO    C1 8425   4.418  16.036   7.921  0.0754  0.1655  0.1446
  590ERGO    C2 8426   4.321  16.009   8.275 -0.2427 -0.0525  0.0943
  591ERGO   ROH 8427  16.080   2.133   6.572 -0.2120 -0.1090 -0.0842
  591ERGO    R1 8428  16.174   2.178   6.835 -0.1792  0.0419 -0.1199
  591ERGO    R2 8429  16.028   2.319   7.023 -0.2486 -0.0224 -0.1182
  591ERGO    R3 8430  16.065   2.094   7.172 -0.0261  0.0453 -0.0707
  591ERGO    R4 8431  15.943   2.286   7.357 -0.0777  0.0013 -0.0726
  591ERGO    R5 8432  16.129   2.176   7.388  0.0097  0.1428 -0.1220
  591ERGO    C1 8433  15.930   2.057   7.691  0.2307  0.0786 -0.0013
  591ERGO    C2 8434  15.763   1.945   7.895  0.2903 -0.0982 -0.1048
  592ERGO   ROH 8435  12.974   6.230   6.364  0.2649  0.0527  0.0302
  592ERGO    R1 8436  12.964   6.257   6.646 -0.0272 -0.1515  0.0454
  592ERGO    R2 8437  12.879   6.054   6.812  0.1624 -0.4152 -0.1656
  592ERGO    R3 8438  13.119   6.095   6.933 -0.0022 -0.0909  0.0654
  592ERGO    R4 8439  12.952   5.972   7.140  0.0089 -0.4611 -0.1425
  592ERGO    R5 8440  13.063   6.159   7.157 -0.2999 -0.2898  0.0513
  592ERGO    C1 8441  13.220   5.963   7.443 -0.2350 -0.1834  0.0878
  592ERGO    C2 8442  13.303   5.764   7.691  0.0962  0.3493 -0.1040
  593ERGO   ROH 8443  15.407   1.663   9.868 -0.1183  0.2622 -0.2003
  593ERGO    R1 8444  15.346   1.573   9.607  0.0239  0.1357 -0.1906
  593ERGO    R2 8445  15.226   1.735   9.418 -0.1042 -0.0324 -0.2521
  593ERGO    R3 8446  15.441   1.664   9.267 -0.0019  0.1484 -0.1951
  593ERGO    R4 8447  15.232   1.730   9.072 -0.0813 -0.2320 -0.2501
  593ERGO    R5 8448  15.347   1.545   9.082  0.1560 -0.0853 -0.1307
  593ERGO    C1 8449  15.437   1.660   8.730  0.0281 -0.1785 -0.1953
  593ERGO    C2 8450  15.388   1.772   8.416  0.0677  0.1951  0.1636
  594ERGO   ROH 8451   0.527   2.836   6.682 -0.0062  0.0167 -0.1171
  594ERGO    R1 8452   0.511   3.069   6.842  0.1725  0.1033 -0.2232
  594ERGO    R2 8453   0.448   3.061   7.111 -0.1366  0.2933 -0.2872
  594ERGO    R3 8454   0.680   3.201   7.136  0.0552 -0.0467 -0.0861
  594ERGO    R4 8455   0.516   3.287   7.363 -0.1716  0.4546 -0.4191
  594ERGO    R5 8456   0.611   3.416   7.216  0.2649  0.1547 -0.4203
  594ERGO    C1 8457   0.773   3.549   7.535 -0.0121  0.2294 -0.3071
  594ERGO    C2 8458   0.890   3.590   7.817  0.1054  0.3846  0.1023
  595ERGO   ROH 8459  15.755   4.735  10.104  0.0030 -0.3842  0.0031
  595ERGO    R1 8460  15.857   4.839   9.861 -0.0900 -0.0963  0.0832
  595ERGO    R2 8461  15.937   4.677   9.652  0.2279  0.1327  0.0202
  595ERGO    R3 8462  15.763   4.830   9.509  0.0217 -0.0667  0.0525
  595ERGO    R4 8463  15.952   4.726   9.310  0.0138  0.0278 -0.0053
  595ERGO    R5 8464  15.900   4.935   9.343 -0.1521 -0.0047 -0.0529
  595ERGO    C1 8465  15.797   4.898   8.977 -0.3044 -0.2204  0.0102
  595ERGO    C2 8466  15.874   4.809   8.656  0.0120 -0.3720  0.5800
  596ERGO   ROH 8467  16.167  13.526   6.685  0.0891  0.0708 -0.0520
  596ERGO    R1 8468  16.304  13.490   6.930  0.2980  0.1130 -0.1595
  596ERGO    R2 8469  16.520  13.646   7.005  0.0531  0.4646 -0.1488
  596ERGO    R3 8470  16.370  13.689   7.228  0.0843 -0.0125 -0.0262
  596ERGO    R4 8471  16.637  13.787   7.298 -0.0288  0.2999 -0.0362
  596ERGO    R5 8472  16.519  13.642   7.409  0.2325 -0.0060 -0.1476
  596ERGO    C1 8473  16.566  13.909   7.678 -0.0472 -0.2439  0.1444
  596ERGO    C2 8474  16.604  14.139   7.969  0.2159  0.0896  0.0231
  597ERGO   ROH 8475   7.237  17.288   6.767  0.1632 -0.0227 -0.0260
  597ERGO    R1 8476   7.328  17.360   7.025  0.0327 -0.0130  0.0189
  597ERGO    R2 8477   7.423  17.175   7.207  0.1516  0.0152 -0.0054
  597ERGO    R3 8478   7.640  17.338   7.211  0.0067  0.2092  0.0886
  597ERGO    R4 8479   7.679  17.158   7.439  0.3085 -0.0648 -0.1826
  597ERGO    R5 8480   7.683  17.376   7.444  0.1117 -0.0691  0.1131
  597ERGO    C1 8481   8.032  17.301   7.577  0.2639  0.0708 -0.1974
  597ERGO    C2 8482   8.279  17.447   7.784  0.1274  0.2538 -0.0646
  598ERGO   ROH 8483  10.067   2.319   9.550  0.0745 -0.1439 -0.0020
  598ERGO    R1 8484  10.104   2.410   9.284  0.0149  0.0020  0.0377
  598ERGO    R2 8485  10.143   2.237   9.072  0.4032  0.1260 -0.0030
  598ERGO    R3 8486   9.933   2.372   8.965  0.1963 -0.2135 -0.0354
  598ERGO    R4 8487  10.069   2.252   8.735  0.5359  0.1570 -0.0311
  598ERGO    R5 8488  10.018   2.462   8.760  0.1266  0.0520  0.0520
  598ERGO    C1 8489   9.828   2.386   8.438  0.4188 -0.1438 -0.0780
  598ERGO    C2 8490   9.647   2.391   8.088 -0.4274  0.0806 -0.1399
  599ERGO   ROH 8491  12.163   3.202   9.690  0.0875  0.4247  0.2509
  599ERGO    R1 8492  12.279   3.318   9.460 -0.0114  0.3201  0.1468
  599ERGO    R2 8493  12.371   3.168   9.247  0.1418  0.2043  0.2956
  599ERGO    R3 8494  12.207   3.330   9.104 -0.0047 -0.0845  0.1267
  599ERGO    R4 8495  12.406   3.236   8.910  0.2252  0.0722  0.2762
  599ERGO    R5 8496  12.353   3.443   8.951 -0.0721  0.0307  0.1434
  599ERGO    C1 8497  12.272   3.427   8.579  0.1363 -0.2759  0.1065
  599ERGO    C2 8498  12.098   3.522   8.267  0.1274  0.0438  0.2028
  600ERGO   ROH 8499   6.734   9.838   9.664 -0.3122 -0.1673  0.1757
  600ERGO    R1 8500   6.822   9.912   9.405 -0.1989 -0.0270  0.2520
  600ERGO    R2 8501   6.971   9.744   9.244 -0.0504  0.0912  0.2560
  600ERGO    R3 8502   6.772   9.793   9.065  0.0244  0.0957  0.1755
  600ERGO    R4 8503   7.009   9.742   8.900  0.0935  0.1310  0.2721
  600ERGO    R5 8504   6.879   9.917   8.890  0.0877  0.1199  0.2345
  600ERGO    C1 8505   6.845   9.788   8.532  0.2474  0.1585  0.2058
  600ERGO    C2 8506   6.700   9.682   8.223 -0.2339 -0.1415  0.0243
  601ERGO   ROH 8507  14.398   3.163  10.119  0.3034  0.1959  0.0144
  601ERGO    R1 8508  14.466   3.211   9.849  0.1028 -0.2916 -0.1345
  601ERGO    R2 8509  14.339   3.085   9.638 -0.5694 -0.1457  0.1566
  601ERGO    R3 8510  14.298   3.340   9.553  0.0862 -0.0890 -0.0384
  601ERGO    R4 8511  14.212   3.172   9.329 -0.4935 -0.0593  0.1496
  601ERGO    R5 8512  14.356   3.335   9.320 -0.0395 -0.4504 -0.0672
  601ERGO    C1 8513  14.099   3.462   9.069  0.1661  0.0442 -0.0375
  601ERGO    C2 8514  13.896   3.554   8.865  0.0996 -0.3438 -0.0123
  602ERGO   ROH 8515  14.420  15.863  10.002 -0.1133 -0.1998 -0.0633
  602ERGO    R1 8516  14.467  15.717   9.765 -0.3448 -0.2682 -0.0695
  602ERGO    R2 8517  14.268  15.662   9.581 -0.3924  0.2704 -0.1939
  602ERGO    R3 8518  14.441  15.778   9.407  0.0031 -0.1122 -0.0722
  602ERGO    R4 8519  14.277  15.599   9.241 -0.3275  0.2883 -0.1955
  602ERGO    R5 8520  14.495  15.603   9.252 -0.3116 -0.2302 -0.0562
  602ERGO    C1 8521  14.446  15.671   8.880  0.0816 -0.0604 -0.0823
  602ERGO    C2 8522  14.582  15.701   8.652 -0.0920  0.3412 -0.0422
  603ERGO   ROH 8523  16.593   8.159  10.004  0.1866  0.1831 -0.0269
  603ERGO    R1 8524  16.560   8.046   9.746  0.0435  0.0531  0.0477
  603ERGO    R2 8525  16.345   8.107   9.583  0.0759  0.1492  0.0449
  603ERGO    R3 8526  16.541   8.168   9.404  0.1044 -0.1416 -0.0276
  603ERGO    R4 8527  16.309   8.094   9.240 -0.1182  0.3067  0.0574
  603ERGO    R5 8528  16.510   8.009   9.227 -0.2620 -0.0463 -0.0604
  603ERGO    C1 8529  16.471   8.143   8.872 -0.2043  0.1255 -0.0033
  603ERGO    C2 8530  16.419   8.287   8.623 -0.0814 -0.0408  0.1790
  604ERGO   ROH 8531  14.404   9.201   6.563  0.3076  0.1257 -0.0852
  604ERGO    R1 8532  14.328   9.281   6.823  0.1682  0.1859 -0.1434
  604ERGO    R2 8533  14.245   9.101   7.016 -0.0846  0.2446 -0.1916
  604ERGO    R3 8534  14.441   9.218   7.164 -0.1159  0.1293 -0.0573
  604ERGO    R4 8535  14.237   9.137   7.359 -0.1765  0.0204 -0.1685
  604ERGO    R5 8536  14.322   9.336   7.335 -0.1511  0.0277 -0.0121
  604ERGO    C1 8537  14.416   9.268   7.698 -0.2593 -0.2186 -0.0289
  604ERGO    C2 8538  14.389   9.204   8.077  0.1822  0.0633 -0.0710
  605ERGO   ROH 8539   5.186  16.909   9.997  0.1805 -0.1716  0.1422
  605ERGO    R1 8540   5.035  16.996   9.773  0.0494 -0.1732  0.2292
  605ERGO    R2 8541   4.992  17.263   9.717  0.0658 -0.1727  0.2206
  605ERGO    R3 8542   5.096  17.196   9.475 -0.1079 -0.2270  0.1599
  605ERGO    R4 8543   4.948  17.443   9.426  0.1177 -0.0646  0.2789
  605ERGO    R5 8544   4.925  17.255   9.319 -0.1194 -0.0212  0.2471
  605ERGO    C1 8545   5.019  17.484   9.029 -0.0152 -0.0522  0.2557
  605ERGO    C2 8546   5.096  17.531   8.674  0.1007 -0.2284 -0.1110
  606ERGO   ROH 8547  10.705   8.298   9.566 -0.0051  0.0425 -0.1457
  606ERGO    R1 8548  10.849   8.311   9.323  0.3496 -0.1233  0.0497
  606ERGO    R2 8549  11.005   8.102   9.231 -0.1332 -0.4972  0.0501
  606ERGO    R3 8550  10.853   8.129   9.007  0.2131  0.1778 -0.1298
  606ERGO    R4 8551  11.106   8.015   8.913 -0.0540 -0.7078  0.1302
  606ERGO    R5 8552  11.009   8.195   8.838  0.6804 -0.2899  0.0895
  606ERGO    C1 8553  11.023   7.990   8.517  0.3175 -0.1968  0.0081
  606ERGO    C2 8554  10.866   7.960   8.172  0.2183  0.0845 -0.7308
  607ERGO   ROH 8555  11.326   1.308   9.903  0.1390  0.1820  0.0660
  607ERGO    R1 8556  11.244   1.332   9.633 -0.0038  0.0699  0.0982
  607ERGO    R2 8557  11.348   1.524   9.462 -0.1960  0.0912  0.0022
  607ERGO    R3 8558  11.402   1.308   9.306 -0.1438  0.0843  0.0291
  607ERGO    R4 8559  11.359   1.527   9.117 -0.1129  0.0647  0.0041
  607ERGO    R5 8560  11.259   1.333   9.116 -0.0988  0.0594 -0.0071
  607ERGO    C1 8561  11.417   1.326   8.770 -0.0155  0.0429  0.0305
  607ERGO    C2 8562  11.528   1.285   8.429 -0.0262 -0.0577 -0.1473
  608ERGO   ROH 8563  13.261  16.100   9.956  0.0868 -0.0075 -0.0741
  608ERGO    R1 8564  13.223  15.941   9.724  0.0985 -0.0636 -0.0386
  608ERGO    R2 8565  13.094  16.035   9.499 -0.0161 -0.1621 -0.0191
  608ERGO    R3 8566  13.322  15.954   9.375 -0.0096 -0.0662 -0.0692
  608ERGO    R4 8567  13.120  15.963   9.162 -0.0082  0.0400 -0.0625
  608ERGO    R5 8568  13.247  15.793   9.213  0.0075  0.0229 -0.1645
  608ERGO    C1 8569  13.349  15.844   8.849  0.0027  0.2476 -0.1347
  608ERGO    C2 8570  13.512  15.925   8.601 -0.2766  0.0675  0.2929
  609ERGO   ROH 8571  12.497   1.847  10.033  0.0298  0.0036  0.0413
  609ERGO    R1 8572  12.409   1.724   9.793  0.1315 -0.1060  0.0589
  609ERGO    R2 8573  12.260   1.859   9.603  0.0121 -0.2586  0.0406
  609ERGO    R3 8574  12.458   1.776   9.436  0.0836 -0.1121  0.0518
  609ERGO    R4 8575  12.228   1.822   9.261  0.1232 -0.0848  0.0107
  609ERGO    R5 8576  12.346   1.640   9.274  0.1709 -0.0571 -0.0541
  609ERGO    C1 8577  12.395   1.723   8.905  0.2552  0.1540  0.0039
  609ERGO    C2 8578  12.471   1.670   8.576  0.2403 -0.2619 -0.1487
  610ERGO   ROH 8579  15.087   2.291   6.631  0.0344 -0.1595 -0.0663
  610ERGO    R1 8580  15.109   2.142   6.871  0.2394  0.0472  0.0488
  610ERGO    R2 8581  15.117   2.260   7.120 -0.1422  0.2460 -0.0228
  610ERGO    R3 8582  14.909   2.093   7.171  0.1845 -0.1745 -0.0226
  610ERGO    R4 8583  15.009   2.170   7.436 -0.1780  0.3093 -0.0174
  610ERGO    R5 8584  14.980   1.967   7.362  0.3278  0.1628  0.1529
  610ERGO    C1 8585  14.750   1.960   7.667  0.1079 -0.0485 -0.0140
  610ERGO    C2 8586  14.648   2.020   8.063 -0.1061 -0.2782  0.3975
  611ERGO   ROH 8587   0.584   0.867   9.792  0.4076  0.0346 -0.1095
  611ERGO    R1 8588   0.448   0.832   9.547  0.3220 -0.0590 -0.0503
  611ERGO    R2 8589   0.433   1.030   9.355  0.0927 -0.0609 -0.0454
  611ERGO    R3 8590   0.534   0.836   9.193  0.1652  0.0119 -0.0866
  611ERGO    R4 8591   0.341   0.978   9.025 -0.0454 -0.1789  0.0108
  611ERGO    R5 8592   0.348   0.764   9.062  0.1591 -0.1640  0.0258
  611ERGO    C1 8593   0.383   0.767   8.682 -0.0578 -0.1794  0.0050
  611ERGO    C2 8594   0.505   0.764   8.395 -0.0703 -0.0239 -0.1910
  612ERGO   ROH 8595   8.676   0.022  10.316 -0.0178 -0.2609  0.1370
  612ERGO    R1 8596   8.611   0.108  10.054  0.2276 -0.1536  0.1075
  612ERGO    R2 8597   8.794   0.106   9.847  0.3062 -0.4962  0.1705
  612ERGO    R3 8598   8.602  -0.041   9.722  0.0769 -0.1623  0.1159
  612ERGO    R4 8599   8.786   0.035   9.508  0.2186 -0.4119  0.1544
  612ERGO    R5 8600   8.571   0.067   9.511  0.2677 -0.0657  0.1387
  612ERGO    C1 8601   8.602  -0.144   9.195 -0.0478 -0.0494  0.0938
  612ERGO    C2 8602   8.429  -0.358   8.922 -0.1300 -0.2198 -0.1054
  613ERGO   ROH 8603   9.749  11.457   6.054 -0.0577  0.0317 -0.1341
  613ERGO    R1 8604   9.747  11.563   6.317 -0.1019  0.1862 -0.1959
  613ERGO    R2 8605   9.533  11.704   6.419 -0.2389 -0.0053 -0.2164
  613ERGO    R3 8606   9.548  11.520   6.618  0.0397  0.1279 -0.1096
  613ERGO    R4 8607   9.343  11.709   6.708 -0.2360 -0.1144 -0.2121
  613ERGO    R5 8608   9.519  11.647   6.819 -0.1360  0.2059 -0.1815
  613ERGO    C1 8609   9.246  11.539   7.063  0.0273 -0.0528 -0.1092
  613ERGO    C2 8610   9.014  11.491   7.199 -0.0137 -0.2157 -0.2033
  614ERGO   ROH 8611  11.701  14.152   6.760 -0.2592 -0.0152  0.1287
  614ERGO    R1 8612  11.606  14.171   7.026 -0.1285  0.1218  0.1669
  614ERGO    R2 8613  11.620  13.961   7.205 -0.2878  0.1232  0.1857
  614ERGO    R3 8614  11.748  14.144   7.360 -0.0171  0.0024  0.1098
  614ERGO    R4 8615  11.600  13.977   7.550 -0.1364  0.2051  0.1914
  614ERGO    R5 8616  11.592  14.194   7.534  0.1078  0.2119  0.1620
  614ERGO    C1 8617  11.709  14.159   7.896  0.2059  0.1396  0.1234
  614ERGO    C2 8618  11.876  14.105   8.187  0.0287 -0.3243  0.3992
  615ERGO   ROH 8619   4.852   2.965   9.844 -0.0266 -0.1606 -0.1001
  615ERGO    R1 8620   4.845   3.100   9.595 -0.1267 -0.0136 -0.0202
  615ERGO    R2 8621   4.873   2.968   9.353  0.1396  0.1678 -0.0980
  615ERGO    R3 8622   4.638   3.093   9.296 -0.0184 -0.1197 -0.0923
  615ERGO    R4 8623   4.758   3.037   9.035  0.0705  0.0855 -0.0906
  615ERGO    R5 8624   4.688   3.230   9.107 -0.1828 -0.0176 -0.0600
  615ERGO    C1 8625   4.471   3.194   8.796 -0.1181 -0.2324 -0.0808
  615ERGO    C2 8626   4.375   3.078   8.459 -0.2154  0.1081  0.4353
  616ERGO   ROH 8627  16.858   2.258   9.878  0.0081 -0.1505 -0.1710
  616ERGO    R1 8628  16.790   2.438   9.671 -0.1668 -0.0292 -0.0092
  616ERGO    R2 8629  16.857   2.394   9.407 -0.0747  0.2988 -0.0377
  616ERGO    R3 8630  16.590   2.428   9.367 -0.1108  0.0357 -0.0516
  616ERGO    R4 8631  16.705   2.435   9.099 -0.0527  0.3736 -0.0396
  616ERGO    R5 8632  16.576   2.585   9.188 -0.2412  0.1699  0.0639
  616ERGO    C1 8633  16.367   2.491   8.883 -0.0737  0.1700 -0.0538
  616ERGO    C2 8634  16.187   2.465   8.636 -0.1711 -0.0863  0.2492
  617ERGO   ROH 8635   0.288   9.504   9.820  0.1318 -0.2615  0.2041
  617ERGO    R1 8636   0.416   9.419   9.582  0.0679 -0.3026  0.1833
  617ERGO    R2 8637   0.310   9.223   9.417 -0.1072 -0.1538  0.1092
  617ERGO    R3 8638   0.336   9.415   9.226  0.0815 -0.1103  0.1778
  617ERGO    R4 8639   0.298   9.166   9.077  0.2620 -0.0758  0.0797
  617ERGO    R5 8640   0.461   9.309   9.052  0.2764 -0.0581  0.2852
  617ERGO    C1 8641   0.316   9.313   8.699  0.6541  0.0103  0.1269
  617ERGO    C2 8642   0.225   9.196   8.347 -0.3797 -0.1278 -0.5170
  618ERGO   ROH 8643  17.904   5.328   6.651  0.0767  0.1832 -0.0802
  618ERGO    R1 8644  17.986   5.282   6.918 -0.2089  0.2025  0.0130
  618ERGO    R2 8645  17.811   5.205   7.116 -0.3424 -0.2877 -0.2892
  618ERGO    R3 8646  17.987   5.001   7.149  0.0511  0.0586 -0.1535
  618ERGO    R4 8647  17.883   5.055   7.419 -0.6576 -0.4410 -0.2850
  618ERGO    R5 8648  18.093   5.048   7.360 -0.4892  0.0894  0.1368
  618ERGO    C1 8649  18.090   4.776   7.626 -0.4717 -0.2052 -0.1550
  618ERGO    C2 8650  17.957   4.777   7.959  0.1239  0.0702  0.1002
  619ERGO   ROH 8651  13.632  10.657   9.901  0.0402  0.0534  0.1312
  619ERGO    R1 8652  13.743  10.633   9.642 -0.0886  0.0027  0.0804
  619ERGO    R2 8653  13.587  10.613   9.414 -0.2013  0.0949  0.1507
  619ERGO    R3 8654  13.736  10.825   9.332 -0.1229  0.0175  0.0897
  619ERGO    R4 8655  13.804  10.609   9.145 -0.2915 -0.0308  0.0783
  619ERGO    R5 8656  13.944  10.728   9.263 -0.1924 -0.0917  0.0268
  619ERGO    C1 8657  14.070  10.806   8.911 -0.2705 -0.1766 -0.0212
  619ERGO    C2 8658  14.136  10.683   8.715 -0.1074 -0.1863  0.0956
  620ERGO   ROH 8659  13.775  17.632  10.134 -0.3039 -0.0265  0.1987
  620ERGO    R1 8660  13.741  17.771   9.890 -0.0846  0.1255  0.2528
  620ERGO    R2 8661  13.926  17.954   9.797  0.2261 -0.1507  0.3104
  620ERGO    R3 8662  13.921  17.799   9.575 -0.0566 -0.0618  0.2506
  620ERGO    R4 8663  13.943  18.074   9.473  0.1308 -0.0356  0.3470
  620ERGO    R5 8664  13.792  17.926   9.417 -0.0432  0.1209  0.3811
  620ERGO    C1 8665  13.948  17.997   9.076 -0.1899  0.1147  0.3122
  620ERGO    C2 8666  13.918  17.958   8.703 -0.1114 -0.1121 -0.1193
  621ERGO   ROH 8667   2.131  10.105   9.241  0.0761  0.0842 -0.0439
  621ERGO    R1 8668   2.134   9.966   8.995  0.1350  0.0510 -0.0239
  621ERGO    R2 8669   1.914   9.951   8.830  0.1109 -0.1500  0.0273
  621ERGO    R3 8670   2.086  10.048   8.643 -0.0073 -0.0379 -0.0266
  621ERGO    R4 8671   1.838   9.999   8.496  0.0032 -0.2849  0.0311
  621ERGO    R5 8672   2.036   9.924   8.445  0.0611 -0.1248  0.0086
  621ERGO    C1 8673   1.956  10.118   8.127 -0.1704 -0.2582 -0.0175
  621ERGO    C2 8674   1.930  10.021   7.730  0.1514 -0.2592 -0.1428
  622ERGO   ROH 8675   0.003   4.920  10.240 -0.4044 -0.1502 -0.0131
  622ERGO    R1 8676  -0.148   4.750  10.071 -0.5146 -0.0266 -0.0411
  622ERGO    R2 8677  -0.313   4.847   9.872 -0.2245  0.1088 -0.2259
  622ERGO    R3 8678  -0.167   4.681   9.715 -0.3283 -0.1847 -0.0218
  622ERGO    R4 8679  -0.388   4.771   9.544  0.0048  0.1532 -0.2898
  622ERGO    R5 8680  -0.331   4.564   9.584 -0.3889  0.0592 -0.1686
  622ERGO    C1 8681  -0.294   4.570   9.204  0.0408 -0.0964 -0.1355
  622ERGO    C2 8682  -0.054   4.654   8.922  0.0153 -0.1673 -0.0348
  623ERGO   ROH 8683   3.552  15.845   9.863  0.1950  0.0061  0.0063
  623ERGO    R1 8684   3.430  15.872   9.610  0.1347  0.1529  0.0493
  623ERGO    R2 8685   3.421  16.113   9.474  0.3077  0.1853  0.0856
  623ERGO    R3 8686   3.535  15.969   9.275  0.1142  0.1064  0.0303
  623ERGO    R4 8687   3.425  16.205   9.141  0.2559  0.2026  0.0903
  623ERGO    R5 8688   3.388  15.997   9.088  0.0673  0.2381  0.0888
  623ERGO    C1 8689   3.536  16.123   8.760  0.0440  0.1385  0.0410
  623ERGO    C2 8690   3.393  16.370   8.408  0.1398 -0.3282  0.2718
  624ERGO   ROH 8691  17.989  14.457   6.499  0.1261  0.2638  0.0867
  624ERGO    R1 8692  17.878  14.421   6.757 -0.0998  0.2748 -0.0055
  624ERGO    R2 8693  17.618  14.337   6.797 -0.0259 -0.1065 -0.2310
  624ERGO    R3 8694  17.737  14.146   6.948  0.1234  0.1833  0.0264
  624ERGO    R4 8695  17.483  14.201   7.084  0.0186  0.0488 -0.1365
  624ERGO    R5 8696  17.682  14.205   7.174 -0.0262  0.3605 -0.0605
  624ERGO    C1 8697  17.516  13.942   7.394  0.1841  0.4113  0.1602
  624ERGO    C2 8698  17.450  13.767   7.745 -0.1413  0.0058  0.2564
  625ERGO   ROH 8699  15.509  16.219   6.083  0.1603  0.1460  0.0188
  625ERGO    R1 8700  15.541  16.068   6.320  0.1397  0.1255  0.0046
  625ERGO    R2 8701  15.753  15.895   6.359  0.2586  0.3145  0.0982
  625ERGO    R3 8702  15.789  16.042   6.585 -0.0094  0.2836  0.1699
  625ERGO    R4 8703  15.827  15.764   6.670  0.5146  0.2707  0.0234
  625ERGO    R5 8704  15.691  15.909   6.759  0.2277 -0.0093  0.1067
  625ERGO    C1 8705  15.905  15.825   7.063  0.4122  0.2162  0.0471
  625ERGO    C2 8706  15.862  15.693   7.338 -0.1652 -0.0652 -0.2593
  626ERGO   ROH 8707  17.689   1.813   6.845  0.2646 -0.0955 -0.0192
  626ERGO    R1 8708  17.896   1.910   7.013  0.2541 -0.0432 -0.0360
  626ERGO    R2 8709  17.923   2.177   7.077  0.2013 -0.0333 -0.0509
  626ERGO    R3 8710  17.917   2.084   7.332  0.2351 -0.0227 -0.0463
  626ERGO    R4 8711  18.187   2.194   7.299  0.1842  0.1007 -0.0400
  626ERGO    R5 8712  18.136   1.993   7.367  0.2756  0.0812 -0.0317
  626ERGO    C1 8713  18.336   2.116   7.668  0.2063  0.1887 -0.0293
  626ERGO    C2 8714  18.625   2.147   7.905  0.0212  0.1270 -0.1826
  627ERGO   ROH 8715   4.114  14.866   9.273 -0.0270 -0.0411  0.0679
  627ERGO    R1 8716   4.271  14.756   9.065  0.1167  0.1439  0.0775
  627ERGO    R2 8717   4.160  14.645   8.838  0.2502 -0.1648  0.1638
  627ERGO    R3 8718   4.323  14.821   8.710 -0.0988  0.0751  0.0303
  627ERGO    R4 8719   4.218  14.649   8.497  0.2027 -0.2869  0.1527
  627ERGO    R5 8720   4.428  14.691   8.538  0.1382  0.1515  0.1082
  627ERGO    C1 8721   4.405  14.817   8.179 -0.1526 -0.1330  0.0210
  627ERGO    C2 8722   4.253  14.880   7.791 -0.2385  0.0768  0.0289
  628ERGO   ROH 8723   9.400  11.954  10.192 -0.0131  0.2116 -0.0440
  628ERGO    R1 8724   9.293  11.863   9.946 -0.1925  0.2321  0.0241
  628ERGO    R2 8725   9.173  12.034   9.764  0.1214  0.3363 -0.1002
  628ERGO    R3 8726   9.354  11.924   9.593 -0.0766 -0.1356 -0.0220
  628ERGO    R4 8727   9.155  12.052   9.419  0.0914 -0.0294 -0.1211
  628ERGO    R5 8728   9.222  11.845   9.409 -0.2285 -0.1432  0.0951
  628ERGO    C1 8729   9.315  11.960   9.058 -0.1120 -0.6853 -0.0600
  628ERGO    C2 8730   9.393  12.143   8.802 -0.4950 -0.1416 -0.0368
  629ERGO   ROH 8731  14.272  12.954   9.869 -0.0946 -0.0567 -0.0246
  629ERGO    R1 8732  14.145  12.841   9.643 -0.1638  0.0323 -0.0305
  629ERGO    R2 8733  14.062  12.993   9.427 -0.0446  0.0907 -0.0340
  629ERGO    R3 8734  14.213  12.816   9.287 -0.1631 -0.0185 -0.0273
  629ERGO    R4 8735  14.016  12.917   9.093  0.1227  0.3809 -0.1268
  629ERGO    R5 8736  14.057  12.708   9.141 -0.1959  0.2879 -0.2314
  629ERGO    C1 8737  14.132  12.707   8.767  0.1089  0.4474 -0.1747
  629ERGO    C2 8738  14.008  12.790   8.458 -0.0247 -0.0811 -0.2258
  630ERGO   ROH 8739  13.280   9.876  10.066  0.2390 -0.0820  0.1533
  630ERGO    R1 8740  13.423   9.817   9.829  0.0867 -0.2157  0.0926
  630ERGO    R2 8741  13.365   9.597   9.672 -0.3072 -0.0687  0.0140
  630ERGO    R3 8742  13.345   9.783   9.475 -0.0631  0.0515  0.0986
  630ERGO    R4 8743  13.393   9.530   9.334 -0.2713  0.0775 -0.0123
  630ERGO    R5 8744  13.507   9.715   9.312 -0.0822 -0.0244  0.1146
  630ERGO    C1 8745  13.389   9.666   8.952 -0.0211  0.2756  0.0518
  630ERGO    C2 8746  13.233   9.665   8.643 -0.0789 -0.0733  0.0098
  631ERGO   ROH 8747   7.261   7.851   9.625  0.1679 -0.0414  0.1130
  631ERGO    R1 8748   7.150   8.047   9.452  0.1034 -0.0690  0.1206
  631ERGO    R2 8749   7.303   8.246   9.335  0.0872 -0.1499 -0.0515
  631ERGO    R3 8750   7.194   8.149   9.106 -0.1000 -0.2063  0.0514
  631ERGO    R4 8751   7.325   8.398   9.026 -0.2294 -0.1789 -0.0900
  631ERGO    R5 8752   7.117   8.343   8.989 -0.2563 -0.2354  0.0997
  631ERGO    C1 8753   7.235   8.395   8.630 -0.5895 -0.2487 -0.0158
  631ERGO    C2 8754   7.337   8.431   8.292 -0.0230 -0.0525  0.0247
  632ERGO   ROH 8755  17.444   9.480   9.820 -0.0908  0.0591 -0.0546
  632ERGO    R1 8756  17.543   9.471   9.556 -0.0286 -0.4444 -0.0256
  632ERGO    R2 8757  17.478   9.268   9.379 -0.6774 -0.3605  0.0760
  632ERGO    R3 8758  17.402   9.475   9.220  0.0672 -0.1661 -0.0607
  632ERGO    R4 8759  17.378   9.237   9.050 -0.6780 -0.1723  0.0586
  632ERGO    R5 8760  17.490   9.419   9.004 -0.0451 -0.5626  0.0003
  632ERGO    C1 8761  17.248   9.413   8.709  0.0205  0.1196 -0.0799
  632ERGO    C2 8762  17.109   9.600   8.468  0.2615 -0.0611 -0.2063
  633ERGO   ROH 8763  15.094  12.369  10.083 -0.2463 -0.0695 -0.0115
  633ERGO    R1 8764  15.099  12.304   9.808 -0.1855 -0.0258 -0.0199
  633ERGO    R2 8765  14.873  12.311   9.649 -0.1376  0.0454 -0.0763
  633ERGO    R3 8766  15.026  12.475   9.495 -0.0661  0.0371 -0.0162
  633ERGO    R4 8767  14.886  12.302   9.304 -0.0211  0.0440 -0.0727
  633ERGO    R5 8768  15.101  12.335   9.316 -0.0154  0.0258  0.0070
  633ERGO    C1 8769  15.038  12.451   8.958  0.1138  0.0354 -0.0142
  633ERGO    C2 8770  14.976  12.564   8.634  0.1011  0.3413  0.1435
  634ERGO   ROH 8771   7.197  18.088  10.350  0.0431  0.0599 -0.0538
  634ERGO    R1 8772   7.124  18.119  10.078  0.0633 -0.0778 -0.0762
  634ERGO    R2 8773   7.208  17.945   9.880  0.0209 -0.2165  0.0287
  634ERGO    R3 8774   6.942  17.927   9.829  0.0184 -0.1705  0.0263
  634ERGO    R4 8775   7.064  17.985   9.569  0.0258 -0.0635  0.0458
  634ERGO    R5 8776   6.902  18.096   9.663  0.0344 -0.0898  0.1004
  634ERGO    C1 8777   6.731  17.992   9.339  0.0264  0.0688  0.0536
  634ERGO    C2 8778   6.767  18.037   9.033 -0.1562 -0.1248  0.0016
  635ERGO   ROH 8779   3.229   8.314   9.631 -0.0616 -0.0883 -0.0367
  635ERGO    R1 8780   3.283   8.254   9.359  0.0189 -0.0180 -0.0359
  635ERGO    R2 8781   3.088   8.261   9.164  0.0828  0.0508 -0.0928
  635ERGO    R3 8782   3.263   8.428   9.041  0.1342  0.0698  0.0033
  635ERGO    R4 8783   3.071   8.353   8.831  0.2690  0.0236 -0.1115
  635ERGO    R5 8784   3.288   8.336   8.821  0.2819  0.0556  0.0229
  635ERGO    C1 8785   3.225   8.565   8.522  0.4256  0.0255 -0.0323
  635ERGO    C2 8786   3.211   8.636   8.154  0.0780 -0.3024  0.0797
  636ERGO   ROH 8787   0.487  17.636   9.896  0.1717 -0.0721  0.0908
  636ERGO    R1 8788   0.404  17.486   9.670  0.1385 -0.0471  0.0856
  636ERGO    R2 8789   0.274  17.600   9.455  0.0614 -0.0310  0.1375
  636ERGO    R3 8790   0.475  17.484   9.313  0.0462  0.0292  0.0670
  636ERGO    R4 8791   0.238  17.456   9.143 -0.0472 -0.2176  0.2352
  636ERGO    R5 8792   0.371  17.296   9.207  0.1010 -0.0955  0.2321
  636ERGO    C1 8793   0.404  17.263   8.828 -0.1247 -0.2697  0.2259
  636ERGO    C2 8794   0.217  17.295   8.484  0.1114  0.2832 -0.1430
  637ERGO   ROH 8795  11.582  16.017   9.934 -0.1401  0.0343 -0.1565
  637ERGO    R1 8796  11.756  16.052   9.714 -0.0755  0.0852 -0.0984
  637ERGO    R2 8797  11.748  15.889   9.491  0.1424 -0.0087 -0.0432
  637ERGO    R3 8798  11.722  16.125   9.359  0.0106 -0.0768 -0.1402
  637ERGO    R4 8799  11.812  15.934   9.154 -0.0172 -0.1347 -0.0916
  637ERGO    R5 8800  11.904  16.126   9.203 -0.0588 -0.0850 -0.2186
  637ERGO    C1 8801  11.825  16.183   8.834 -0.2339 -0.2721 -0.2107
  637ERGO    C2 8802  11.812  16.090   8.587 -0.2190 -0.1372  0.1363
  638ERGO   ROH 8803   1.189   4.455  10.107  0.4640  0.0222 -0.0124
  638ERGO    R1 8804   1.079   4.404   9.851  0.4464 -0.2238  0.0402
  638ERGO    R2 8805   0.962   4.602   9.698 -0.0776 -0.4713  0.0910
  638ERGO    R3 8806   1.139   4.517   9.511  0.0340 -0.0784  0.0110
  638ERGO    R4 8807   0.917   4.631   9.357 -0.2081 -0.4166  0.1126
  638ERGO    R5 8808   1.003   4.432   9.334  0.1466 -0.2558  0.0123
  638ERGO    C1 8809   1.058   4.568   8.982 -0.1793 -0.0157  0.0502
  638ERGO    C2 8810   1.010   4.691   8.500  0.3182 -0.2115 -0.3803
  639ERGO   ROH 8811   1.538   9.221   9.859  0.2489 -0.0721 -0.0710
  639ERGO    R1 8812   1.493   9.351   9.612  0.3524 -0.0857 -0.0961
  639ERGO    R2 8813   1.625   9.280   9.380  0.0809 -0.4405 -0.1441
  639ERGO    R3 8814   1.373   9.257   9.282 -0.0305  0.0053  0.0095
  639ERGO    R4 8815   1.546   9.257   9.045 -0.1255 -0.5707 -0.0890
  639ERGO    R5 8816   1.375   9.388   9.081  0.1574 -0.1654 -0.1103
  639ERGO    C1 8817   1.263   9.222   8.757 -0.3503 -0.2279  0.0871
  639ERGO    C2 8818   1.168   9.124   8.400  0.0113  0.1438  0.0395
  640ERGO   ROH 8819   9.346   5.837   9.476  0.4319 -0.2242  0.1607
  640ERGO    R1 8820   9.381   5.678   9.244 -0.0037 -0.1314  0.0257
  640ERGO    R2 8821   9.205   5.684   9.032 -0.0039  0.5209  0.0464
  640ERGO    R3 8822   9.429   5.737   8.888  0.1374  0.0349  0.0656
  640ERGO    R4 8823   9.248   5.602   8.699 -0.2872  0.6294 -0.0221
  640ERGO    R5 8824   9.454   5.545   8.746 -0.4016  0.0393 -0.0770
  640ERGO    C1 8825   9.484   5.604   8.370 -0.3195  0.2364 -0.0440
  640ERGO    C2 8826   9.397   5.502   8.090 -0.2706  0.0739 -0.0284
  641ERGO   ROH 8827   5.148  12.484   9.939 -0.1235  0.1339 -0.2454
  641ERGO    R1 8828   5.393  12.479   9.797 -0.0491  0.0036 -0.1146
  641ERGO    R2 8829   5.493  12.248   9.682 -0.1938 -0.0176 -0.2023
  641ERGO    R3 8830   5.500  12.401   9.457  0.0653  0.1186 -0.1054
  641ERGO    R4 8831   5.621  12.146   9.378 -0.0411  0.0910 -0.1760
  641ERGO    R5 8832   5.709  12.344   9.353  0.1043  0.0514  0.0087
  641ERGO    C1 8833   5.702  12.230   8.989  0.2911  0.2823 -0.0696
  641ERGO    C2 8834   5.461  12.205   8.698 -0.0275  0.1194 -0.1753
  642ERGO   ROH 8835  13.401   2.690  10.265 -0.0075 -0.0191  0.1241
  642ERGO    R1 8836  13.335   2.701   9.990  0.0637  0.0852  0.1103
  642ERGO    R2 8837  13.431   2.898   9.821  0.2751  0.0319  0.1651
  642ERGO    R3 8838  13.515   2.686   9.674  0.1237 -0.0189  0.1490
  642ERGO    R4 8839  13.480   2.901   9.479  0.1560 -0.0154  0.1470
  642ERGO    R5 8840  13.393   2.702   9.469  0.0585  0.0244  0.1910
  642ERGO    C1 8841  13.588   2.703   9.142 -0.0554 -0.0906  0.1213
  642ERGO    C2 8842  13.579   2.649   8.865 -0.2224 -0.0398  0.2411
  643ERGO   ROH 8843   4.640   0.290  10.163  0.1486 -0.2379  0.0547
  643ERGO    R1 8844   4.548   0.331   9.899  0.0729 -0.2296  0.0826
  643ERGO    R2 8845   4.716   0.405   9.692 -0.0020 -0.1365  0.0568
  643ERGO    R3 8846   4.610   0.186   9.571  0.0496 -0.1549  0.0441
  643ERGO    R4 8847   4.721   0.346   9.352 -0.1801 -0.0041  0.0291
  643ERGO    R5 8848   4.518   0.270   9.367 -0.1296 -0.1299  0.1317
  643ERGO    C1 8849   4.625   0.105   9.040 -0.2352  0.0557  0.0012
  643ERGO    C2 8850   4.657  -0.323   8.825  0.0088 -0.0555  0.0011
  644ERGO   ROH 8851  12.014   8.308   9.977  0.0899  0.1978  0.0037
  644ERGO    R1 8852  11.908   8.316   9.714  0.0905  0.1236 -0.0005
  644ERGO    R2 8853  12.040   8.438   9.504  0.0559  0.1379 -0.0223
  644ERGO    R3 8854  12.007   8.196   9.385  0.1387  0.1062  0.0223
  644ERGO    R4 8855  12.019   8.387   9.163 -0.1498  0.0851 -0.0018
  644ERGO    R5 8856  11.862   8.240   9.200 -0.0195 -0.0161  0.1207
  644ERGO    C1 8857  11.976   8.129   8.853 -0.1919  0.0244  0.0519
  644ERGO    C2 8858  12.148   8.011   8.630 -0.2826 -0.0775 -0.0693
  645ERGO   ROH 8859   5.153   0.597   6.760 -0.2546  0.1124 -0.0348
  645ERGO    R1 8860   5.293   0.722   6.972 -0.0849 -0.0523 -0.0472
  645ERGO    R2 8861   5.177   0.912   7.136  0.1491  0.0744 -0.0265
  645ERGO    R3 8862   5.260   0.745   7.333 -0.0129 -0.0274 -0.0414
  645ERGO    R4 8863   5.169   0.986   7.473  0.0212 -0.0301 -0.0052
  645ERGO    R5 8864   5.364   0.890   7.494 -0.0258 -0.1199  0.0546
  645ERGO    C1 8865   5.243   0.874   7.855 -0.2054 -0.1865 -0.0067
  645ERGO    C2 8866   5.105   0.903   8.163 -0.0594 -0.1686 -0.0868
  646ERGO   ROH 8867   6.022   4.031   9.544 -0.1880 -0.2959  0.0281
  646ERGO    R1 8868   5.963   3.871   9.318 -0.2662 -0.1016 -0.0914
  646ERGO    R2 8869   5.869   3.977   9.081 -0.0571  0.1410 -0.0700
  646ERGO    R3 8870   6.082   3.846   8.974 -0.1513 -0.0231 -0.0582
  646ERGO    R4 8871   5.917   3.919   8.743 -0.1928 -0.0949 -0.0510
  646ERGO    R5 8872   5.989   3.720   8.793 -0.2676 -0.0969  0.0508
  646ERGO    C1 8873   6.145   3.761   8.447 -0.3603 -0.3863 -0.0290
  646ERGO    C2 8874   6.262   3.699   8.103  0.0095  0.3354  0.1337
  647ERGO   ROH 8875  12.316   4.555   9.936 -0.1635 -0.2454 -0.2584
  647ERGO    R1 8876  12.383   4.742   9.734 -0.0949 -0.1670 -0.1665
  647ERGO    R2 8877  12.623   4.735   9.597 -0.0037 -0.0629 -0.0366
  647ERGO    R3 8878  12.461   4.731   9.379  0.1135 -0.0502 -0.1223
  647ERGO    R4 8879  12.729   4.780   9.271  0.1601 -0.1450  0.0053
  647ERGO    R5 8880  12.551   4.900   9.235  0.2234 -0.1078 -0.1063
  647ERGO    C1 8881  12.639   4.803   8.877  0.3655 -0.1809 -0.0508
  647ERGO    C2 8882  12.720   4.762   8.608 -0.2066  0.0494  0.0891
  648ERGO   ROH 8883   7.542  11.060   9.732 -0.1684 -0.0507 -0.0090
  648ERGO    R1 8884   7.613  11.228   9.515 -0.1690 -0.1400 -0.0774
  648ERGO    R2 8885   7.818  11.167   9.340 -0.1280 -0.1767 -0.0073
  648ERGO    R3 8886   7.625  11.200   9.152 -0.0972 -0.3089 -0.0647
  648ERGO    R4 8887   7.877  11.244   9.008 -0.0732 -0.0333  0.0340
  648ERGO    R5 8888   7.705  11.379   9.015 -0.2091 -0.1905  0.0127
  648ERGO    C1 8889   7.729  11.320   8.638 -0.0124 -0.0738  0.0043
  648ERGO    C2 8890   7.868  11.289   8.339 -0.2088 -0.3737  0.3778
  649ERGO   ROH 8891   1.514  15.709   6.491  0.1859  0.2219  0.0782
  649ERGO    R1 8892   1.491  15.866   6.725 -0.0791  0.1560  0.0977
  649ERGO    R2 8893   1.315  15.805   6.929  0.1145 -0.2431  0.1439
  649ERGO    R3 8894   1.539  15.818   7.083  0.1419  0.2283  0.0812
  649ERGO    R4 8895   1.316  15.854   7.271  0.0703 -0.4938  0.1835
  649ERGO    R5 8896   1.489  15.986   7.246 -0.2651 -0.0086  0.2228
  649ERGO    C1 8897   1.527  15.896   7.614  0.0702 -0.1972  0.1477
  649ERGO    C2 8898   1.430  16.046   7.911  0.2848 -0.0173  0.3270
  650ERGO   ROH 8899   6.358   6.073   9.548 -0.0235  0.0321  0.0593
  650ERGO    R1 8900   6.393   6.263   9.341  0.1226 -0.0369  0.0210
  650ERGO    R2 8901   6.528   6.205   9.107 -0.0205 -0.2292 -0.0090
  650ERGO    R3 8902   6.298   6.292   8.991  0.0365  0.0192  0.0456
  650ERGO    R4 8903   6.511   6.385   8.812  0.1129 -0.1576  0.0243
  650ERGO    R5 8904   6.354   6.507   8.901  0.2399 -0.0118  0.0771
  650ERGO    C1 8905   6.285   6.571   8.532  0.2441  0.1173  0.0950
  650ERGO    C2 8906   6.232   6.540   8.235 -0.0074 -0.2755 -0.1825
  651ERGO   ROH 8907   3.459  10.687   5.929 -0.0850 -0.0646 -0.0365
  651ERGO    R1 8908   3.524  10.663   6.203  0.1254 -0.1490 -0.0918
  651ERGO    R2 8909   3.349  10.735   6.405  0.4320  0.1922  0.0652
  651ERGO    R3 8910   3.394  10.481   6.491  0.0564  0.1132  0.0450
  651ERGO    R4 8911   3.356  10.637   6.736  0.1871  0.1246  0.0525
  651ERGO    R5 8912   3.525  10.508   6.689  0.0274 -0.1002  0.0930
  651ERGO    C1 8913   3.402  10.342   7.010 -0.3081  0.0110  0.0260
  651ERGO    C2 8914   3.310  10.171   7.258 -0.1113 -0.2537  0.1638
  652ERGO   ROH 8915   0.378  15.333   6.401 -0.0454 -0.0131  0.1312
  652ERGO    R1 8916   0.428  15.496   6.627 -0.0144  0.0863  0.0534
  652ERGO    R2 8917   0.430  15.772   6.613 -0.0455  0.0833 -0.0617
  652ERGO    R3 8918   0.248  15.751   6.813 -0.0018  0.1453 -0.0158
  652ERGO    R4 8919   0.370  16.015   6.851  0.1696  0.0588  0.0188
  652ERGO    R5 8920   0.353  15.857   7.000  0.1147  0.0325 -0.0180
  652ERGO    C1 8921   0.164  16.137   7.178  0.3359  0.1030  0.1087
  652ERGO    C2 8922  -0.047  16.291   7.315  0.0941  0.0401 -0.1642
  653ERGO   ROH 8923   2.928  10.510   9.172 -0.2342  0.1812 -0.1022
  653ERGO    R1 8924   2.926  10.666   8.936  0.1712 -0.0340 -0.2612
  653ERGO    R2 8925   3.048  10.584   8.702 -0.0418 -0.5999 -0.2050
  653ERGO    R3 8926   2.802  10.629   8.596  0.0515 -0.0557 -0.2113
  653ERGO    R4 8927   2.980  10.620   8.365  0.0103 -0.5191 -0.2050
  653ERGO    R5 8928   2.841  10.779   8.414  0.3803 -0.1894 -0.2430
  653ERGO    C1 8929   2.710  10.683   8.069  0.1283  0.0388 -0.2109
  653ERGO    C2 8930   2.624  10.705   7.770  0.0083  0.1656 -0.0545
  654ERGO   ROH 8931   8.866  10.688   9.702 -0.2356  0.0154  0.0389
  654ERGO    R1 8932   8.869  10.592   9.435 -0.0906 -0.0401  0.0598
  654ERGO    R2 8933   8.682  10.669   9.246  0.0092 -0.0818 -0.0575
  654ERGO    R3 8934   8.903  10.735   9.103  0.0863 -0.1085  0.0475
  654ERGO    R4 8935   8.697  10.687   8.902  0.0490  0.3657 -0.0388
  654ERGO    R5 8936   8.893  10.595   8.910 -0.0419  0.1561 -0.1446
  654ERGO    C1 8937   8.912  10.759   8.566  0.1447  0.6013  0.0707
  654ERGO    C2 8938   8.978  10.918   8.269 -0.0954  0.0785  0.2066
  655ERGO   ROH 8939   0.703  13.022   9.979  0.0717 -0.3304  0.0405
  655ERGO    R1 8940   0.757  13.083   9.708 -0.2120 -0.0902  0.0343
  655ERGO    R2 8941   0.928  12.932   9.551  0.1086  0.3906 -0.1056
  655ERGO    R3 8942   0.712  12.920   9.386  0.0452 -0.0944 -0.0005
  655ERGO    R4 8943   0.938  12.845   9.217  0.1440  0.4471 -0.1191
  655ERGO    R5 8944   0.792  13.001   9.176 -0.2453  0.1182 -0.0335
  655ERGO    C1 8945   0.742  12.783   8.867  0.1052  0.0246 -0.0283
  655ERGO    C2 8946   0.799  12.707   8.517 -0.0760 -0.0116 -0.0581
  656ERGO   ROH 8947  11.078  10.705   9.810 -0.2596 -0.3535 -0.0779
  656ERGO    R1 8948  11.205  10.751   9.561 -0.0897 -0.2858  0.0219
  656ERGO    R2 8949  11.235  10.553   9.370 -0.0928 -0.1904 -0.0640
  656ERGO    R3 8950  11.112  10.735   9.210  0.1095 -0.0339 -0.0484
  656ERGO    R4 8951  11.254  10.557   9.025 -0.2178 -0.3048 -0.0749
  656ERGO    R5 8952  11.270  10.774   9.034  0.1125 -0.3102 -0.1225
  656ERGO    C1 8953  11.151  10.730   8.674 -0.1006 -0.2246 -0.0664
  656ERGO    C2 8954  11.086  10.711   8.351 -0.0772 -0.1492 -0.0231
  657ERGO   ROH 8955  15.066  10.417   7.052  0.0236  0.1164  0.0443
  657ERGO    R1 8956  15.182  10.565   7.262  0.0428  0.0376  0.0890
  657ERGO    R2 8957  15.154  10.494   7.529  0.0780 -0.0693  0.0631
  657ERGO    R3 8958  15.426  10.504   7.526  0.0778 -0.0561  0.0353
  657ERGO    R4 8959  15.351  10.607   7.789  0.1054 -0.1707  0.0876
  657ERGO    R5 8960  15.479  10.705   7.644  0.0836 -0.1032  0.1137
  657ERGO    C1 8961  15.720  10.682   7.938  0.1211 -0.2174  0.0759
  657ERGO    C2 8962  15.789  10.784   8.203 -0.3738  0.2167 -0.0409
  658ERGO   ROH 8963  15.422  12.465   8.800  0.1190  0.0280  0.3126
  658ERGO    R1 8964  15.588  12.502   8.573 -0.0032 -0.0995  0.1998
  658ERGO    R2 8965  15.790  12.691   8.566 -0.0545 -0.0481 -0.0458
  658ERGO    R3 8966  15.944  12.476   8.500 -0.0327 -0.0597  0.0435
  658ERGO    R4 8967  16.121  12.707   8.466 -0.0782 -0.0525 -0.1254
  658ERGO    R5 8968  16.079  12.554   8.318 -0.0836 -0.1426 -0.0281
  658ERGO    C1 8969  16.458  12.516   8.347 -0.0717 -0.0659 -0.0880
  658ERGO    C2 8970  16.761  12.488   8.240  0.0314 -0.1828  0.0677
  659ERGO   ROH 8971   6.784   2.149  10.118  0.2418 -0.2226  0.0857
  659ERGO    R1 8972   6.848   2.198   9.846  0.2177 -0.0945  0.1021
  659ERGO    R2 8973   7.034   2.048   9.707  0.1281 -0.1005 -0.0184
  659ERGO    R3 8974   6.829   2.014   9.533  0.0809  0.0935 -0.0010
  659ERGO    R4 8975   7.071   1.975   9.372  0.0278  0.1410 -0.0840
  659ERGO    R5 8976   6.907   2.112   9.329  0.0624  0.2215  0.0557
  659ERGO    C1 8977   6.899   1.900   9.012 -0.0749  0.4638 -0.1057
  659ERGO    C2 8978   6.840   1.793   8.679  0.2138  0.0284 -0.0697
  660ERGO   ROH 8979   0.466   1.067   6.669 -0.1434 -0.2953  0.1555
  660ERGO    R1 8980   0.573   1.004   6.923 -0.1910 -0.2526  0.1863
  660ERGO    R2 8981   0.709   1.189   7.077  0.0368 -0.3032  0.0509
  660ERGO    R3 8982   0.526   1.117   7.266 -0.0299  0.0286  0.1193
  660ERGO    R4 8983   0.749   1.233   7.418  0.1527 -0.1858  0.0228
  660ERGO    R5 8984   0.659   1.037   7.449 -0.1019 -0.0560  0.1355
  660ERGO    C1 8985   0.601   1.192   7.793  0.1577  0.1940  0.0706
  660ERGO    C2 8986   0.643   1.211   8.153 -0.0276  0.0024 -0.0569
  661ERGO   ROH 8987   7.943   7.087   6.262  0.2321  0.2600 -0.0965
  661ERGO    R1 8988   7.859   7.122   6.530  0.1424 -0.0667 -0.0786
  661ERGO    R2 8989   7.907   6.933   6.727  0.3753 -0.1592 -0.2216
  661ERGO    R3 8990   8.019   7.143   6.857  0.0653 -0.1006 -0.0378
  661ERGO    R4 8991   8.030   6.923   7.050  0.2225 -0.2087 -0.1636
  661ERGO    R5 8992   7.944   7.121   7.083 -0.0267 -0.3237 -0.0866
  661ERGO    C1 8993   8.207   7.116   7.359 -0.1575 -0.1824  0.0427
  661ERGO    C2 8994   8.541   7.173   7.479 -0.2002  0.2965 -0.0131
  662ERGO   ROH 8995  10.292  16.160  10.006  0.0146 -0.1601 -0.0641
  662ERGO    R1 8996  10.532  16.163   9.855 -0.0195 -0.0360 -0.1160
  662ERGO    R2 8997  10.582  15.984   9.651  0.0252 -0.0032 -0.1304
  662ERGO    R3 8998  10.624  16.209   9.506 -0.1157  0.0216 -0.1350
  662ERGO    R4 8999  10.737  15.994   9.343  0.0274  0.0826 -0.1270
  662ERGO    R5 9000  10.839  16.176   9.406 -0.0887  0.1526 -0.1280
  662ERGO    C1 9001  10.867  16.212   9.027 -0.1035  0.1559 -0.1293
  662ERGO    C2 9002  10.865  16.239   8.712  0.3428 -0.0765  0.1787
  663ERGO   ROH 9003  10.178   4.397   6.105 -0.1234 -0.1752  0.1441
  663ERGO    R1 9004  10.094   4.240   6.326  0.0667 -0.2202  0.1859
  663ERGO    R2 9005  10.226   4.243   6.568  0.0151  0.0757  0.2138
  663ERGO    R3 9006   9.979   4.302   6.665 -0.1021 -0.2612  0.1375
  663ERGO    R4 9007  10.126   4.194   6.895  0.1324  0.3421  0.2923
  663ERGO    R5 9008   9.932   4.126   6.821  0.2505 -0.1424  0.3918
  663ERGO    C1 9009   9.836   4.221   7.177  0.0907  0.1809  0.2664
  663ERGO    C2 9010   9.926   4.534   7.486 -0.1807  0.3288  0.0874
  664ERGO   ROH 9011  10.090   3.827   6.035 -0.1869 -0.0235 -0.0495
  664ERGO    R1 9012  10.195   3.744   6.285 -0.1709 -0.0394 -0.0626
  664ERGO    R2 9013  10.074   3.807   6.526 -0.1439 -0.0385 -0.0531
  664ERGO    R3 9014  10.083   3.538   6.563 -0.1597 -0.0412 -0.0586
  664ERGO    R4 9015  10.014   3.646   6.825 -0.2945 -0.0509 -0.0877
  664ERGO    R5 9016  10.178   3.511   6.780 -0.2684 -0.0482 -0.0099
  664ERGO    C1 9017   9.988   3.300   7.035 -0.3971 -0.0607 -0.1130
  664ERGO    C2 9018   9.905   3.266   7.363  0.0593 -0.0315  0.0659
  665ERGO   ROH 9019   4.296   6.379   6.442 -0.2044 -0.1304 -0.0071
  665ERGO    R1 9020   4.385   6.335   6.707  0.0005  0.0029 -0.0501
  665ERGO    R2 9021   4.229   6.394   6.928  0.1850  0.1534  0.0474
  665ERGO    R3 9022   4.279   6.134   6.992  0.1897  0.1798  0.1479
  665ERGO    R4 9023   4.232   6.266   7.249  0.1852  0.2745  0.0949
  665ERGO    R5 9024   4.405   6.145   7.194  0.1858  0.2582  0.1435
  665ERGO    C1 9025   4.280   5.948   7.496  0.1896  0.3697  0.2168
  665ERGO    C2 9026   4.271   5.874   7.794  0.3273  0.0445 -0.2789
  666ERGO   ROH 9027   4.322   8.791   9.492 -0.0873 -0.1568  0.0357
  666ERGO    R1 9028   4.136   8.824   9.281  0.0589 -0.1340 -0.0922
  666ERGO    R2 9029   4.106   9.062   9.145  0.0160 -0.0568  0.0430
  666ERGO    R3 9030   4.150   8.907   8.926  0.2938  0.1145 -0.0270
  666ERGO    R4 9031   4.027   9.151   8.820 -0.1506 -0.0602  0.0825
  666ERGO    R5 9032   3.960   8.946   8.786  0.2178 -0.1689 -0.0047
  666ERGO    C1 9033   4.022   9.057   8.427  0.0133  0.0986  0.0399
  666ERGO    C2 9034   4.163   9.272   8.278  0.1807 -0.3048 -0.1805
  667ERGO   ROH 9035  13.728  12.114   9.983  0.0493  0.0850 -0.0060
  667ERGO    R1 9036  13.740  12.106   9.701 -0.0659 -0.0072 -0.0090
  667ERGO    R2 9037  13.686  11.877   9.556  0.0534 -0.1044  0.0966
  667ERGO    R3 9038  13.508  12.038   9.428 -0.1311 -0.2904  0.1140
  667ERGO    R4 9039  13.577  11.833   9.231  0.1012 -0.1935  0.0925
  667ERGO    R5 9040  13.588  12.049   9.203 -0.1428 -0.1758  0.1150
  667ERGO    C1 9041  13.346  11.958   8.922 -0.0444 -0.4200  0.1063
  667ERGO    C2 9042  13.081  11.860   8.711  0.1572 -0.2732  0.1266
  668ERGO   ROH 9043   7.024  12.211   9.700 -0.2361  0.0887 -0.1539
  668ERGO    R1 9044   7.090  12.301   9.440 -0.2903  0.1805 -0.1353
  668ERGO    R2 9045   7.124  12.128   9.227 -0.0276  0.2317 -0.1311
  668ERGO    R3 9046   6.938  12.287   9.109 -0.2002  0.0044 -0.1721
  668ERGO    R4 9047   7.078  12.158   8.886  0.1893  0.3519 -0.1528
  668ERGO    R5 9048   7.047  12.372   8.914 -0.1783  0.2979 -0.0425
  668ERGO    C1 9049   6.875  12.323   8.577  0.1535  0.2084 -0.2038
  668ERGO    C2 9050   6.557  12.280   8.391 -0.1280  0.1602 -0.0219
  669ERGO   ROH 9051  17.465   1.556  10.022 -0.0420  0.0651 -0.0570
  669ERGO    R1 9052  17.473   1.477   9.750  0.0481  0.1140 -0.0695
  669ERGO    R2 9053  17.246   1.402   9.611  0.1189 -0.0382 -0.1066
  669ERGO    R3 9054  17.328   1.594   9.437 -0.0088  0.0548 -0.0653
  669ERGO    R4 9055  17.146   1.425   9.282  0.1674 -0.0822 -0.1243
  669ERGO    R5 9056  17.350   1.479   9.228  0.1331  0.0997 -0.0755
  669ERGO    C1 9057  17.164   1.618   8.926  0.0760 -0.0205 -0.0958
  669ERGO    C2 9058  17.204   1.786   8.682  0.2608 -0.0404  0.0430
  670ERGO   ROH 9059  10.072  17.390   9.943  0.0524 -0.3127 -0.0444
  670ERGO    R1 9060  10.070  17.500   9.682  0.0563 -0.2396 -0.0144
  670ERGO    R2 9061  10.163  17.362   9.462  0.0087 -0.2009 -0.0632
  670ERGO    R3 9062   9.917  17.419   9.362  0.0120 -0.1182 -0.0234
  670ERGO    R4 9063  10.074  17.338   9.129 -0.0421 -0.1081 -0.0563
  670ERGO    R5 9064   9.960  17.522   9.151  0.0090 -0.0866 -0.0057
  670ERGO    C1 9065   9.791  17.377   8.841 -0.0686  0.0237 -0.0149
  670ERGO    C2 9066   9.719  17.251   8.508 -0.3494  0.0907 -0.0183
  671ERGO   ROH 9067   3.852   1.109   9.950  0.2876  0.0807 -0.0556
  671ERGO    R1 9068   3.951   1.119   9.685  0.3232 -0.2379 -0.0573
  671ERGO    R2 9069   3.991   0.892   9.533 -0.2403 -0.3907  0.0047
  671ERGO    R3 9070   3.833   1.023   9.355  0.0831 -0.0344 -0.0342
  671ERGO    R4 9071   4.010   0.859   9.189 -0.1987 -0.4018  0.0078
  671ERGO    R5 9072   3.978   1.073   9.171  0.2565 -0.3208  0.0158
  671ERGO    C1 9073   3.873   0.963   8.822  0.1291 -0.0736 -0.0268
  671ERGO    C2 9074   3.754   0.827   8.545  0.1927 -0.1636  0.0103
  672ERGO   ROH 9075   0.342  15.785   9.941 -0.1337 -0.2042  0.1383
  672ERGO    R1 9076   0.150  15.818   9.736 -0.0817 -0.1677  0.0951
  672ERGO    R2 9077   0.201  15.964   9.507 -0.0364 -0.0936  0.1514
  672ERGO    R3 9078   0.123  15.735   9.383  0.0255 -0.0673  0.0627
  672ERGO    R4 9079   0.174  15.923   9.165 -0.0552  0.0406  0.1365
  672ERGO    R5 9080  -0.009  15.809   9.198 -0.0154 -0.0318  0.1061
  672ERGO    C1 9081   0.085  15.685   8.849 -0.0080  0.1435  0.0445
  672ERGO    C2 9082   0.095  15.705   8.526 -0.0540  0.1058 -0.2026
  673ERGO   ROH 9083   7.918  13.457   6.665  0.0866  0.1400  0.0492
  673ERGO    R1 9084   7.947  13.700   6.806 -0.0999  0.1393  0.0906
  673ERGO    R2 9085   7.760  13.904   6.792 -0.2701 -0.0113  0.1472
  673ERGO    R3 9086   7.762  13.881   7.063 -0.2233 -0.0586  0.1431
  673ERGO    R4 9087   7.642  14.143   7.012  0.0415  0.0814  0.2186
  673ERGO    R5 9088   7.812  14.101   7.141  0.0335 -0.1222  0.1675
  673ERGO    C1 9089   7.575  14.260   7.394  0.2670  0.0911  0.2564
  673ERGO    C2 9090   7.661  14.462   7.624  0.0809  0.2858  0.1253
  674ERGO   ROH 9091   5.611   0.521   6.622  0.1027  0.0579 -0.1424
  674ERGO    R1 9092   5.729   0.503   6.879  0.1058  0.0637 -0.1438
  674ERGO    R2 9093   5.844   0.720   7.005 -0.1099  0.1231 -0.0471
  674ERGO    R3 9094   5.675   0.653   7.206 -0.0573 -0.1254 -0.0822
  674ERGO    R4 9095   5.883   0.813   7.335 -0.2776  0.1254 -0.0267
  674ERGO    R5 9096   5.818   0.614   7.394 -0.0327  0.0289 -0.0669
  674ERGO    C1 9097   5.747   0.804   7.717 -0.3258 -0.1065 -0.0478
  674ERGO    C2 9098   5.838   0.942   8.043  0.1095  0.0262  0.1615
  675PSPI    C1 9099  16.583   0.220   5.858 -0.1183 -0.1585 -0.1096
  675PSPI    C2 9100  16.924   0.011   5.860  0.1042  0.1967  0.0489
  675PSPI    C3 9101  16.739   0.089   5.514  0.2172  0.0570 -0.0442
  675PSPI   PO4 9102  16.592   0.331   6.074 -0.0492 -0.2542 -0.4189
  675PSPI   GL1 9103  16.368   0.469   6.304  0.0291  0.2968  0.1210
  675PSPI   GL2 9104  16.594   0.724   6.441  0.0794  0.0958 -0.2377
  675PSPI   C1A 9105  16.422   0.327   6.744 -0.0459  0.0574  0.0500
  675PSPI   C2A 9106  16.402   0.296   7.271  0.0483 -0.0253  0.1161
  675PSPI   C3A 9107  16.116   0.157   7.657  0.0787  0.0060 -0.2219
  675PSPI   C4A 9108  15.915   0.029   7.961  0.1255  0.1395 -0.0526
  675PSPI   C1B 9109  16.626   0.729   6.874 -0.2166 -0.1111  0.0922
  675PSPI   C2B 9110  16.624   0.748   7.266  0.1786  0.0450 -0.2403
  675PSPI   C3B 9111  16.743   0.828   7.678  0.0312  0.0551 -0.0048
  675PSPI   C4B 9112  16.953   0.711   8.003 -0.0724  0.2056  0.0957
  676PSPI    C1 9113   6.609  11.328   5.637  0.0009 -0.1595  0.0745
  676PSPI    C2 9114   6.837  11.217   5.328  0.0154  0.1687 -0.0364
  676PSPI    C3 9115   6.458  11.327   5.267 -0.0940 -0.1143  0.1130
  676PSPI   PO4 9116   6.759  11.352   5.913  0.0141  0.0022  0.1263
  676PSPI   GL1 9117   6.954  11.519   6.239  0.0279 -0.3446  0.0101
  676PSPI   GL2 9118   6.787  11.329   6.521  0.0364 -0.0916 -0.0862
  676PSPI   C1A 9119   6.807  11.843   6.448  0.0365 -0.1543  0.1390
  676PSPI   C2A 9120   6.697  11.787   6.777  0.0745  0.0179  0.0690
  676PSPI   C3A 9121   6.452  11.516   7.028  0.1969  0.2683 -0.1524
  676PSPI   C4A 9122   6.171  11.610   7.413 -0.1186 -0.0810 -0.0444
  676PSPI   C1B 9123   6.873  11.314   6.960  0.1191  0.0066  0.3099
  676PSPI   C2B 9124   6.862  11.562   7.349  0.2264  0.1853  0.0930
  676PSPI   C3B 9125   6.603  11.353   7.670 -0.0275  0.0642  0.2741
  676PSPI   C4B 9126   6.456  11.146   8.044 -0.1009 -0.1462  0.0772
  677PSPI    C1 9127  15.464  14.231   5.794 -0.0627  0.1045 -0.0900
  677PSPI    C2 9128  15.806  14.061   5.913  0.0476  0.4845  0.1528
  677PSPI    C3 9129  15.763  14.179   5.533 -0.0344 -0.0814 -0.0216
  677PSPI   PO4 9130  15.469  14.487   5.993  0.0015  0.4842 -0.3283
  677PSPI   GL1 9131  15.538  14.487   6.363  0.0500 -0.1903  0.3038
  677PSPI   GL2 9132  15.296  14.613   6.554  0.2310 -0.1444 -0.0191
  677PSPI   C1A 9133  15.977  14.515   6.681  0.3139  0.0571 -0.0879
  677PSPI   C2A 9134  15.935  14.407   6.992  0.1130  0.1712 -0.2069
  677PSPI   C3A 9135  15.626  14.428   7.350 -0.0856 -0.1284 -0.0936
  677PSPI   C4A 9136  15.377  14.581   7.745  0.1641  0.0518  0.3651
  677PSPI   C1B 9137  15.255  14.527   6.967  0.0871 -0.1499  0.0004
  677PSPI   C2B 9138  15.461  14.883   7.300  0.0869 -0.0336 -0.0456
  677PSPI   C3B 9139  15.601  15.004   7.547 -0.0820  0.0382  0.1480
  677PSPI   C4B 9140  15.612  14.935   7.937  0.3617 -0.1709  0.0506
  678PSPI    C1 9141  14.991   2.049   5.848  0.0605  0.0183  0.0057
  678PSPI    C2 9142  14.716   2.163   5.580  0.0235  0.0523  0.0579
  678PSPI    C3 9143  14.951   1.848   5.504 -0.0215  0.0306  0.0078
  678PSPI   PO4 9144  14.813   1.958   6.064 -0.2699  0.3552 -0.1242
  678PSPI   GL1 9145  14.727   1.890   6.520  0.0427 -0.3163 -0.1265
  678PSPI   GL2 9146  15.015   1.660   6.547 -0.3609 -0.3680 -0.2349
  678PSPI   C1A 9147  14.557   1.935   6.771 -0.0884 -0.1333 -0.4008
  678PSPI   C2A 9148  14.466   1.775   7.209 -0.2370  0.0119 -0.2658
  678PSPI   C3A 9149  14.394   1.614   7.605 -0.2419  0.3176  0.2565
  678PSPI   C4A 9150  14.204   1.438   7.911  0.1550 -0.2944  0.1765
  678PSPI   C1B 9151  14.824   1.552   6.924  0.2693  0.0447 -0.1609
  678PSPI   C2B 9152  14.892   1.484   7.405  0.0213  0.0671 -0.0158
  678PSPI   C3B 9153  14.970   1.518   7.887 -0.2127  0.2736 -0.1786
  678PSPI   C4B 9154  14.787   1.560   8.203 -0.2997  0.2019  0.2109
  679PSPI    C1 9155  17.647  12.674   5.960 -0.0375  0.0554 -0.0025
  679PSPI    C2 9156  17.393  12.912   6.158 -0.0002  0.1139 -0.0248
  679PSPI    C3 9157  17.389  12.903   5.758 -0.1662 -0.1033 -0.0197
  679PSPI   PO4 9158  17.638  12.438   6.242  0.0883  0.1094 -0.2231
  679PSPI   GL1 9159  17.499  12.610   6.614  0.2536 -0.1243  0.0924
  679PSPI   GL2 9160  17.323  12.315   6.626  0.2139 -0.0205  0.1333
  679PSPI   C1A 9161  17.671  12.823   7.018 -0.3382 -0.3004 -0.0958
  679PSPI   C2A 9162  17.849  12.568   7.243 -0.2948 -0.1986  0.0982
  679PSPI   C3A 9163  18.124  12.285   7.298  0.3072 -0.1104  0.0724
  679PSPI   C4A 9164  18.192  11.889   7.553 -0.0838  0.0889 -0.2160
  679PSPI   C1B 9165  17.253  12.206   7.039  0.2153 -0.0696  0.0186
  679PSPI   C2B 9166  17.019  12.139   7.502  0.3348  0.2301 -0.0356
  679PSPI   C3B 9167  16.777  12.205   7.861  0.2469 -0.2663 -0.0855
  679PSPI   C4B 9168  16.506  12.068   8.130 -0.3003  0.0899  0.3111
  680PSPI    C1 9169   7.198   0.497   5.962  0.0445  0.1607 -0.0150
  680PSPI    C2 9170   7.104   0.122   5.858 -0.0211  0.0785  0.3267
  680PSPI    C3 9171   7.473   0.262   5.792  0.0078 -0.0501  0.2117
  680PSPI   PO4 9172   7.126   0.494   6.326 -0.2378  0.1358 -0.0740
  680PSPI   GL1 9173   7.437   0.499   6.669  0.1011  0.0010 -0.3056
  680PSPI   GL2 9174   7.379   0.823   6.632  0.0090 -0.0371  0.1562
  680PSPI   C1A 9175   7.684   0.279   6.975 -0.2282  0.1277 -0.2293
  680PSPI   C2A 9176   7.792   0.361   7.436  0.0715 -0.0905 -0.0320
  680PSPI   C3A 9177   7.955   0.611   7.707  0.1318 -0.2370  0.0630
  680PSPI   C4A 9178   7.800   0.809   8.105 -0.1209 -0.1942 -0.2732
  680PSPI   C1B 9179   7.167   0.670   7.056  0.0908 -0.1048 -0.3526
  680PSPI   C2B 9180   6.914   0.916   7.400 -0.1258 -0.2392  0.0889
  680PSPI   C3B 9181   6.719   1.122   7.790 -0.0841 -0.0761  0.1254
  680PSPI   C4B 9182   6.509   0.964   8.161  0.1884 -0.2554 -0.0485
  681PSPI    C1 9183   4.138   8.243   5.537  0.2314 -0.0538  0.0722
  681PSPI    C2 9184   4.170   8.629   5.639 -0.0026 -0.0129 -0.0013
  681PSPI    C3 9185   4.403   8.478   5.351  0.2442  0.0170  0.1788
  681PSPI   PO4 9186   3.969   8.166   5.774  0.0976  0.2674  0.0217
  681PSPI   GL1 9187   3.748   8.107   6.093  0.1091 -0.1926  0.1733
  681PSPI   GL2 9188   3.932   7.846   6.215 -0.3022 -0.0341 -0.1133
  681PSPI   C1A 9189   3.700   8.307   6.544 -0.2000 -0.1063  0.3913
  681PSPI   C2A 9190   3.732   8.404   6.910 -0.0406  0.0744 -0.2735
  681PSPI   C3A 9191   3.759   8.450   7.367 -0.0104 -0.2344 -0.1282
  681PSPI   C4A 9192   3.833   8.492   7.833 -0.1008  0.2047  0.1161
  681PSPI   C1B 9193   4.103   8.064   6.587  0.1000  0.1013  0.1021
  681PSPI   C2B 9194   4.183   8.184   7.038  0.1109 -0.0720 -0.3650
  681PSPI   C3B 9195   4.137   8.140   7.538  0.0108  0.2986  0.1761
  681PSPI   C4B 9196   4.192   8.196   8.025  0.0505  0.0702 -0.4416
  682PSPI    C1 9197  17.396  16.622   5.627 -0.1848 -0.0112 -0.1247
  682PSPI    C2 9198  17.129  16.343   5.524 -0.0873 -0.0640 -0.2362
  682PSPI    C3 9199  17.417  16.449   5.267 -0.0643  0.0683 -0.1567
  682PSPI   PO4 9200  17.381  16.533   6.036 -0.2323  0.0662  0.1472
  682PSPI   GL1 9201  17.368  16.455   6.393  0.0478  0.3280  0.3113
  682PSPI   GL2 9202  17.582  16.308   6.514 -0.0535 -0.2515 -0.0700
  682PSPI   C1A 9203  17.124  16.374   6.644 -0.2421 -0.2504 -0.0557
  682PSPI   C2A 9204  17.086  16.235   7.074 -0.1572  0.1027  0.0764
  682PSPI   C3A 9205  17.173  16.203   7.518 -0.3090 -0.1373 -0.0785
  682PSPI   C4A 9206  17.341  16.458   7.859 -0.0003 -0.0349 -0.1932
  682PSPI   C1B 9207  17.613  16.303   6.956 -0.1432 -0.0346 -0.3423
  682PSPI   C2B 9208  17.609  16.446   7.337  0.1860 -0.1588  0.0638
  682PSPI   C3B 9209  17.837  16.343   7.757  0.1767 -0.1937 -0.1717
  682PSPI   C4B 9210  18.159  16.419   7.962  0.1521  0.0084 -0.1994
  683PSPI    C1 9211  16.574   3.311   6.109  0.1268 -0.0012  0.1892
  683PSPI    C2 9212  16.949   3.380   5.988  0.0485 -0.0386 -0.0826
  683PSPI    C3 9213  16.750   3.062   5.849  0.0473 -0.2391  0.3596
  683PSPI   PO4 9214  16.595   3.325   6.310 -0.0108 -0.1714  0.1349
  683PSPI   GL1 9215  16.603   3.103   6.778  0.2106 -0.3112  0.2377
  683PSPI   GL2 9216  16.793   2.815   6.880  0.2369  0.1210 -0.1069
  683PSPI   C1A 9217  16.350   3.000   7.132  0.1051  0.0800 -0.0754
  683PSPI   C2A 9218  16.257   2.872   7.510  0.1019  0.1690  0.0260
  683PSPI   C3A 9219  16.066   2.982   7.908 -0.1191 -0.3212 -0.1899
  683PSPI   C4A 9220  16.169   2.869   8.324 -0.0023  0.1238 -0.0463
  683PSPI   C1B 9221  16.818   2.956   7.337  0.0197 -0.3053 -0.3750
  683PSPI   C2B 9222  17.030   3.090   7.824  0.1058  0.1500 -0.1830
  683PSPI   C3B 9223  17.147   3.397   8.155  0.0967  0.3003 -0.0661
  683PSPI   C4B 9224  17.269   3.860   8.247  0.1531 -0.1152 -0.5197
  684PSPI    C1 9225   6.572  16.498   6.139  0.0341  0.0425 -0.0901
  684PSPI    C2 9226   6.470  16.146   5.979 -0.0156  0.1532 -0.3058
  684PSPI    C3 9227   6.570  16.452   5.741  0.2087  0.2309 -0.1146
  684PSPI   PO4 9228   6.726  16.463   6.261  0.0144  0.2354 -0.0303
  684PSPI   GL1 9229   6.969  16.341   6.607  0.0456 -0.1701 -0.0932
  684PSPI   GL2 9230   7.269  16.485   6.727 -0.2364  0.0052  0.1026
  684PSPI   C1A 9231   6.894  16.033   6.931  0.0352  0.0530 -0.1567
  684PSPI   C2A 9232   7.049  15.881   7.317  0.1000  0.1822 -0.2471
  684PSPI   C3A 9233   7.055  15.965   7.805  0.4174  0.0830 -0.2617
  684PSPI   C4A 9234   6.920  15.814   8.227  0.0946  0.0648 -0.2693
  684PSPI   C1B 9235   7.279  16.265   7.106 -0.1713 -0.1086  0.1230
  684PSPI   C2B 9236   7.231  16.352   7.516 -0.0994 -0.0858  0.2368
  684PSPI   C3B 9237   7.143  16.516   7.859 -0.0196 -0.3081  0.5621
  684PSPI   C4B 9238   7.146  16.269   8.267 -0.2521  0.2034  0.2624
  685PSPI    C1 9239  12.753  17.194   5.779  0.2472  0.0939 -0.0407
  685PSPI    C2 9240  12.595  16.933   5.519  0.1338  0.0172  0.1034
  685PSPI    C3 9241  12.947  16.855   5.692  0.3308  0.1849 -0.2130
  685PSPI   PO4 9242  12.522  17.291   5.863  0.0800 -0.5892 -0.0844
  685PSPI   GL1 9243  12.492  17.146   6.299  0.4792  0.1365  0.1118
  685PSPI   GL2 9244  12.606  16.854   6.167 -0.0876 -0.0484 -0.0717
  685PSPI   C1A 9245  12.523  16.935   6.700 -0.2743 -0.2013 -0.0683
  685PSPI   C2A 9246  12.445  16.892   7.098  0.3704  0.0105 -0.0038
  685PSPI   C3A 9247  12.299  16.863   7.496 -0.3808 -0.0713 -0.0176
  685PSPI   C4A 9248  12.329  16.705   7.968  0.3437  0.0406  0.0316
  685PSPI   C1B 9249  12.994  16.904   6.468  0.0664  0.2010 -0.2026
  685PSPI   C2B 9250  13.074  16.965   6.942  0.1688  0.0529 -0.0960
  685PSPI   C3B 9251  13.156  16.946   7.363  0.1326  0.1442  0.3301
  685PSPI   C4B 9252  13.204  17.077   7.809  0.1402  0.1601  0.1232
  686PSPI    C1 9253   3.609  16.348   6.073  0.0435 -0.0966  0.0184
  686PSPI    C2 9254   3.942  16.324   5.853  0.0068 -0.3690 -0.0117
  686PSPI    C3 9255   3.586  16.258   5.684 -0.1010  0.2707 -0.0624
  686PSPI   PO4 9256   3.670  16.278   6.299 -0.0521 -0.2831  0.2302
  686PSPI   GL1 9257   3.604  15.996   6.667  0.3468 -0.0472  0.1302
  686PSPI   GL2 9258   4.001  15.995   6.757 -0.0304 -0.2343 -0.0375
  686PSPI   C1A 9259   3.435  16.197   7.083  0.0415  0.2722  0.4886
  686PSPI   C2A 9260   3.066  16.259   7.515  0.0336  0.1614  0.0241
  686PSPI   C3A 9261   2.613  16.173   7.566  0.0146 -0.1251 -0.4046
  686PSPI   C4A 9262   2.196  16.150   7.522 -0.3297  0.0934  0.0365
  686PSPI   C1B 9263   3.824  15.951   7.144  0.1068  0.2621  0.2031
  686PSPI   C2B 9264   3.967  15.675   7.586 -0.0083  0.1833  0.1204
  686PSPI   C3B 9265   4.203  15.570   7.865  0.0534 -0.0562  0.0772
  686PSPI   C4B 9266   4.425  15.332   8.115  0.0245 -0.2402 -0.2457
  687PSPI    C1 9267  13.763   1.478   5.430 -0.1458  0.3256 -0.0855
  687PSPI    C2 9268  13.884   1.777   5.666  0.0738  0.2339 -0.0792
  687PSPI    C3 9269  14.144   1.598   5.421 -0.0479  0.0267 -0.0594
  687PSPI   PO4 9270  13.631   1.350   5.656 -0.1898 -0.2052  0.2601
  687PSPI   GL1 9271  13.811   1.170   5.951  0.1322 -0.0098  0.1204
  687PSPI   GL2 9272  13.965   1.491   6.107  0.1785 -0.1032  0.0474
  687PSPI   C1A 9273  13.683   1.141   6.377 -0.0996  0.3835  0.4221
  687PSPI   C2A 9274  13.514   0.994   6.755 -0.4113 -0.2435  0.1036
  687PSPI   C3A 9275  13.657   0.731   7.105  0.0451  0.0370 -0.0787
  687PSPI   C4A 9276  13.578   0.598   7.435  0.2057  0.0175 -0.3627
  687PSPI   C1B 9277  13.825   1.713   6.474 -0.1068  0.1007 -0.0252
  687PSPI   C2B 9278  14.014   1.984   6.769  0.1868  0.1548  0.0934
  687PSPI   C3B 9279  14.011   2.052   7.143  0.1223  0.0337 -0.2327
  687PSPI   C4B 9280  13.933   1.740   7.404  0.0190 -0.0153  0.0661
  688PSPI    C1 9281  17.712   1.733   6.349 -0.1091  0.1512  0.0852
  688PSPI    C2 9282  17.633   1.689   5.959 -0.1797  0.1200  0.1030
  688PSPI    C3 9283  18.008   1.649   6.093 -0.1687  0.0447  0.0508
  688PSPI   PO4 9284  17.396   1.952   6.451  0.0860  0.0100  0.0706
  688PSPI   GL1 9285  17.140   1.912   6.688 -0.0044  0.3044 -0.3183
  688PSPI   GL2 9286  16.962   1.635   6.500 -0.3725 -0.2589 -0.1747
  688PSPI   C1A 9287  17.268   1.927   7.103  0.3597  0.2365 -0.2138
  688PSPI   C2A 9288  17.502   1.843   7.511  0.1382  0.0144  0.0662
  688PSPI   C3A 9289  17.820   1.841   7.820 -0.0710 -0.0562  0.0429
  688PSPI   C4A 9290  17.862   2.226   7.971  0.2367  0.1372  0.1818
  688PSPI   C1B 9291  16.884   1.601   6.979  0.2914 -0.3002 -0.1575
  688PSPI   C2B 9292  16.737   1.580   7.403 -0.0009  0.0437  0.0945
  688PSPI   C3B 9293  16.468   1.259   7.708 -0.1127 -0.0443  0.1110
  688PSPI   C4B 9294  16.248   0.929   7.969  0.0319 -0.0232  0.1397
  689PSPI    C1 9295  15.829   5.393   6.038  0.1421  0.0207  0.0600
  689PSPI    C2 9296  16.196   5.548   6.007  0.1084  0.0481 -0.2238
  689PSPI    C3 9297  16.049   5.319   5.713 -0.0135 -0.1563 -0.0072
  689PSPI   PO4 9298  15.769   5.459   6.242  0.0772 -0.2670  0.0368
  689PSPI   GL1 9299  15.629   5.445   6.628  0.1023 -0.1614  0.1223
  689PSPI   GL2 9300  15.442   5.166   6.816  0.2237 -0.0924 -0.2970
  689PSPI   C1A 9301  15.795   5.482   7.203  0.2367 -0.0705 -0.0291
  689PSPI   C2A 9302  15.882   5.372   7.623 -0.1614  0.1234 -0.0005
  689PSPI   C3A 9303  15.956   5.396   7.992  0.1365 -0.1255 -0.2517
  689PSPI   C4A 9304  16.244   5.711   8.084 -0.1801  0.1112  0.3264
  689PSPI   C1B 9305  15.273   5.344   7.180 -0.0182  0.1185  0.1124
  689PSPI   C2B 9306  15.378   5.287   7.649  0.0103  0.0093 -0.4135
  689PSPI   C3B 9307  15.141   5.395   7.957 -0.0233 -0.0811  0.1397
  689PSPI   C4B 9308  14.945   5.676   8.202 -0.0097 -0.0448 -0.2184
  690PSPI    C1 9309  12.570   7.339   5.885  0.0528  0.2781  0.0905
  690PSPI    C2 9310  12.254   7.460   5.671  0.0356  0.0920  0.0085
  690PSPI    C3 9311  12.370   7.078   5.657  0.2418  0.1510  0.0683
  690PSPI   PO4 9312  12.553   7.562   6.074 -0.1303  0.3027 -0.3669
  690PSPI   GL1 9313  12.412   7.439   6.514 -0.1250  0.2497  0.3668
  690PSPI   GL2 9314  12.632   7.685   6.593  0.3193 -0.1760 -0.0916
  690PSPI   C1A 9315  12.332   7.443   6.982  0.0202  0.0565  0.1879
  690PSPI   C2A 9316  12.285   7.380   7.385  0.3017 -0.2305 -0.0878
  690PSPI   C3A 9317  12.231   7.332   7.867 -0.2523  0.2486  0.1880
  690PSPI   C4A 9318  11.944   7.059   8.036 -0.0074  0.2682  0.2976
  690PSPI   C1B 9319  12.734   7.818   6.940 -0.0626  0.1653  0.1210
  690PSPI   C2B 9320  12.639   7.693   7.364 -0.1806 -0.0711  0.1771
  690PSPI   C3B 9321  12.429   7.783   7.709 -0.0783  0.0647 -0.0303
  690PSPI   C4B 9322  12.176   7.805   8.070 -0.3118  0.1650  0.4048
  691PSPI    C1 9323  12.984   6.846   5.913 -0.0266 -0.2728 -0.3305
  691PSPI    C2 9324  13.167   7.200   5.952  0.1568 -0.4055  0.0666
  691PSPI    C3 9325  12.961   7.117   5.619  0.0963  0.0787 -0.0241
  691PSPI   PO4 9326  13.061   6.736   6.155  0.0011  0.0884 -0.2328
  691PSPI   GL1 9327  13.097   6.688   6.542  0.0641 -0.0932  0.2766
  691PSPI   GL2 9328  13.017   6.850   6.761  0.0290  0.1603  0.2371
  691PSPI   C1A 9329  13.425   6.519   6.751  0.3023  0.0271 -0.1441
  691PSPI   C2A 9330  13.750   6.764   6.934  0.0830 -0.0469 -0.1836
  691PSPI   C3A 9331  13.876   6.804   7.330  0.0012  0.2899 -0.0530
  691PSPI   C4A 9332  14.086   6.959   7.716  0.0080  0.4868  0.0593
  691PSPI   C1B 9333  13.004   6.765   7.266 -0.0578  0.0521  0.1095
  691PSPI   C2B 9334  13.036   6.643   7.671  0.2542 -0.1104  0.0110
  691PSPI   C3B 9335  12.663   6.545   7.914  0.0815 -0.0870  0.1460
  691PSPI   C4B 9336  12.445   6.185   7.926 -0.1840 -0.4042  0.0152
  692PSPI    C1 9337   0.133   2.682   6.155 -0.0039 -0.1469 -0.0318
  692PSPI    C2 9338  -0.088   2.659   5.823 -0.0257  0.3058 -0.0540
  692PSPI    C3 9339   0.301   2.569   5.811 -0.0274  0.3158 -0.2021
  692PSPI   PO4 9340  -0.089   2.580   6.316 -0.1890 -0.2182 -0.2985
  692PSPI   GL1 9341  -0.270   2.593   6.663 -0.2306  0.2395 -0.1425
  692PSPI   GL2 9342  -0.314   2.697   6.895  0.0994 -0.0059 -0.2041
  692PSPI   C1A 9343   0.166   2.530   6.893  0.2596  0.3228  0.0708
  692PSPI   C2A 9344   0.394   2.566   7.177 -0.0970 -0.2572 -0.1342
  692PSPI   C3A 9345   0.365   2.630   7.597  0.1990 -0.1899 -0.0347
  692PSPI   C4A 9346   0.363   2.722   8.014 -0.0484  0.0687 -0.1975
  692PSPI   C1B 9347  -0.160   2.618   7.344 -0.1534  0.0857  0.1499
  692PSPI   C2B 9348  -0.141   2.708   7.807 -0.2226  0.1106 -0.2033
  692PSPI   C3B 9349  -0.108   3.058   8.168 -0.2486 -0.2541 -0.0411
  692PSPI   C4B 9350  -0.024   3.289   8.543 -0.1716  0.0118 -0.1932
  693PSPI    C1 9351  18.008   4.888   5.919  0.0787 -0.0497 -0.2297
  693PSPI    C2 9352  18.104   4.840   5.533  0.0269  0.2143 -0.2772
  693PSPI    C3 9353  18.021   5.205   5.675  0.1589  0.1349  0.0113
  693PSPI   PO4 9354  18.216   4.832   6.069 -0.0581 -0.1443  0.0428
  693PSPI   GL1 9355  18.216   4.866   6.470 -0.1208  0.0595  0.2020
  693PSPI   GL2 9356  18.500   4.971   6.541  0.2057 -0.1376 -0.0686
  693PSPI   C1A 9357  18.040   4.710   6.799  0.1123 -0.0094  0.3817
  693PSPI   C2A 9358  18.113   4.539   7.208 -0.2391  0.1879 -0.1621
  693PSPI   C3A 9359  18.090   4.183   7.563 -0.2061  0.0098 -0.0973
  693PSPI   C4A 9360  18.026   4.272   7.966 -0.0143  0.1511  0.0931
  693PSPI   C1B 9361  18.487   4.903   6.976  0.0469 -0.1447 -0.1865
  693PSPI   C2B 9362  18.561   4.886   7.490 -0.1745  0.2664  0.2282
  693PSPI   C3B 9363  18.471   4.889   7.914  0.1174  0.1335 -0.0169
  693PSPI   C4B 9364  18.695   4.834   8.244 -0.3073  0.0533 -0.0455
  694PSPI    C1 9365   0.883   0.860   6.124  0.0962 -0.0399  0.2082
  694PSPI    C2 9366   1.269   0.865   6.020  0.0533  0.0225  0.0491
  694PSPI    C3 9367   1.023   0.588   5.868 -0.0281  0.1669 -0.0853
  694PSPI   PO4 9368   0.859   0.925   6.349 -0.1157 -0.0652 -0.1885
  694PSPI   GL1 9369   0.832   0.717   6.643  0.1469  0.1902 -0.0102
  694PSPI   GL2 9370   1.087   0.851   6.827 -0.2537 -0.1928  0.0515
  694PSPI   C1A 9371   0.672   0.577   7.125 -0.2477 -0.2023 -0.1655
  694PSPI   C2A 9372   0.740   0.432   7.536 -0.0410 -0.3121 -0.0535
  694PSPI   C3A 9373   0.686   0.372   8.071  0.1661 -0.2148 -0.1722
  694PSPI   C4A 9374   1.071   0.284   8.351 -0.3449  0.0589  0.0416
  694PSPI   C1B 9375   1.411   0.660   6.925 -0.1509  0.0809 -0.2792
  694PSPI   C2B 9376   1.563   0.566   7.378  0.0197 -0.1015  0.2847
  694PSPI   C3B 9377   1.590   0.714   7.808 -0.2481  0.0637  0.0056
  694PSPI   C4B 9378   1.947   0.954   8.034 -0.0080 -0.1019 -0.0585
  695POPI    C1 9379  12.550   9.317   5.826  0.2994  0.2012  0.1373
  695POPI    C2 9380  12.848   9.171   5.603 -0.0586 -0.2598 -0.0572
  695POPI    C3 9381  12.623   9.471   5.464  0.1272 -0.1069 -0.0329
  695POPI   PO4 9382  12.401   9.071   5.942 -0.0632 -0.1252  0.0875
  695POPI   GL1 9383  12.394   8.916   6.426 -0.1953 -0.1356  0.0856
  695POPI   GL2 9384  12.645   8.847   6.332 -0.0756  0.3057 -0.1371
  695POPI   C1A 9385  12.301   8.981   6.849  0.1177  0.0256  0.1930
  695POPI   D2A 9386  12.386   9.074   7.229  0.1808  0.1650 -0.0336
  695POPI   C3A 9387  12.153   8.951   7.550 -0.0154  0.2092  0.0869
  695POPI   C4A 9388  11.894   8.611   7.804  0.0870  0.0820 -0.2339
  695POPI   C1B 9389  12.904   8.850   6.694 -0.1763 -0.1193 -0.0907
  695POPI   C2B 9390  12.737   8.816   7.064  0.0299  0.0576 -0.0199
  695POPI   C3B 9391  12.572   8.660   7.403  0.0124  0.5191  0.0139
  695POPI   C4B 9392  12.556   8.736   7.940 -0.0988 -0.2797  0.2367
  696POPI    C1 9393  16.563  15.018   5.800  0.0307  0.2014  0.0561
  696POPI    C2 9394  16.815  15.277   5.971  0.0292  0.1928  0.0715
  696POPI    C3 9395  16.936  14.906   5.887  0.0121  0.1789  0.1076
  696POPI   PO4 9396  16.363  14.978   5.919 -0.0710 -0.2383  0.0208
  696POPI   GL1 9397  16.442  15.142   6.336 -0.0089  0.1754  0.2205
  696POPI   GL2 9398  16.250  14.848   6.410 -0.1116  0.1250 -0.0925
  696POPI   C1A 9399  16.646  15.463   6.481 -0.3365 -0.1829  0.2033
  696POPI   D2A 9400  16.967  15.459   6.497  0.0017 -0.4095  0.0305
  696POPI   C3A 9401  17.161  15.409   6.804 -0.0283  0.1393 -0.1235
  696POPI   C4A 9402  17.260  15.192   7.188  0.1675  0.2584 -0.0414
  696POPI   C1B 9403  16.155  14.936   6.845  0.0101 -0.1853  0.1137
  696POPI   C2B 9404  16.027  14.782   7.300 -0.3015  0.2912 -0.0771
  696POPI   C3B 9405  16.001  14.794   7.662  0.0546 -0.0770  0.3076
  696POPI   C4B 9406  16.094  14.954   8.056  0.1269 -0.3001  0.1353
  697POPI    C1 9407   2.519   0.133   5.562 -0.0512  0.2183  0.0460
  697POPI    C2 9408   2.742   0.428   5.716  0.2474 -0.0716  0.1813
  697POPI    C3 9409   2.583   0.467   5.351  0.4345  0.1824  0.1241
  697POPI   PO4 9410   2.352   0.086   5.825 -0.2186  0.1081 -0.0910
  697POPI   GL1 9411   2.364   0.342   6.177 -0.0359 -0.1381 -0.0483
  697POPI   GL2 9412   2.470   0.625   6.434  0.1183 -0.2137 -0.0131
  697POPI   C1A 9413   2.205   0.164   6.627  0.2591 -0.3260 -0.1434
  697POPI   D2A 9414   2.003  -0.234   6.688  0.1370 -0.3354 -0.1660
  697POPI   C3A 9415   2.095  -0.186   7.138  0.2655 -0.0972  0.1480
  697POPI   C4A 9416   2.063  -0.242   7.588 -0.0271  0.0660  0.0103
  697POPI   C1B 9417   2.380   0.693   6.867  0.0126 -0.1560  0.2520
  697POPI   C2B 9418   2.326   0.667   7.361  0.2286  0.0899  0.0563
  697POPI   C3B 9419   2.186   0.471   7.714 -0.2240 -0.0491 -0.0836
  697POPI   C4B 9420   2.039   0.426   8.064  0.2438 -0.2659 -0.2241
  698POPI    C1 9421  16.475   0.889   5.867  0.1103 -0.0790 -0.1178
  698POPI    C2 9422  16.457   0.640   5.555 -0.2841  0.3305 -0.4351
  698POPI    C3 9423  16.222   0.580   5.873 -0.0093  0.0142 -0.2854
  698POPI   PO4 9424  16.705   0.910   5.982  0.0191  0.0222 -0.0203
  698POPI   GL1 9425  16.888   1.105   6.369 -0.1270 -0.0538  0.2289
  698POPI   GL2 9426  17.182   0.923   6.229 -0.1607 -0.1564 -0.1189
  698POPI   C1A 9427  16.933   1.091   6.740 -0.1344  0.1842  0.1937
  698POPI   D2A 9428  16.878   1.133   7.202 -0.0124  0.1049 -0.0483
  698POPI   C3A 9429  17.217   0.935   7.423  0.2679 -0.2052  0.0160
  698POPI   C4A 9430  17.435   0.887   7.806  0.1165  0.2469 -0.0712
  698POPI   C1B 9431  17.395   0.894   6.762  0.4133 -0.2100  0.3429
  698POPI   C2B 9432  17.638   0.819   7.053 -0.0542 -0.1248  0.2461
  698POPI   C3B 9433  17.799   1.001   7.437  0.1930 -0.0637 -0.0546
  698POPI   C4B 9434  18.054   0.868   7.783 -0.1301  0.3996 -0.0145
  699POPI    C1 9435  17.489  15.946   5.864 -0.2686  0.0851  0.0615
  699POPI    C2 9436  17.486  15.625   5.625  0.0341  0.1088  0.0223
  699POPI    C3 9437  17.496  15.993   5.467 -0.0133  0.1306  0.0699
  699POPI   PO4 9438  17.261  15.944   5.988 -0.0347  0.3644 -0.1810
  699POPI   GL1 9439  17.060  15.979   6.373 -0.4238  0.1843  0.2077
  699POPI   GL2 9440  16.740  16.160   6.394  0.0302 -0.1633  0.0415
  699POPI   C1A 9441  17.337  15.912   6.762 -0.0845  0.1974 -0.0564
  699POPI   D2A 9442  17.540  15.925   7.257  0.1743  0.0138 -0.0860
  699POPI   C3A 9443  17.547  15.558   7.541 -0.2801  0.0657 -0.0696
  699POPI   C4A 9444  17.455  15.369   8.026  0.1249  0.2004  0.0853
  699POPI   C1B 9445  16.805  15.873   6.765  0.2440 -0.1085  0.1308
  699POPI   C2B 9446  17.105  15.740   7.228  0.3341 -0.0854 -0.0895
  699POPI   C3B 9447  17.086  15.612   7.729 -0.1142 -0.0967 -0.0176
  699POPI   C4B 9448  17.193  15.847   8.137 -0.0354  0.1592  0.3666
  700POPI    C1 9449   9.957  14.141   6.210 -0.1809  0.3057  0.1872
  700POPI    C2 9450   9.623  14.323   6.087 -0.1942  0.0465 -0.1789
  700POPI    C3 9451   9.979  14.456   5.964 -0.1912 -0.0188 -0.2416
  700POPI   PO4 9452   9.882  13.817   6.214  0.2017  0.0792 -0.0720
  700POPI   GL1 9453   9.897  13.603   6.549  0.0666 -0.0037  0.3444
  700POPI   GL2 9454   9.834  13.931   6.719 -0.4588  0.2320 -0.1233
  700POPI   C1A 9455   9.834  13.460   6.902  0.0680  0.0086  0.1482
  700POPI   D2A 9456   9.840  13.359   7.257  0.3496 -0.1274  0.0234
  700POPI   C3A 9457   9.665  13.675   7.519 -0.0909  0.0292  0.0081
  700POPI   C4A 9458   9.285  13.803   7.688  0.0757 -0.0373  0.1265
  700POPI   C1B 9459   9.657  13.880   7.027  0.2735 -0.0617  0.1984
  700POPI   C2B 9460   9.249  13.826   7.171  0.0346 -0.1564  0.0078
  700POPI   C3B 9461   8.892  14.028   7.487  0.3849 -0.2816 -0.0513
  700POPI   C4B 9462   8.786  13.971   7.932  0.3508  0.1274  0.1336
  701POPI    C1 9463  14.931   5.454   5.995  0.0106 -0.1572  0.1570
  701POPI    C2 9464  15.319   5.538   6.043  0.0203  0.0477 -0.2383
  701POPI    C3 9465  15.197   5.158   6.033  0.2371 -0.0218 -0.2982
  701POPI   PO4 9466  14.776   5.507   6.219  0.2588 -0.2282 -0.1082
  701POPI   GL1 9467  14.641   5.387   6.606  0.0049 -0.2222  0.1523
  701POPI   GL2 9468  14.504   5.085   6.680  0.4580  0.3080  0.1366
  701POPI   C1A 9469  14.876   5.464   6.930  0.0568  0.0187  0.0232
  701POPI   D2A 9470  14.930   5.830   7.163 -0.2799 -0.1699 -0.1052
  701POPI   C3A 9471  15.114   6.223   7.373  0.1295  0.0931  0.0353
  701POPI   C4A 9472  15.126   6.406   7.678 -0.0782  0.1091  0.1528
  701POPI   C1B 9473  14.818   4.923   6.917 -0.2623 -0.1245 -0.3205
  701POPI   C2B 9474  14.968   4.972   7.355  0.1351  0.1772 -0.0600
  701POPI   C3B 9475  14.936   4.924   7.729 -0.2297 -0.1136 -0.0386
  701POPI   C4B 9476  15.058   4.951   8.197 -0.1390 -0.0737  0.3174
  702POPI    C1 9477  14.801  12.329   5.734  0.1159  0.1806 -0.0093
  702POPI    C2 9478  15.022  12.134   6.005 -0.0366  0.1022  0.0601
  702POPI    C3 9479  15.155  12.477   5.847  0.0731  0.1256  0.2012
  702POPI   PO4 9480  14.525  12.334   5.912 -0.1315 -0.0795 -0.0832
  702POPI   GL1 9481  14.446  12.454   6.339 -0.0707 -0.2529  0.3452
  702POPI   GL2 9482  14.485  12.845   6.411  0.1818  0.1888  0.2375
  702POPI   C1A 9483  14.654  12.583   6.741  0.4074  0.4737 -0.2351
  702POPI   D2A 9484  14.705  12.845   7.024 -0.0766 -0.1020 -0.1760
  702POPI   C3A 9485  14.520  12.925   7.500  0.1271  0.0726 -0.1715
  702POPI   C4A 9486  14.403  12.796   7.893  0.1121 -0.0518 -0.2267
  702POPI   C1B 9487  14.394  13.133   6.736 -0.1744 -0.2282 -0.0693
  702POPI   C2B 9488  14.471  13.388   7.134 -0.2717 -0.1700  0.2558
  702POPI   C3B 9489  14.480  13.418   7.627 -0.2300 -0.1003 -0.0385
  702POPI   C4B 9490  14.625  13.221   8.065 -0.1708  0.0616 -0.1276
  703POPI    C1 9491   8.841   7.493   5.571  0.0114 -0.1508 -0.2908
  703POPI    C2 9492   9.133   7.397   5.827 -0.2414  0.0629  0.0883
  703POPI    C3 9493   9.086   7.188   5.489  0.1854 -0.1352  0.1451
  703POPI   PO4 9494   8.760   7.712   5.761  0.1943  0.3081  0.3129
  703POPI   GL1 9495   8.683   7.586   6.166  0.1805  0.0792 -0.1094
  703POPI   GL2 9496   8.337   7.335   6.133  0.0577 -0.0687 -0.1874
  703POPI   C1A 9497   8.767   7.675   6.648  0.0565 -0.3162 -0.0628
  703POPI   D2A 9498   8.629   7.734   7.121 -0.1631 -0.4675  0.1985
  703POPI   C3A 9499   8.271   8.028   7.226  0.1054  0.0757 -0.0754
  703POPI   C4A 9500   8.050   8.422   7.136 -0.0478  0.0714  0.1121
  703POPI   C1B 9501   8.348   7.382   6.463  0.0205 -0.1031  0.1045
  703POPI   C2B 9502   8.243   7.635   6.788 -0.0942  0.0552 -0.0672
  703POPI   C3B 9503   8.033   7.619   7.251 -0.1466 -0.0079  0.0480
  703POPI   C4B 9504   8.214   7.693   7.629 -0.4784  0.2026  0.3209
  704POPI    C1 9505   9.157   8.935   5.357  0.0881  0.0178  0.0985
  704POPI    C2 9506   8.763   8.987   5.308  0.0954  0.0038  0.0245
  704POPI    C3 9507   8.919   8.618   5.306  0.1166  0.0129 -0.0043
  704POPI   PO4 9508   9.132   9.199   5.584  0.0758  0.1002  0.0203
  704POPI   GL1 9509   8.971   9.275   6.016 -0.2830 -0.1776 -0.0480
  704POPI   GL2 9510   9.130   9.495   6.152  0.0145 -0.0819 -0.2210
  704POPI   C1A 9511   8.954   9.087   6.477  0.1784  0.1803  0.4037
  704POPI   D2A 9512   8.729   8.970   6.811 -0.0663  0.0094  0.0975
  704POPI   C3A 9513   8.852   8.942   7.264 -0.2737  0.0178  0.1627
  704POPI   C4A 9514   9.155   8.872   7.570  0.2662  0.0762 -0.3908
  704POPI   C1B 9515   9.391   9.387   6.473 -0.1587  0.0620 -0.0644
  704POPI   C2B 9516   9.489   9.589   6.894  0.1793 -0.3108 -0.2285
  704POPI   C3B 9517   9.434   9.753   7.327  0.0037 -0.1771 -0.0797
  704POPI   C4B 9518   9.599   9.877   7.754  0.0077 -0.0686 -0.2009
  705POPI    C1 9519  17.091   6.054   5.886  0.2254 -0.0139 -0.1501
  705POPI    C2 9520  17.165   6.393   5.687  0.0679  0.1540  0.0717
  705POPI    C3 9521  16.788   6.286   5.767  0.1233  0.0056  0.1392
  705POPI   PO4 9522  17.264   6.163   6.172 -0.1770  0.0521  0.1161
  705POPI   GL1 9523  17.119   6.200   6.559 -0.1124 -0.2099  0.0669
  705POPI   GL2 9524  17.146   5.842   6.749 -0.1282 -0.1040  0.2030
  705POPI   C1A 9525  17.117   6.371   6.963  0.2210  0.0978  0.2645
  705POPI   D2A 9526  17.187   6.253   7.361 -0.2378 -0.2475  0.0961
  705POPI   C3A 9527  17.121   6.348   7.779  0.0584  0.0331 -0.1653
  705POPI   C4A 9528  17.283   6.639   8.098 -0.1276 -0.1080 -0.1002
  705POPI   C1B 9529  16.948   5.889   7.107 -0.2382  0.1545 -0.2170
  705POPI   C2B 9530  16.693   5.872   7.348  0.2163  0.1168  0.0850
  705POPI   C3B 9531  16.506   5.715   7.656  0.0639 -0.0185  0.1252
  705POPI   C4B 9532  16.404   5.266   7.831 -0.1168  0.3750 -0.1702
  706POPI    C1 9533  11.415  15.764   6.110  0.0840  0.1828 -0.0994
  706POPI    C2 9534  11.122  15.764   5.837 -0.0733  0.1330  0.0672
  706POPI    C3 9535  11.313  15.423   5.925  0.0196  0.1608 -0.0237
  706POPI   PO4 9536  11.568  15.966   6.073 -0.0422 -0.0149  0.2950
  706POPI   GL1 9537  11.729  16.270   6.415  0.1105  0.1754 -0.0353
  706POPI   GL2 9538  12.021  16.253   6.551  0.2675 -0.0493 -0.0222
  706POPI   C1A 9539  11.415  16.157   6.687  0.3520 -0.2000 -0.1450
  706POPI   D2A 9540  11.102  15.842   6.667  0.4580  0.1310 -0.1624
  706POPI   C3A 9541  11.323  15.388   6.711  0.6377 -0.0026  0.1678
  706POPI   C4A 9542  11.666  15.286   6.959 -0.3396  0.1601 -0.0613
  706POPI   C1B 9543  11.808  16.307   6.959 -0.0561 -0.0370  0.2372
  706POPI   C2B 9544  11.732  16.197   7.308  0.0248  0.1029  0.2518
  706POPI   C3B 9545  11.507  15.983   7.742  0.2729  0.0202  0.0456
  706POPI   C4B 9546  11.204  15.772   7.967 -0.1569  0.2347 -0.0142
  707POPI    C1 9547   1.850  14.429   6.111 -0.1957  0.1182 -0.0228
  707POPI    C2 9548   1.853  14.160   5.814 -0.1906  0.1882 -0.0864
  707POPI    C3 9549   2.196  14.328   5.936 -0.1951  0.1741 -0.0540
  707POPI   PO4 9550   1.745  14.317   6.332  0.0610  0.0831  0.2144
  707POPI   GL1 9551   1.608  14.557   6.665  0.3538  0.0331  0.0316
  707POPI   GL2 9552   1.899  14.722   6.795  0.1705 -0.0427 -0.0530
  707POPI   C1A 9553   1.706  14.422   7.104 -0.0205 -0.1167 -0.0660
  707POPI   D2A 9554   1.692  14.418   7.523 -0.0083  0.1003  0.1177
  707POPI   C3A 9555   1.426  14.564   7.804 -0.1400  0.2425  0.1072
  707POPI   C4A 9556   1.297  14.639   8.237  0.4651  0.0666 -0.0854
  707POPI   C1B 9557   2.001  14.770   7.203  0.0926 -0.1438  0.1391
  707POPI   C2B 9558   2.165  14.757   7.615  0.0829 -0.1467  0.0808
  707POPI   C3B 9559   2.390  14.937   7.907  0.0119  0.1179  0.0314
  707POPI   C4B 9560   2.547  15.158   8.247 -0.0963 -0.1464 -0.0283
  708POPI    C1 9561  11.598  15.056   5.703 -0.2203  0.1501 -0.0557
  708POPI    C2 9562  11.699  14.744   5.474  0.0361  0.2144 -0.0336
  708POPI    C3 9563  11.809  15.113   5.368  0.0441  0.2585  0.1256
  708POPI   PO4 9564  11.704  15.047   5.938 -0.1955  0.0357 -0.1443
  708POPI   GL1 9565  11.724  15.316   6.299 -0.0812 -0.2396  0.1975
  708POPI   GL2 9566  11.675  15.006   6.546 -0.0212 -0.3232  0.1086
  708POPI   C1A 9567  11.840  15.592   6.650 -0.0320  0.2489 -0.0997
  708POPI   D2A 9568  11.715  15.828   6.984  0.3812  0.2919 -0.2508
  708POPI   C3A 9569  11.376  15.868   7.139 -0.2601 -0.0191 -0.2595
  708POPI   C4A 9570  11.130  15.868   7.487  0.2745 -0.1645  0.0237
  708POPI   C1B 9571  11.554  14.764   6.902 -0.0998  0.1149 -0.0552
  708POPI   C2B 9572  11.476  14.634   7.342 -0.1671  0.1424  0.1384
  708POPI   C3B 9573  11.367  14.621   7.842  0.3605  0.2642 -0.0820
  708POPI   C4B 9574  11.424  14.410   8.235  0.2883 -0.1895 -0.3608
  709POPI    C1 9575   9.914   8.657   5.781 -0.1801 -0.0831 -0.0837
  709POPI    C2 9576   9.945   8.868   5.443 -0.0179 -0.2653 -0.1843
  709POPI    C3 9577  10.191   8.560   5.510  0.3244  0.1069  0.3469
  709POPI   PO4 9578   9.938   8.753   6.018  0.0517  0.1030  0.0443
  709POPI   GL1 9579   9.738   9.008   6.348 -0.0291 -0.3013 -0.1160
  709POPI   GL2 9580   9.901   9.308   6.314  0.2019 -0.2349  0.3471
  709POPI   C1A 9581   9.523   9.032   6.767 -0.0749 -0.2530 -0.1946
  709POPI   D2A 9582   9.151   9.194   6.896 -0.1280  0.0130 -0.1296
  709POPI   C3A 9583   9.280   9.306   7.252  0.0015  0.3606 -0.1619
  709POPI   C4A 9584   9.662   9.351   7.555 -0.0617  0.1743 -0.0345
  709POPI   C1B 9585   9.955   9.616   6.669 -0.1526 -0.1658  0.2322
  709POPI   C2B 9586   9.844   9.952   6.779  0.0731  0.1345 -0.1234
  709POPI   C3B 9587   9.801  10.323   6.770  0.3313  0.1793  0.1801
  709POPI   C4B 9588   9.890  10.488   6.397  0.0755  0.1257 -0.1328
  710POPI    C1 9589   8.984  12.625   5.704 -0.1587 -0.0546  0.0325
  710POPI    C2 9590   9.041  12.712   5.317 -0.1886  0.1470  0.0722
  710POPI    C3 9591   8.953  12.337   5.427 -0.1282  0.0780 -0.1103
  710POPI   PO4 9592   9.130  12.656   5.900 -0.3570 -0.3281 -0.1500
  710POPI   GL1 9593   8.853  12.643   6.207 -0.0927 -0.0543 -0.3608
  710POPI   GL2 9594   8.637  12.744   6.409  0.1914  0.4391  0.0532
  710POPI   C1A 9595   9.169  12.756   6.580 -0.1755 -0.0263  0.2516
  710POPI   D2A 9596   9.283  12.393   6.946  0.1414 -0.1585 -0.0295
  710POPI   C3A 9597   9.466  12.581   7.360 -0.0356  0.3232  0.2078
  710POPI   C4A 9598   9.795  12.410   7.673  0.1049 -0.1443  0.0450
  710POPI   C1B 9599   8.803  12.492   6.822 -0.0669  0.0816  0.0999
  710POPI   C2B 9600   8.586  12.316   7.156  0.2087 -0.2047 -0.0350
  710POPI   C3B 9601   8.344  12.177   7.483  0.1938  0.1333  0.1619
  710POPI   C4B 9602   8.236  12.264   7.842 -0.2139  0.2522 -0.3002
  711POPI    C1 9603  13.497  13.060   6.316 -0.1562 -0.0672  0.1764
  711POPI    C2 9604  13.624  12.683   6.359  0.1337  0.0220  0.1311
  711POPI    C3 9605  13.632  12.856   5.999  0.0840  0.1005  0.1675
  711POPI   PO4 9606  13.207  13.098   6.386  0.2026  0.4882  0.0033
  711POPI   GL1 9607  13.061  13.353   6.601  0.1682  0.1180  0.0302
  711POPI   GL2 9608  12.958  13.693   6.606 -0.1830  0.1855  0.3665
  711POPI   C1A 9609  13.001  13.422   7.121  0.1743 -0.3707  0.1037
  711POPI   D2A 9610  13.055  13.412   7.584 -0.1445  0.1749 -0.0931
  711POPI   C3A 9611  13.401  13.679   7.794 -0.3638  0.0654  0.0078
  711POPI   C4A 9612  13.474  13.874   8.162  0.2251  0.3450 -0.2270
  711POPI   C1B 9613  13.185  13.812   6.945 -0.0108  0.1902 -0.1449
  711POPI   C2B 9614  13.319  13.929   7.356  0.2140 -0.1360  0.1725
  711POPI   C3B 9615  13.046  14.088   7.750  0.2609  0.0762  0.1164
  711POPI   C4B 9616  12.730  14.284   7.936 -0.1440  0.2282  0.0818
  712POPI    C1 9617   0.630  14.622   5.832 -0.1378 -0.0844  0.0903
  712POPI    C2 9618   0.777  14.740   5.479 -0.2026  0.0678  0.1133
  712POPI    C3 9619   0.940  14.429   5.670 -0.0083  0.1399  0.0667
  712POPI   PO4 9620   0.572  14.826   5.967 -0.2873  0.0738 -0.1184
  712POPI   GL1 9621   0.513  14.820   6.424  0.4262  0.1393 -0.0453
  712POPI   GL2 9622   0.750  15.008   6.421  0.0660  0.0593 -0.1144
  712POPI   C1A 9623   0.257  14.884   6.774 -0.0284  0.2328  0.3880
  712POPI   D2A 9624   0.290  14.904   7.150 -0.0884  0.2120 -0.1325
  712POPI   C3A 9625   0.349  14.752   7.574 -0.0571  0.3515  0.0989
  712POPI   C4A 9626   0.569  14.990   7.951  0.1366 -0.1388 -0.1786
  712POPI   C1B 9627   0.761  15.080   6.770  0.2073 -0.2318 -0.0450
  712POPI   C2B 9628   0.896  14.966   7.160  0.1149 -0.1569 -0.0058
  712POPI   C3B 9629   1.017  15.036   7.612 -0.2193 -0.1265  0.0987
  712POPI   C4B 9630   1.150  15.138   7.989  0.4009  0.0480  0.0756
  713POPI    C1 9631   0.547   2.992   5.967 -0.0685  0.0466 -0.0667
  713POPI    C2 9632   0.571   3.063   5.574  0.0728 -0.0766 -0.0815
  713POPI    C3 9633   0.832   2.815   5.748  0.1324  0.1279  0.1255
  713POPI   PO4 9634   0.589   3.251   6.079  0.0108 -0.2556 -0.2477
  713POPI   GL1 9635   0.601   3.280   6.413 -0.0488 -0.1367  0.0415
  713POPI   GL2 9636   0.436   3.601   6.379  0.1086  0.3380 -0.3824
  713POPI   C1A 9637   0.821   3.492   6.712  0.0637 -0.2437 -0.0143
  713POPI   D2A 9638   1.150   3.555   6.922 -0.0596  0.2915 -0.1885
  713POPI   C3A 9639   1.167   3.294   7.207 -0.0771  0.1630 -0.2082
  713POPI   C4A 9640   1.210   3.122   7.603 -0.2251 -0.1737  0.2583
  713POPI   C1B 9641   0.215   3.506   6.852  0.0241 -0.2083  0.0082
  713POPI   C2B 9642  -0.077   3.560   7.192  0.2514 -0.1330 -0.0761
  713POPI   C3B 9643  -0.152   3.581   7.590 -0.2976  0.0823 -0.1048
  713POPI   C4B 9644  -0.326   3.850   7.859  0.1611  0.0597 -0.1521
  714POPI    C1 9645   5.432   2.463   6.080  0.0233  0.0071  0.2311
  714POPI    C2 9646   5.167   2.550   5.794  0.0010 -0.2205  0.1803
  714POPI    C3 9647   5.292   2.836   6.045  0.0219 -0.0185 -0.0559
  714POPI   PO4 9648   5.285   2.273   6.263 -0.2803  0.0068  0.0266
  714POPI   GL1 9649   5.054   1.886   6.437 -0.0896 -0.0148 -0.0328
  714POPI   GL2 9650   5.000   1.575   6.631  0.1161  0.1666  0.2495
  714POPI   C1A 9651   4.664   2.005   6.670 -0.2192 -0.1264 -0.2173
  714POPI   D2A 9652   4.662   2.172   7.070  0.0101  0.1295 -0.0220
  714POPI   C3A 9653   4.366   2.178   7.403  0.2502  0.0165 -0.2376
  714POPI   C4A 9654   4.151   2.133   7.635  0.1015 -0.0670  0.1072
  714POPI   C1B 9655   5.083   1.870   6.921 -0.3191 -0.0326  0.0964
  714POPI   C2B 9656   5.033   1.983   7.319 -0.0810 -0.0628 -0.0553
  714POPI   C3B 9657   5.058   2.145   7.711  0.1494 -0.0365  0.0929
  714POPI   C4B 9658   5.108   2.111   8.163  0.2238 -0.0928 -0.1626
  715POPI    C1 9659  16.295  11.244   6.367  0.0527 -0.1783  0.0432
  715POPI    C2 9660  16.219  11.383   6.000 -0.1279 -0.4232 -0.0147
  715POPI    C3 9661  16.460  11.588   6.245 -0.3881 -0.0082 -0.0942
  715POPI   PO4 9662  16.395  11.042   6.332 -0.2319  0.0089  0.2244
  715POPI   GL1 9663  16.357  10.701   6.485  0.0554  0.2669  0.3152
  715POPI   GL2 9664  16.659  10.541   6.431  0.1756 -0.1742  0.1050
  715POPI   C1A 9665  16.626  10.654   6.961 -0.0205  0.0396 -0.0978
  715POPI   D2A 9666  16.956  10.408   7.182 -0.0887 -0.1044  0.1117
  715POPI   C3A 9667  16.795  10.347   7.579  0.2177 -0.0441 -0.0528
  715POPI   C4A 9668  16.775  10.279   7.968 -0.0040 -0.1449 -0.0443
  715POPI   C1B 9669  16.966  10.420   6.685 -0.0531  0.1029 -0.0150
  715POPI   C2B 9670  17.267  10.312   6.753 -0.2501 -0.2200  0.1655
  715POPI   C3B 9671  17.500  10.298   7.092  0.2135  0.2949 -0.3263
  715POPI   C4B 9672  17.672  10.553   7.452  0.0363 -0.0759  0.0908
  716POPI    C1 9673   0.398  11.314   5.812  0.1012 -0.0377  0.0107
  716POPI    C2 9674   0.470  11.615   5.558 -0.2059 -0.0403 -0.0839
  716POPI    C3 9675   0.378  11.252   5.417  0.0785 -0.1598  0.0306
  716POPI   PO4 9676   0.300  11.427   6.039 -0.3234 -0.1857  0.2050
  716POPI   GL1 9677   0.468  11.336   6.314 -0.0474  0.0230 -0.3780
  716POPI   GL2 9678   0.131  11.044   6.346 -0.1913 -0.0990 -0.0192
  716POPI   C1A 9679   0.699  11.601   6.716 -0.0579  0.1258  0.0181
  716POPI   D2A 9680   0.774  11.722   7.057 -0.1443  0.1314 -0.0018
  716POPI   C3A 9681   0.564  11.532   7.341  0.1137 -0.2579 -0.0242
  716POPI   C4A 9682   0.222  11.443   7.631 -0.0312  0.0592 -0.1223
  716POPI   C1B 9683   0.348  11.155   6.775 -0.1269 -0.2597  0.1034
  716POPI   C2B 9684   0.611  11.117   7.109 -0.2309 -0.1319  0.1401
  716POPI   C3B 9685   0.388  10.887   7.455 -0.2742 -0.2566  0.2141
  716POPI   C4B 9686   0.093  10.627   7.440 -0.3284  0.0233 -0.0491
  717POPI    C1 9687  10.366  14.791   5.849  0.1480  0.0056  0.1843
  717POPI    C2 9688  10.151  14.714   5.520 -0.2757  0.1796  0.4125
  717POPI    C3 9689  10.397  14.435   5.669  0.0601  0.1621 -0.1473
  717POPI   PO4 9690  10.210  14.882   6.032  0.0394  0.1332 -0.1814
  717POPI   GL1 9691  10.309  15.032   6.465  0.1865 -0.0468  0.0634
  717POPI   GL2 9692   9.938  14.955   6.633 -0.4120 -0.0725  0.0177
  717POPI   C1A 9693  10.300  15.268   6.815  0.2588  0.2370 -0.2392
  717POPI   D2A 9694  10.214  15.613   7.097  0.0506 -0.3083  0.2585
  717POPI   C3A 9695  10.314  15.627   7.527 -0.1430 -0.2385 -0.0339
  717POPI   C4A 9696  10.429  15.280   7.863 -0.0912  0.2816 -0.3252
  717POPI   C1B 9697  10.030  14.765   7.010  0.2683 -0.0505 -0.0281
  717POPI   C2B 9698   9.739  14.723   7.327  0.1421  0.1591 -0.1669
  717POPI   C3B 9699   9.677  14.562   7.643 -0.0532  0.0196 -0.3756
  717POPI   C4B 9700   9.481  14.639   8.091  0.0912  0.0692 -0.0841
  718POPI    C1 9701   5.826  17.011   6.203 -0.0908 -0.0322 -0.0222
  718POPI    C2 9702   6.157  17.209   6.096 -0.0297 -0.0758  0.0853
  718POPI    C3 9703   5.861  17.159   5.833 -0.0530  0.1736  0.0623
  718POPI   PO4 9704   5.876  16.918   6.454 -0.0416  0.1678  0.1507
  718POPI   GL1 9705   6.148  16.934   6.828 -0.2096  0.1231 -0.0115
  718POPI   GL2 9706   6.025  17.190   6.952 -0.0609  0.1807 -0.2776
  718POPI   C1A 9707   6.134  16.639   7.163  0.0230 -0.2669 -0.2945
  718POPI   D2A 9708   5.983  16.563   7.497  0.2423 -0.0931  0.2170
  718POPI   C3A 9709   6.239  16.617   7.812 -0.2989  0.4199  0.2182
  718POPI   C4A 9710   6.378  16.784   8.207  0.3743 -0.1461  0.1085
  718POPI   C1B 9711   6.075  17.076   7.374  0.0018  0.2223  0.0803
  718POPI   C2B 9712   6.168  17.144   7.862  0.1857 -0.0550 -0.0806
  718POPI   C3B 9713   6.076  17.294   8.327 -0.0954 -0.0705 -0.1827
  718POPI   C4B 9714   6.111  17.464   8.804  0.0508  0.1171 -0.0704
  719POPI    C1 9715  17.484   5.626   5.984 -0.0117 -0.2152  0.1485
  719POPI    C2 9716  17.682   5.282   6.028  0.2257 -0.0846  0.1171
  719POPI    C3 9717  17.520   5.375   5.675  0.4220 -0.0290  0.0401
  719POPI   PO4 9718  17.543   5.741   6.294  0.0228  0.2837  0.0738
  719POPI   GL1 9719  17.645   5.758   6.753 -0.3096 -0.2965 -0.0988
  719POPI   GL2 9720  17.647   6.091   6.671  0.4033  0.2120  0.5691
  719POPI   C1A 9721  17.866   5.746   7.167 -0.0415 -0.2356  0.2078
  719POPI   D2A 9722  17.927   5.578   7.552  0.0267  0.2447 -0.0328
  719POPI   C3A 9723  18.150   5.284   7.898 -0.0827 -0.0169 -0.1613
  719POPI   C4A 9724  18.409   5.223   8.232  0.3990 -0.2087 -0.0848
  719POPI   C1B 9725  17.634   6.138   7.090 -0.0742  0.2047  0.1213
  719POPI   C2B 9726  17.744   6.198   7.552  0.2972 -0.0706 -0.2077
  719POPI   C3B 9727  17.491   6.168   8.000  0.1632 -0.2112 -0.2597
  719POPI   C4B 9728  17.439   6.223   8.448 -0.2717  0.4094  0.3705
  720POPI    C1 9729  15.788   9.306   5.770  0.2551 -0.0529  0.0951
  720POPI    C2 9730  15.687   9.692   5.794 -0.0324 -0.1335  0.2244
  720POPI    C3 9731  16.055   9.589   5.678  0.0160  0.1763  0.0918
  720POPI   PO4 9732  15.714   9.178   6.061 -0.0964  0.2340 -0.0339
  720POPI   GL1 9733  15.499   9.272   6.503  0.0290  0.3297  0.2139
  720POPI   GL2 9734  15.326   9.027   6.606  0.2261 -0.0159  0.0773
  720POPI   C1A 9735  15.782   9.387   6.861 -0.1017  0.2290  0.2536
  720POPI   D2A 9736  16.157   9.408   6.994  0.0235  0.2824 -0.1004
  720POPI   C3A 9737  16.416   9.232   6.656  0.1843  0.0539 -0.0931
  720POPI   C4A 9738  16.483   8.759   6.623 -0.0730 -0.3086  0.0641
  720POPI   C1B 9739  15.488   8.968   7.003  0.1540 -0.1475  0.0252
  720POPI   C2B 9740  15.672   9.071   7.385  0.2041 -0.4154 -0.4200
  720POPI   C3B 9741  15.790   9.016   7.794  0.2439  0.2208 -0.0106
  720POPI   C4B 9742  15.916   9.035   8.208 -0.3380 -0.0800 -0.2263
  721POPI    C1 9743   6.007   1.288   6.214 -0.0330  0.2738 -0.0217
  721POPI    C2 9744   5.854   0.941   6.338  0.1586  0.1673 -0.0790
  721POPI    C3 9745   5.722   1.108   5.999  0.0592  0.1564 -0.0463
  721POPI   PO4 9746   6.012   1.383   6.536  0.3204  0.0154  0.0580
  721POPI   GL1 9747   5.792   1.635   6.800 -0.0742  0.1418 -0.1379
  721POPI   GL2 9748   5.478   1.624   6.764  0.1247  0.1847  0.0559
  721POPI   C1A 9749   6.120   1.689   7.165  0.0401 -0.0252  0.0950
  721POPI   D2A 9750   6.261   1.954   7.510  0.0890 -0.0927 -0.1916
  721POPI   C3A 9751   5.994   2.235   7.654 -0.1091  0.2842  0.3080
  721POPI   C4A 9752   5.916   2.257   8.107  0.2144 -0.3328 -0.1834
  721POPI   C1B 9753   5.556   1.741   7.212 -0.0345 -0.1251  0.1361
  721POPI   C2B 9754   5.797   1.781   7.615 -0.0132  0.3330 -0.1314
  721POPI   C3B 9755   5.608   1.884   8.178 -0.0760  0.1097  0.2332
  721POPI   C4B 9756   5.399   1.757   8.593  0.1845  0.1257  0.1556
  722POPI    C1 9757   3.601   9.776   5.484  0.0350  0.0802 -0.0312
  722POPI    C2 9758   3.917   9.588   5.326  0.0964  0.0632  0.1109
  722POPI    C3 9759   3.644   9.382   5.534 -0.1959  0.0170 -0.3075
  722POPI   PO4 9760   3.705   9.960   5.617  0.0100 -0.3447 -0.2015
  722POPI   GL1 9761   3.573  10.168   6.000  0.0234 -0.1928  0.2162
  722POPI   GL2 9762   3.314  10.176   6.036 -0.2710  0.1476  0.0821
  722POPI   C1A 9763   3.831  10.171   6.382 -0.1933  0.3906 -0.2339
  722POPI   D2A 9764   3.950  10.272   6.827  0.2041  0.1002  0.2153
  722POPI   C3A 9765   3.813  10.162   7.239  0.0239 -0.2176  0.0558
  722POPI   C4A 9766   3.748  10.179   7.727  0.1646 -0.0636 -0.4153
  722POPI   C1B 9767   3.516   9.820   6.418  0.1773 -0.1374 -0.1177
  722POPI   C2B 9768   3.579   9.848   6.947 -0.1303 -0.0473 -0.3297
  722POPI   C3B 9769   3.261   9.638   7.258 -0.2658  0.1719 -0.0737
  722POPI   C4B 9770   2.895   9.342   7.435 -0.3581 -0.0308  0.1480
  723POPI    C1 9771   7.781   3.588   5.223 -0.0226  0.1124 -0.0443
  723POPI    C2 9772   7.393   3.505   5.171  0.0169 -0.2952  0.2613
  723POPI    C3 9773   7.504   3.780   5.439 -0.0562 -0.2466  0.2422
  723POPI   PO4 9774   7.901   3.335   5.285 -0.1529 -0.1043  0.1087
  723POPI   GL1 9775   7.963   3.083   5.652 -0.0417 -0.0525  0.1919
  723POPI   GL2 9776   7.893   2.893   5.840  0.0582 -0.2853 -0.0151
  723POPI   C1A 9777   8.279   3.302   5.832 -0.0596  0.0570 -0.2370
  723POPI   D2A 9778   8.681   3.336   5.791 -0.3452  0.0655  0.2362
  723POPI   C3A 9779   9.014   3.206   6.096  0.3367  0.1651  0.1480
  723POPI   C4A 9780   9.336   3.244   6.512  0.3985 -0.3130  0.0443
  723POPI   C1B 9781   8.022   3.016   6.169  0.1491 -0.1893 -0.1617
  723POPI   C2B 9782   7.977   3.121   6.595 -0.1875 -0.2712 -0.1594
  723POPI   C3B 9783   7.766   3.248   7.002 -0.5474 -0.3251 -0.0803
  723POPI   C4B 9784   7.832   3.624   7.285 -0.1145  0.0279 -0.0232
  724POPI    C1 9785  13.135   7.780   6.104 -0.0172  0.0238  0.0724
  724POPI    C2 9786  13.006   7.633   5.755 -0.0001  0.1157  0.0271
  724POPI    C3 9787  13.339   7.855   5.768  0.0686  0.0085  0.1206
  724POPI   PO4 9788  13.085   7.556   6.274 -0.3003  0.1250 -0.0620
  724POPI   GL1 9789  13.196   7.481   6.625 -0.0275  0.0464  0.4408
  724POPI   GL2 9790  12.930   7.393   6.833  0.2840 -0.0293  0.4946
  724POPI   C1A 9791  13.298   7.740   6.938  0.0858 -0.1136 -0.0276
  724POPI   D2A 9792  13.143   7.740   7.248 -0.2098 -0.0664 -0.0055
  724POPI   C3A 9793  13.285   7.969   7.522 -0.0860  0.0447  0.1249
  724POPI   C4A 9794  13.285   7.983   8.013  0.3990 -0.0768 -0.3157
  724POPI   C1B 9795  12.957   7.279   7.239  0.5179 -0.0792  0.1657
  724POPI   C2B 9796  12.793   7.273   7.607  0.2135 -0.3362  0.3159
  724POPI   C3B 9797  12.697   7.051   7.944 -0.4434  0.1454  0.1859
  724POPI   C4B 9798  12.449   6.884   8.226 -0.0929 -0.3087  0.1917
  725POPI    C1 9799   7.223  14.291   5.704  0.0552 -0.0809 -0.2359
  725POPI    C2 9800   7.094  14.651   5.588 -0.1539 -0.0412  0.1050
  725POPI    C3 9801   7.441  14.508   5.450  0.0478  0.3917  0.1479
  725POPI   PO4 9802   6.927  14.215   5.776  0.0648  0.1961 -0.0514
  725POPI   GL1 9803   6.561  14.101   6.042  0.0780 -0.1430 -0.2099
  725POPI   GL2 9804   6.384  13.965   6.035 -0.2537 -0.0635  0.0548
  725POPI   C1A 9805   6.869  13.965   6.421  0.1045  0.1831 -0.0458
  725POPI   D2A 9806   6.803  13.851   6.935  0.0351  0.0209  0.0225
  725POPI   C3A 9807   6.361  13.948   7.017  0.0725 -0.1271  0.1426
  725POPI   C4A 9808   5.956  13.885   7.062  0.0638  0.1202 -0.1738
  725POPI   C1B 9809   6.354  13.740   6.527 -0.1397  0.2872  0.3216
  725POPI   C2B 9810   6.432  13.519   6.901 -0.0891  0.1918  0.1439
  725POPI   C3B 9811   6.617  13.544   7.289  0.0005 -0.0477 -0.2297
  725POPI   C4B 9812   6.756  13.292   7.604  0.0845 -0.1647 -0.2756
  726POPI    C1 9813   8.228  18.011   5.956 -0.0491 -0.1104  0.1749
  726POPI    C2 9814   8.621  18.071   5.909 -0.0680  0.0624  0.2299
  726POPI    C3 9815   8.445  17.755   5.739  0.0756  0.0422  0.1172
  726POPI   PO4 9816   8.125  18.082   6.206 -0.2922 -0.0998  0.1336
  726POPI   GL1 9817   8.361  18.114   6.682  0.2537  0.0489 -0.4922
  726POPI   GL2 9818   8.324  17.852   6.710  0.1280 -0.4572  0.1116
  726POPI   C1A 9819   8.146  18.188   7.089 -0.0336 -0.1852 -0.1665
  726POPI   D2A 9820   8.305  18.505   7.450  0.1537  0.1501 -0.1089
  726POPI   C3A 9821   8.521  18.413   7.856  0.1328 -0.0633  0.1546
  726POPI   C4A 9822   8.462  18.211   8.285 -0.3492 -0.3017 -0.2025
  726POPI   C1B 9823   8.462  17.480   6.997  0.1821  0.1210 -0.2419
  726POPI   C2B 9824   8.542  17.567   7.388  0.0308  0.1028  0.0792
  726POPI   C3B 9825   8.796  17.618   7.663  0.1393 -0.0791  0.0218
  726POPI   C4B 9826   8.685  17.559   8.084 -0.0644  0.3206  0.0358
  727POPI    C1 9827   3.722   2.247   5.668 -0.1666  0.1439  0.0659
  727POPI    C2 9828   3.957   2.548   5.548  0.0492  0.0068  0.1393
  727POPI    C3 9829   3.780   2.312   5.278  0.1275  0.0104  0.0847
  727POPI   PO4 9830   3.552   2.396   5.861 -0.0471  0.1037  0.0597
  727POPI   GL1 9831   3.486   2.292   6.306  0.1025 -0.2829  0.1773
  727POPI   GL2 9832   3.757   2.322   6.467 -0.0132 -0.2649 -0.0868
  727POPI   C1A 9833   3.362   2.399   6.726 -0.0004  0.1795  0.0158
  727POPI   D2A 9834   3.394   2.300   7.143  0.1932 -0.0252 -0.1086
  727POPI   C3A 9835   3.135   2.524   7.448  0.1598 -0.2125  0.1127
  727POPI   C4A 9836   2.916   2.744   7.717 -0.0921 -0.3936 -0.0630
  727POPI   C1B 9837   3.926   2.436   6.861 -0.2878  0.2010  0.1141
  727POPI   C2B 9838   3.966   2.506   7.287 -0.0288  0.1680 -0.2561
  727POPI   C3B 9839   4.092   2.664   7.619  0.1386 -0.0362  0.1767
  727POPI   C4B 9840   4.189   2.682   8.110 -0.2689 -0.1515  0.2094
  728POPI    C1 9841   5.619   4.454   5.591  0.0412  0.0934 -0.1432
  728POPI    C2 9842   5.999   4.540   5.678  0.0284  0.0959 -0.0897
  728POPI    C3 9843   5.905   4.180   5.533  0.1265  0.2723 -0.6134
  728POPI   PO4 9844   5.509   4.575   5.852  0.0730  0.2089 -0.0351
  728POPI   GL1 9845   5.511   4.430   6.289  0.0994 -0.0803 -0.1484
  728POPI   GL2 9846   5.242   4.550   6.421  0.0125  0.1546 -0.1062
  728POPI   C1A 9847   5.792   4.183   6.515  0.0176 -0.0077  0.0481
  728POPI   D2A 9848   6.109   4.112   6.887 -0.2893 -0.3186  0.0453
  728POPI   C3A 9849   6.275   4.018   7.211 -0.0514  0.0046 -0.0279
  728POPI   C4A 9850   6.497   3.829   7.598 -0.0772 -0.1073 -0.0521
  728POPI   C1B 9851   5.212   4.556   6.825 -0.0496 -0.0725  0.0390
  728POPI   C2B 9852   5.317   4.659   7.102  0.0415 -0.0027 -0.3220
  728POPI   C3B 9853   5.575   4.523   7.451  0.0079 -0.1084  0.1409
  728POPI   C4B 9854   5.896   4.543   7.775  0.0722 -0.1870 -0.1491
  729POPI    C1 9855  13.540   4.923   5.790 -0.2972 -0.1298 -0.1435
  729POPI    C2 9856  13.576   4.539   5.683  0.0582 -0.0837 -0.2022
  729POPI    C3 9857  13.651   4.828   5.417  0.4054  0.0285  0.0109
  729POPI   PO4 9858  13.591   4.951   6.016 -0.0987  0.2423  0.1505
  729POPI   GL1 9859  13.418   4.991   6.458 -0.0574 -0.2472 -0.1952
  729POPI   GL2 9860  13.255   5.223   6.366  0.0364  0.1167 -0.1929
  729POPI   C1A 9861  13.531   5.193   6.892 -0.1918  0.1867 -0.0892
  729POPI   D2A 9862  13.464   5.408   7.325  0.1480 -0.1624 -0.2141
  729POPI   C3A 9863  13.674   5.456   7.674 -0.0245 -0.2471  0.0852
  729POPI   C4A 9864  13.647   5.455   8.134 -0.0586  0.1587 -0.0379
  729POPI   C1B 9865  13.053   4.944   6.720 -0.1556 -0.2668  0.0167
  729POPI   C2B 9866  12.820   4.591   7.081  0.0310  0.0346  0.0293
  729POPI   C3B 9867  12.752   4.745   7.509 -0.0336 -0.2125  0.2826
  729POPI   C4B 9868  12.697   4.443   7.781  0.0584 -0.1785 -0.0613
  730POPI    C1 9869   4.266   0.292   5.983 -0.0631 -0.2174 -0.0147
  730POPI    C2 9870   4.665   0.323   5.988 -0.0607 -0.2453 -0.0344
  730POPI    C3 9871   4.440   0.640   5.891 -0.0420 -0.2406 -0.0626
  730POPI   PO4 9872   4.199   0.166   6.298  0.2740 -0.2180 -0.1267
  730POPI   GL1 9873   4.306   0.052   6.684  0.0789  0.0957 -0.0652
  730POPI   GL2 9874   4.345  -0.188   6.842 -0.0990  0.1179  0.1919
  730POPI   C1A 9875   4.299   0.240   7.112  0.2410  0.0791  0.1486
  730POPI   D2A 9876   4.104   0.252   7.462  0.2396 -0.0180  0.2233
  730POPI   C3A 9877   4.334   0.234   7.910 -0.1978  0.0037  0.0060
  730POPI   C4A 9878   4.648   0.177   8.159 -0.1164 -0.0904 -0.3010
  730POPI   C1B 9879   4.366  -0.233   7.160  0.3288 -0.0046  0.2473
  730POPI   C2B 9880   4.322  -0.196   7.599  0.0639  0.0634  0.1302
  730POPI   C3B 9881   4.402  -0.274   8.033  0.0170  0.1421  0.0445
  730POPI   C4B 9882   4.486  -0.528   8.430 -0.0001  0.0014 -0.0320
  731POPI    C1 9883  14.605  16.283   5.918 -0.2146  0.1585  0.1372
  731POPI    C2 9884  14.661  16.634   5.732  0.1105  0.1224  0.1604
  731POPI    C3 9885  14.969  16.449   5.908 -0.0656 -0.1584  0.1810
  731POPI   PO4 9886  14.436  16.370   6.092 -0.1646  0.3446  0.1351
  731POPI   GL1 9887  14.147  16.634   6.352 -0.1497  0.0893 -0.3315
  731POPI   GL2 9888  14.037  16.399   6.351 -0.0464 -0.1682  0.0257
  731POPI   C1A 9889  14.111  16.923   6.809 -0.0979 -0.0283  0.0720
  731POPI   D2A 9890  14.396  17.037   7.160 -0.3311  0.3672  0.0164
  731POPI   C3A 9891  14.584  16.793   7.492  0.3084  0.0299 -0.0014
  731POPI   C4A 9892  14.613  17.108   7.781 -0.0214  0.2483  0.3607
  731POPI   C1B 9893  13.940  16.470   6.766 -0.2276  0.1926  0.0884
  731POPI   C2B 9894  13.850  16.564   7.202 -0.1881  0.0042  0.2116
  731POPI   C3B 9895  14.048  16.688   7.478 -0.1157 -0.2123  0.2282
  731POPI   C4B 9896  14.221  16.778   7.833 -0.0510  0.1976  0.1821
  732POPI    C1 9897  11.478   4.808   5.780  0.2113 -0.1450 -0.0337
  732POPI    C2 9898  11.555   4.822   5.387 -0.0137  0.1393 -0.0714
  732POPI    C3 9899  11.266   4.582   5.526  0.0311  0.0772 -0.0850
  732POPI   PO4 9900  11.755   4.640   5.936 -0.0693 -0.0310  0.1454
  732POPI   GL1 9901  11.809   4.682   6.366  0.1058 -0.0681 -0.1193
  732POPI   GL2 9902  11.543   4.776   6.347  0.3347  0.1139  0.1632
  732POPI   C1A 9903  11.944   5.037   6.692  0.1726  0.2417 -0.0044
  732POPI   D2A 9904  11.812   4.954   7.166  0.0502  0.0057 -0.2838
  732POPI   C3A 9905  11.939   5.157   7.577 -0.0827  0.1960  0.0878
  732POPI   C4A 9906  12.078   4.986   7.977  0.1311 -0.0858 -0.0080
  732POPI   C1B 9907  11.499   4.928   6.717 -0.0631 -0.2252  0.1618
  732POPI   C2B 9908  11.306   5.096   7.129 -0.1472 -0.3148  0.2839
  732POPI   C3B 9909  11.487   5.386   7.423  0.1406  0.0158 -0.2964
  732POPI   C4B 9910  11.872   5.645   7.616  0.2657  0.0980 -0.1954
  733POPI    C1 9911  10.326  10.125   5.420 -0.1179  0.2567 -0.0192
  733POPI    C2 9912  10.656  10.341   5.355  0.0263  0.0693  0.0801
  733POPI    C3 9913  10.523  10.090   5.074  0.2364 -0.2012  0.2176
  733POPI   PO4 9914  10.335   9.924   5.686  0.1849  0.0032  0.1615
  733POPI   GL1 9915  10.213   9.919   6.095  0.0185 -0.2642 -0.0395
  733POPI   GL2 9916  10.559  10.041   6.236  0.1431 -0.1890 -0.1025
  733POPI   C1A 9917  10.118  10.042   6.395  0.3250  0.1814 -0.2073
  733POPI   D2A 9918  10.279  10.383   6.699 -0.3025 -0.0291  0.0944
  733POPI   C3A 9919  10.123  10.597   7.104  0.0028  0.0480 -0.0276
  733POPI   C4A 9920   9.962  10.499   7.451 -0.0150  0.3016  0.0597
  733POPI   C1B 9921  10.945  10.022   6.594 -0.0508  0.0820  0.2533
  733POPI   C2B 9922  11.065   9.828   7.047 -0.2453 -0.1138 -0.0212
  733POPI   C3B 9923  11.320  10.110   7.322  0.0602  0.1279 -0.1054
  733POPI   C4B 9924  11.143  10.402   7.560 -0.1836  0.0124  0.1880
  734POPI    C1 9925  13.322   5.831   5.979  0.1549 -0.0908 -0.1510
  734POPI    C2 9926  13.383   5.441   5.915  0.2800 -0.0583 -0.2347
  734POPI    C3 9927  13.147   5.650   5.668 -0.2724 -0.2064  0.1479
  734POPI   PO4 9928  13.319   5.852   6.195  0.1943 -0.0440 -0.3615
  734POPI   GL1 9929  13.090   5.706   6.532  0.3300  0.1173  0.0577
  734POPI   GL2 9930  13.461   5.613   6.609 -0.2320 -0.0972  0.2094
  734POPI   C1A 9931  13.099   5.458   6.937  0.1205  0.1203 -0.0494
  734POPI   D2A 9932  12.933   5.515   7.371 -0.1007 -0.2557  0.1161
  734POPI   C3A 9933  12.841   5.216   7.658  0.2787  0.1803 -0.2945
  734POPI   C4A 9934  12.504   4.985   7.842 -0.1494 -0.0922  0.2117
  734POPI   C1B 9935  13.473   5.786   6.992  0.2551 -0.2541 -0.3252
  734POPI   C2B 9936  13.704   5.896   7.395 -0.2041  0.2089  0.0725
  734POPI   C3B 9937  13.935   5.903   7.802 -0.1314 -0.2212 -0.3405
  734POPI   C4B 9938  14.011   5.770   8.131 -0.1311 -0.0005 -0.1935
  735POPI    C1 9939   9.042   1.570   5.509 -0.2521  0.1333 -0.0806
  735POPI    C2 9940   8.947   1.522   5.124 -0.2050 -0.1139 -0.0633
  735POPI    C3 9941   8.822   1.256   5.395 -0.2792  0.0851  0.1007
  735POPI   PO4 9942   8.998   1.866   5.591 -0.3602  0.0671 -0.2347
  735POPI   GL1 9943   9.017   1.984   6.033 -0.0765  0.1979  0.0334
  735POPI   GL2 9944   8.793   1.833   6.032 -0.0081 -0.1352  0.2756
  735POPI   C1A 9945   8.706   2.170   6.333 -0.1568  0.0778  0.1426
  735POPI   D2A 9946   8.741   2.318   6.641  0.0482  0.1311 -0.0937
  735POPI   C3A 9947   8.754   2.506   7.035 -0.1963  0.1575  0.1661
  735POPI   C4A 9948   8.828   2.478   7.429 -0.4119 -0.1420 -0.0363
  735POPI   C1B 9949   8.764   1.642   6.339  0.1563 -0.1462  0.2279
  735POPI   C2B 9950   8.569   1.862   6.760 -0.2411 -0.0513  0.2801
  735POPI   C3B 9951   8.479   2.051   7.146 -0.0059 -0.0460  0.0437
  735POPI   C4B 9952   8.516   2.001   7.596 -0.0529 -0.2213  0.2901
  736POPI    C1 9953   2.633  14.724   5.977  0.1744  0.1825 -0.1746
  736POPI    C2 9954   2.244  14.817   5.979  0.1343  0.0190 -0.2233
  736POPI    C3 9955   2.434  14.759   5.632  0.1822  0.0174 -0.1969
  736POPI   PO4 9956   2.646  14.503   6.150  0.1159  0.1222  0.2407
  736POPI   GL1 9957   2.700  14.378   6.599  0.1192 -0.2826 -0.1092
  736POPI   GL2 9958   2.951  14.214   6.463  0.0402  0.0749  0.0418
  736POPI   C1A 9959   2.707  14.250   7.024  0.0192  0.1346 -0.2119
  736POPI   D2A 9960   2.806  14.249   7.407  0.0937 -0.3118 -0.0022
  736POPI   C3A 9961   2.712  14.354   7.815 -0.0785  0.0706 -0.1564
  736POPI   C4A 9962   2.924  14.448   8.259  0.0519  0.0124  0.5062
  736POPI   C1B 9963   3.223  14.160   6.850  0.1475 -0.0831 -0.0803
  736POPI   C2B 9964   3.395  14.148   7.263 -0.0751 -0.1183 -0.3251
  736POPI   C3B 9965   3.396  13.955   7.566 -0.3960  0.1829 -0.2047
  736POPI   C4B 9966   3.223  13.773   7.985 -0.1841  0.0613 -0.0786
  737POPI    C1 9967  11.094   1.581   5.365 -0.2188  0.1970 -0.1908
  737POPI    C2 9968  10.834   1.329   5.535  0.2070 -0.1700 -0.0640
  737POPI    C3 9969  10.824   1.391   5.139 -0.0451 -0.2097 -0.0652
  737POPI   PO4 9970  11.231   1.611   5.642 -0.1215 -0.1823 -0.0302
  737POPI   GL1 9971  11.337   1.725   6.093 -0.0595 -0.1825 -0.2520
  737POPI   GL2 9972  11.486   1.819   6.349 -0.0916 -0.1912 -0.2207
  737POPI   C1A 9973  11.126   2.163   6.291  0.2352 -0.0053 -0.1988
  737POPI   D2A 9974  11.128   2.340   6.714 -0.1249 -0.1420 -0.0491
  737POPI   C3A 9975  10.908   2.227   7.117  0.0309  0.2127  0.1599
  737POPI   C4A 9976  10.989   2.389   7.616 -0.2565 -0.1415 -0.1626
  737POPI   C1B 9977  11.356   1.900   6.677  0.4644  0.2105  0.0507
  737POPI   C2B 9978  11.358   1.925   7.023 -0.0091 -0.1797  0.0202
  737POPI   C3B 9979  11.367   2.041   7.468  0.0818  0.0737  0.1494
  737POPI   C4B 9980  11.155   1.993   7.881 -0.0628 -0.0210 -0.0067
  738POPI    C1 9981   5.941  17.939   6.153 -0.2530 -0.1253  0.1459
  738POPI    C2 9982   6.260  17.707   6.086 -0.0709  0.2110 -0.1938
  738POPI    C3 9983   5.942  17.685   5.844 -0.2216  0.0302  0.0165
  738POPI   PO4 9984   5.928  17.941   6.369  0.1830  0.1811 -0.3267
  738POPI   GL1 9985   5.813  18.169   6.821 -0.0910 -0.0141  0.1714
  738POPI   GL2 9986   6.134  18.194   6.737 -0.0090 -0.0021  0.0258
  738POPI   C1A 9987   6.071  17.868   7.169  0.1737 -0.1030 -0.1061
  738POPI   D2A 9988   6.195  17.814   7.568  0.1717 -0.1254 -0.2796
  738POPI   C3A 9989   5.931  17.783   7.801  0.0818  0.1043  0.0310
  738POPI   C4A 9990   5.394  17.910   7.717 -0.0025 -0.0524 -0.1141
  738POPI   C1B 9991   6.153  18.407   7.121 -0.0783  0.0458  0.0538
  738POPI   C2B 9992   6.294  18.400   7.449 -0.0998  0.1110  0.0578
  738POPI   C3B 9993   6.386  18.235   7.744  0.2646  0.0743 -0.1093
  738POPI   C4B 9994   6.203  18.105   8.111 -0.0698 -0.0513 -0.2041
  739POPI    C1 9995   2.034  10.130   5.338 -0.0986 -0.2799 -0.3255
  739POPI    C2 9996   2.210  10.323   5.035  0.1397 -0.0426 -0.0419
  739POPI    C3 9997   1.960  10.519   5.279  0.0219 -0.2087 -0.0274
  739POPI   PO4 9998   2.292   9.960   5.381 -0.4183  0.2387  0.0293
  739POPI   GL1 9999   2.389   9.659   5.790 -0.0357  0.0514  0.2540
  739POPI   GL210000   2.340   9.325   5.771  0.1270  0.1073 -0.1871
  739POPI   C1A10001   2.409   9.830   6.143  0.1618 -0.0446  0.4301
  739POPI   D2A10002   2.195   9.893   6.544  0.3380  0.1094 -0.0857
  739POPI   C3A10003   2.251   9.731   6.866  0.4737  0.3497 -0.4219
  739POPI   C4A10004   2.070   9.371   7.000  0.1435  0.0093  0.1112
  739POPI   C1B10005   2.281   9.151   6.094 -0.1977  0.0685 -0.1167
  739POPI   C2B10006   2.359   8.737   6.301 -0.1261 -0.2332 -0.0940
  739POPI   C3B10007   2.286   8.535   6.695  0.3612 -0.1537 -0.0280
  739POPI   C4B10008   2.393   8.929   7.089  0.0710 -0.0381  0.0463
  740POPI    C110009  16.547   6.002   6.091  0.1664  0.0044 -0.0109
  740POPI    C210010  16.636   5.823   5.745 -0.0081  0.2373 -0.1801
  740POPI    C310011  16.325   6.074   5.765 -0.0326  0.1836  0.1606
  740POPI   PO410012  16.745   6.304   6.272  0.3751  0.1173 -0.1582
  740POPI   GL110013  16.859   6.604   6.566  0.1070  0.2028  0.0555
  740POPI   GL210014  16.678   6.489   6.768  0.2691  0.0682 -0.0230
  740POPI   C1A10015  16.994   6.884   6.951  0.1080 -0.0406  0.2878
  740POPI   D2A10016  17.101   6.826   7.343 -0.0799  0.2474 -0.1581
  740POPI   C3A10017  16.902   6.756   7.664 -0.0191  0.2772  0.2740
  740POPI   C4A10018  16.701   6.579   7.962  0.0490  0.3101 -0.1217
  740POPI   C1B10019  16.713   6.460   7.266 -0.1435 -0.0654 -0.2226
  740POPI   C2B10020  16.532   6.277   7.570  0.3815  0.1417 -0.0106
  740POPI   C3B10021  16.207   6.568   7.833  0.0332  0.1270  0.5823
  740POPI   C4B10022  16.307   6.800   8.194 -0.4050  0.0332 -0.2383
  741POPI    C110023   5.114  11.854   5.489  0.0955  0.1513  0.1545
  741POPI    C210024   5.279  11.503   5.584 -0.1411  0.0548  0.2173
  741POPI    C310025   5.505  11.796   5.434  0.0100 -0.2199 -0.1035
  741POPI   PO410026   4.933  11.857   5.672 -0.1957  0.1489  0.1939
  741POPI   GL110027   4.911  11.993   6.070  0.2110  0.0273 -0.2250
  741POPI   GL210028   5.117  12.196   6.120  0.1425  0.1506 -0.1059
  741POPI   C1A10029   4.522  11.768   6.207  0.0656  0.2461  0.1725
  741POPI   D2A10030   4.370  11.551   6.514 -0.0465 -0.1519 -0.2167
  741POPI   C3A10031   4.492  11.585   6.877  0.3090  0.0840 -0.4371
  741POPI   C4A10032   4.373  11.650   7.225 -0.1050  0.0231 -0.1449
  741POPI   C1B10033   5.165  12.491   6.411  0.0287 -0.1836  0.4558
  741POPI   C2B10034   5.080  12.577   6.841  0.2509  0.0946 -0.1787
  741POPI   C3B10035   5.006  12.369   7.194  0.3878 -0.2094 -0.3126
  741POPI   C4B10036   4.761  12.481   7.577  0.1976 -0.1899 -0.0207
  742POPS   CNO10037   7.421   9.512   5.607 -0.1691 -0.2503  0.3103
  742POPS   PO410038   7.775   9.802   5.822  0.1037 -0.0146  0.2273
  742POPS   GL110039   7.889   9.718   6.261 -0.1303  0.1873  0.3697
  742POPS   GL210040   8.191   9.654   6.316  0.0334  0.1442 -0.1194
  742POPS   C1A10041   7.690   9.670   6.630  0.1460 -0.0896  0.1178
  742POPS   D2A10042   7.704   9.715   7.058 -0.1240 -0.1124  0.0315
  742POPS   C3A10043   7.881  10.008   7.178 -0.0077 -0.0045  0.3053
  742POPS   C4A10044   7.950  10.095   7.528 -0.1353  0.1512 -0.0538
  742POPS   C1B10045   8.198   9.675   6.734 -0.0873  0.1807  0.3914
  742POPS   C2B10046   8.374   9.738   7.206  0.5076  0.3391 -0.1275
  742POPS   C3B10047   8.510   9.710   7.590  0.0489  0.0986  0.0217
  742POPS   C4B10048   8.583   9.580   7.883 -0.0307 -0.0470 -0.2009
  743POPS   CNO10049   7.634  16.810   6.287  0.1493  0.0674  0.1305
  743POPS   PO410050   7.707  17.174   6.374 -0.0656 -0.0842 -0.2118
  743POPS   GL110051   7.719  17.096   6.726 -0.0394 -0.3849  0.0352
  743POPS   GL210052   7.499  16.908   6.723  0.2047 -0.2358 -0.0453
  743POPS   C1A10053   8.042  17.188   7.009 -0.3026  0.0813  0.0769
  743POPS   D2A10054   8.047  16.890   7.283  0.4872 -0.1378  0.1876
  743POPS   C3A10055   7.862  16.815   7.749  0.4028 -0.0855 -0.2913
  743POPS   C4A10056   7.573  16.576   8.072 -0.3512 -0.2501 -0.5419
  743POPS   C1B10057   7.627  16.731   7.030 -0.0033 -0.0135 -0.0917
  743POPS   C2B10058   7.631  16.584   7.349 -0.1569  0.0121  0.3560
  743POPS   C3B10059   7.721  16.305   7.741 -0.0996  0.1300  0.0720
  743POPS   C4B10060   8.036  16.160   8.011  0.0471 -0.2267 -0.0821
  744POPS   CNO10061   3.596  13.747   5.970  0.0729 -0.4340 -0.0240
  744POPS   PO410062   3.697  13.284   5.878 -0.4647 -0.1145 -0.0243
  744POPS   GL110063   3.644  13.212   6.325  0.3779  0.1251  0.1649
  744POPS   GL210064   3.420  13.487   6.396 -0.1256 -0.0578  0.2141
  744POPS   C1A10065   3.833  13.130   6.673 -0.0702  0.2161 -0.0035
  744POPS   D2A10066   3.646  13.011   7.043 -0.0719  0.3319  0.0784
  744POPS   C3A10067   3.891  12.919   7.412  0.0585  0.1003  0.0827
  744POPS   C4A10068   4.038  13.117   7.719 -0.1350  0.2152 -0.1011
  744POPS   C1B10069   3.354  13.280   6.710  0.2952 -0.0672 -0.2458
  744POPS   C2B10070   3.224  13.123   7.235  0.0553  0.2050 -0.0358
  744POPS   C3B10071   3.434  12.827   7.515  0.0773 -0.1433  0.0422
  744POPS   C4B10072   3.598  12.525   7.777  0.2499  0.2708  0.0222
  745POPS   CNO10073  15.473   0.101   6.120  0.0038 -0.1245 -0.0683
  745POPS   PO410074  15.553   0.150   5.631  0.2781 -0.2177 -0.0292
  745POPS   GL110075  15.705   0.449   5.855  0.1668  0.2202  0.3411
  745POPS   GL210076  15.447   0.689   6.029 -0.3615  0.0398 -0.0454
  745POPS   C1A10077  15.833   0.459   6.290  0.0814 -0.1564 -0.2219
  745POPS   D2A10078  15.881   0.186   6.709  0.1330 -0.1733  0.4132
  745POPS   C3A10079  15.933  -0.147   6.929  0.0880 -0.1129  0.1848
  745POPS   C4A10080  16.025  -0.273   7.316 -0.1017  0.0360  0.2012
  745POPS   C1B10081  15.563   0.903   6.368  0.3107 -0.2875  0.0360
  745POPS   C2B10082  15.178   1.093   6.550 -0.4489 -0.0564 -0.1499
  745POPS   C3B10083  15.113   1.169   6.906 -0.3339  0.1561  0.0043
  745POPS   C4B10084  14.984   0.975   7.319 -0.0815  0.0759  0.1694
  746POPS   CNO10085   5.548  12.261   5.502  0.3773  0.2578  0.0208
  746POPS   PO410086   5.194  12.441   5.672  0.1493  0.0388  0.1033
  746POPS   GL110087   5.036  12.642   5.981  0.0069 -0.0096  0.2242
  746POPS   GL210088   5.088  13.030   5.868  0.2356  0.0217  0.1453
  746POPS   C1A10089   4.831  12.913   6.228 -0.2421 -0.0284  0.0304
  746POPS   D2A10090   4.870  13.019   6.593  0.0337 -0.0275  0.0625
  746POPS   C3A10091   4.518  13.064   6.841 -0.5777  0.1161 -0.2205
  746POPS   C4A10092   4.165  12.863   6.942 -0.0907 -0.1663 -0.0940
  746POPS   C1B10093   5.321  13.230   6.151  0.1325  0.0550 -0.0715
  746POPS   C2B10094   5.427  12.998   6.441 -0.2967 -0.0356 -0.5809
  746POPS   C3B10095   5.702  12.622   6.453  0.0732 -0.2017  0.2979
  746POPS   C4B10096   5.917  12.273   6.511  0.1578  0.0239 -0.1528
  747POPS   CNO10097   4.722   3.388   5.693  0.0998  0.3193 -0.1085
  747POPS   PO410098   4.364   3.383   6.007  0.1412  0.1499  0.1361
  747POPS   GL110099   4.473   3.510   6.359 -0.3151 -0.0234  0.1242
  747POPS   GL210100   4.353   3.336   6.505 -0.0263 -0.1358  0.0550
  747POPS   C1A10101   4.488   3.837   6.620  0.2206 -0.0625 -0.4650
  747POPS   D2A10102   4.634   3.940   7.101 -0.0690  0.0516 -0.0655
  747POPS   C3A10103   4.338   4.179   7.430 -0.4986 -0.2684 -0.4648
  747POPS   C4A10104   4.201   4.524   7.815 -0.1428 -0.0034 -0.1386
  747POPS   C1B10105   4.488   3.445   6.986 -0.1446 -0.1238  0.0888
  747POPS   C2B10106   4.521   3.597   7.402 -0.1417  0.0971 -0.2071
  747POPS   C3B10107   4.388   3.586   7.779  0.1092 -0.0432  0.0419
  747POPS   C4B10108   4.159   3.728   8.207 -0.0791  0.0102  0.2170
  748POPS   CNO10109  11.053   6.006   5.309 -0.1517  0.2657 -0.0720
  748POPS   PO410110  11.010   5.746   5.555  0.0847 -0.0026  0.0673
  748POPS   GL110111  11.242   6.073   5.910  0.0872 -0.2443  0.0719
  748POPS   GL210112  10.974   6.265   6.085 -0.1163  0.0433  0.1109
  748POPS   C1A10113  11.481   6.276   6.371  0.1532  0.2269 -0.0390
  748POPS   D2A10114  11.718   6.499   6.573 -0.1694 -0.0463 -0.0829
  748POPS   C3A10115  11.754   6.247   6.981 -0.0205  0.0426  0.0194
  748POPS   C4A10116  11.641   6.014   7.386  0.4224 -0.2660  0.1319
  748POPS   C1B10117  11.102   5.941   6.478 -0.1670  0.0923  0.1096
  748POPS   C2B10118  10.925   5.965   6.865 -0.2167 -0.3389  0.1556
  748POPS   C3B10119  10.813   6.162   7.238 -0.2219 -0.0079 -0.3565
  748POPS   C4B10120  10.748   6.315   7.625 -0.0194 -0.0763  0.3661
  749POPS   CNO10121  14.770  10.211   6.206 -0.2277 -0.0923 -0.1191
  749POPS   PO410122  14.811  10.593   6.046  0.0641 -0.0803 -0.0059
  749POPS   GL110123  14.704  10.627   6.498 -0.2037  0.2690  0.1418
  749POPS   GL210124  14.439  10.516   6.551 -0.1589 -0.0981  0.2144
  749POPS   C1A10125  14.863  10.853   6.846  0.0279 -0.3790  0.2654
  749POPS   D2A10126  15.125  11.026   7.166  0.1983 -0.0798  0.1574
  749POPS   C3A10127  15.080  11.018   7.656 -0.2406  0.1301 -0.1826
  749POPS   C4A10128  14.852  11.195   7.933  0.0709 -0.2169  0.0794
  749POPS   C1B10129  14.396  10.602   7.046 -0.0704 -0.1679 -0.2502
  749POPS   C2B10130  14.727  10.733   7.363 -0.5508 -0.0727 -0.0715
  749POPS   C3B10131  14.776  10.682   7.790  0.3669  0.0705 -0.3361
  749POPS   C4B10132  14.592  10.834   8.135 -0.0389  0.0095  0.2470
  750POPS   CNO10133   3.882  17.441   6.272 -0.3257 -0.0178 -0.3857
  750POPS   PO410134   4.273  17.557   6.356 -0.0960 -0.1350 -0.1413
  750POPS   GL110135   4.460  17.346   6.665  0.0744  0.2310 -0.0862
  750POPS   GL210136   4.735  17.349   6.705  0.1019  0.3972 -0.0095
  750POPS   C1A10137   4.450  17.290   7.126  0.0610  0.1036  0.3604
  750POPS   D2A10138   4.583  17.501   7.412  0.2719  0.2158  0.0242
  750POPS   C3A10139   4.550  17.372   7.840 -0.0014  0.0523 -0.0088
  750POPS   C4A10140   4.617  16.945   8.112 -0.2388 -0.0602  0.1630
  750POPS   C1B10141   4.885  17.669   6.891 -0.1018 -0.0337  0.1198
  750POPS   C2B10142   5.077  17.663   7.292 -0.1993  0.3203 -0.3489
  750POPS   C3B10143   5.047  17.545   7.763 -0.0887  0.2948  0.0769
  750POPS   C4B10144   4.939  17.455   8.129  0.3155  0.0014  0.2173
  751POPS   CNO10145  18.025  12.373   5.776 -0.0611 -0.2054 -0.2806
  751POPS   PO410146  18.187  12.127   6.204  0.2024  0.0659 -0.0933
  751POPS   GL110147  18.462  12.273   6.582  0.0385 -0.0908 -0.2053
  751POPS   GL210148  18.580  12.623   6.568  0.0052 -0.0726 -0.0312
  751POPS   C1A10149  18.489  12.033   6.908  0.2828  0.1272  0.1128
  751POPS   D2A10150  18.607  12.034   7.342 -0.1065  0.0532 -0.2698
  751POPS   C3A10151  18.960  12.055   7.449 -0.0615  0.1269 -0.1421
  751POPS   C4A10152  19.146  12.395   7.647 -0.1633  0.0032  0.0624
  751POPS   C1B10153  18.412  12.566   6.974 -0.0181 -0.1640  0.1227
  751POPS   C2B10154  18.262  12.863   7.318  0.1288 -0.3682 -0.1306
  751POPS   C3B10155  18.239  13.082   7.828  0.2385 -0.2767 -0.0599
  751POPS   C4B10156  18.098  13.044   8.228 -0.0053 -0.1628  0.1040
  752POPS   CNO10157  13.568   7.473   6.028  0.1603 -0.0634 -0.0332
  752POPS   PO410158  13.852   7.227   6.082 -0.0678 -0.0325 -0.3018
  752POPS   GL110159  13.917   7.384   6.503 -0.1059  0.0275 -0.2495
  752POPS   GL210160  13.698   7.476   6.538 -0.1497  0.0758 -0.2545
  752POPS   C1A10161  14.001   7.232   7.004 -0.1472  0.0677 -0.1705
  752POPS   D2A10162  14.069   7.337   7.374  0.1318  0.1145 -0.3623
  752POPS   C3A10163  13.737   7.326   7.611 -0.3019 -0.0929  0.0695
  752POPS   C4A10164  13.443   7.498   7.979 -0.4680  0.0414  0.1885
  752POPS   C1B10165  13.825   7.679   6.905  0.0170  0.1541  0.0585
  752POPS   C2B10166  13.745   7.747   7.336 -0.0901 -0.2624  0.2237
  752POPS   C3B10167  13.804   7.776   7.833 -0.4066  0.1217  0.2922
  752POPS   C4B10168  13.888   8.060   8.178 -0.0942  0.1586  0.2110
  753POPS   CNO10169  14.595  11.406   5.940 -0.0605 -0.4692 -0.1145
  753POPS   PO410170  14.936  11.638   6.130  0.1224 -0.1865 -0.0098
  753POPS   GL110171  14.870  11.815   6.534 -0.1482 -0.0015  0.1319
  753POPS   GL210172  14.842  12.157   6.459  0.0948 -0.0073 -0.0301
  753POPS   C1A10173  14.806  11.859   6.979  0.1839 -0.2073 -0.0782
  753POPS   D2A10174  14.722  11.982   7.467 -0.0763 -0.0561 -0.0961
  753POPS   C3A10175  15.030  12.078   7.769 -0.1560 -0.1248 -0.1659
  753POPS   C4A10176  15.164  12.280   8.121  0.1123  0.1953  0.1549
  753POPS   C1B10177  15.183  12.083   6.759 -0.1851  0.0483  0.0506
  753POPS   C2B10178  15.534  12.250   6.956  0.0464 -0.2337  0.0029
  753POPS   C3B10179  15.769  12.235   7.294  0.2201 -0.0050 -0.1876
  753POPS   C4B10180  15.853  12.404   7.578  0.5010 -0.0663 -0.0116
  754POPS   CNO10181  16.980   8.077   6.073 -0.0054 -0.0552 -0.0333
  754POPS   PO410182  16.880   8.464   6.106 -0.1447 -0.0938 -0.0779
  754POPS   GL110183  16.934   8.346   6.558 -0.1614  0.1263 -0.2766
  754POPS   GL210184  17.178   8.166   6.530  0.2366  0.0231 -0.3808
  754POPS   C1A10185  16.603   8.310   6.798  0.2638  0.0656 -0.0241
  754POPS   D2A10186  16.606   8.229   7.187  0.1380 -0.0948 -0.2131
  754POPS   C3A10187  16.488   8.433   7.611 -0.1905  0.0739 -0.0899
  754POPS   C4A10188  16.492   8.402   8.039 -0.1191  0.1922 -0.0413
  754POPS   C1B10189  17.431   8.387   6.832 -0.1769 -0.1207  0.3017
  754POPS   C2B10190  17.466   8.778   7.063 -0.1919  0.0545  0.1750
  754POPS   C3B10191  17.613   9.003   7.449  0.0953  0.0973 -0.2214
  754POPS   C4B10192  17.656   9.117   7.894  0.3124 -0.2687  0.1005
  755POPS   CNO10193  11.601   0.280   5.645 -0.1895 -0.0750 -0.0990
  755POPS   PO410194  11.162   0.559   5.619  0.1107  0.0569  0.0851
  755POPS   GL110195  11.340   0.605   5.973 -0.3721 -0.2270  0.3906
  755POPS   GL210196  11.589   0.447   6.072 -0.3299 -0.2980 -0.0820
  755POPS   C1A10197  11.274   0.750   6.486 -0.0844  0.2892  0.0881
  755POPS   D2A10198  11.612   0.971   6.706  0.1267  0.1066 -0.0118
  755POPS   C3A10199  11.676   1.024   7.093  0.2991  0.2762  0.1198
  755POPS   C4A10200  11.721   1.084   7.481  0.2284 -0.1899 -0.0424
  755POPS   C1B10201  11.741   0.541   6.448  0.1829  0.2016 -0.2912
  755POPS   C2B10202  11.641   0.440   6.947  0.0835  0.1562 -0.0457
  755POPS   C3B10203  11.733   0.570   7.380 -0.2294  0.0733  0.2616
  755POPS   C4B10204  11.895   0.703   7.737  0.2303 -0.0314  0.0978
  756POPS   CNO10205  17.311   9.162   5.540  0.0332  0.2660 -0.1523
  756POPS   PO410206  17.412   9.514   5.880 -0.1421 -0.2288 -0.0196
  756POPS   GL110207  17.528   9.728   6.261 -0.3244 -0.0541  0.0633
  756POPS   GL210208  17.468  10.154   6.324  0.1143  0.0430 -0.1716
  756POPS   C1A10209  17.511   9.753   6.737  0.1796 -0.3651 -0.1099
  756POPS   D2A10210  17.413   9.769   7.141  0.0120  0.2398 -0.1787
  756POPS   C3A10211  17.312   9.606   7.615  0.1844 -0.0479 -0.1087
  756POPS   C4A10212  17.347   9.414   8.076 -0.0427  0.0986 -0.0670
  756POPS   C1B10213  17.734  10.287   6.677 -0.1187 -0.2499 -0.2194
  756POPS   C2B10214  17.896  10.040   7.095  0.0019  0.1448 -0.0687
  756POPS   C3B10215  17.703   9.988   7.492 -0.0990 -0.2068 -0.1528
  756POPS   C4B10216  17.375  10.053   7.599  0.0090 -0.3066  0.0046
  757POPS   CNO10217   1.341   9.115   6.013  0.2768  0.0863  0.2160
  757POPS   PO410218   1.303   8.620   6.048 -0.1118  0.2563  0.0318
  757POPS   GL110219   1.230   8.316   6.393 -0.1601 -0.0416 -0.1980
  757POPS   GL210220   1.054   8.004   6.391 -0.0708 -0.0617  0.1177
  757POPS   C1A10221   1.295   8.175   6.879 -0.0743 -0.0317 -0.2104
  757POPS   D2A10222   1.180   8.291   7.259 -0.2364  0.2112  0.0621
  757POPS   C3A10223   0.867   8.021   7.467  0.1133 -0.0650  0.4287
  757POPS   C4A10224   0.700   7.727   7.822  0.1281 -0.1678  0.0900
  757POPS   C1B10225   0.847   8.289   6.763 -0.2399  0.6293  0.1732
  757POPS   C2B10226   0.672   8.301   7.108 -0.2817  0.1250  0.1015
  757POPS   C3B10227   0.310   8.295   7.244  0.1469 -0.1168  0.1493
  757POPS   C4B10228   0.185   8.516   7.627  0.3655 -0.0552 -0.2778
  758POPS   CNO10229   3.460   8.928   5.437 -0.0095  0.1722  0.2817
  758POPS   PO410230   3.058   9.069   5.577  0.3240  0.0548 -0.0302
  758POPS   GL110231   3.155   9.201   5.930 -0.0862 -0.0113 -0.1538
  758POPS   GL210232   3.487   9.148   5.921  0.1006 -0.2602 -0.0498
  758POPS   C1A10233   3.233   8.880   6.259  0.1114  0.1012 -0.2035
  758POPS   D2A10234   3.280   8.571   6.382  0.0430  0.0251 -0.0130
  758POPS   C3A10235   3.203   8.359   6.788 -0.2518  0.3638 -0.1666
  758POPS   C4A10236   3.293   8.193   7.233 -0.1786  0.1041  0.0840
  758POPS   C1B10237   3.490   9.302   6.330 -0.3437  0.1105  0.2078
  758POPS   C2B10238   3.527   9.349   6.775 -0.1344 -0.3288 -0.1297
  758POPS   C3B10239   3.804   9.390   7.137 -0.2374  0.0194 -0.0449
  758POPS   C4B10240   3.765   9.693   7.515  0.0228 -0.1013 -0.0737
  759POPS   CNO10241  11.894   7.088   5.712  0.2035  0.3553 -0.0101
  759POPS   PO410242  11.872   6.925   6.130 -0.1940  0.0235 -0.0020
  759POPS   GL110243  11.675   7.177   6.459 -0.0543  0.0554  0.0043
  759POPS   GL210244  11.926   7.301   6.592  0.0881  0.2027  0.0809
  759POPS   C1A10245  11.469   7.153   6.890  0.2344  0.3032 -0.1606
  759POPS   D2A10246  11.176   6.935   7.115  0.3426 -0.2456 -0.1080
  759POPS   C3A10247  11.250   6.931   7.499  0.1022  0.1754  0.0691
  759POPS   C4A10248  11.555   7.022   7.746  0.0661 -0.0743 -0.1950
  759POPS   C1B10249  12.021   7.061   6.949  0.0356  0.3049  0.0668
  759POPS   C2B10250  11.823   6.717   7.143 -0.2137 -0.1225  0.2679
  759POPS   C3B10251  11.762   6.574   7.550 -0.2521 -0.1849  0.0656
  759POPS   C4B10252  11.610   6.503   7.957 -0.1399 -0.0272 -0.1777
  760POPS   CNO10253   0.951   3.675   6.225  0.0691 -0.1446  0.1487
  760POPS   PO410254   0.603   3.996   6.162 -0.0938 -0.0252 -0.4747
  760POPS   GL110255   0.518   4.098   6.528  0.1022  0.1510 -0.1855
  760POPS   GL210256   0.418   4.367   6.723  0.1728 -0.2842 -0.0853
  760POPS   C1A10257   0.424   3.946   6.931 -0.0347 -0.1615  0.0256
  760POPS   D2A10258   0.370   3.835   7.351  0.2184  0.0943  0.0777
  760POPS   C3A10259   0.617   4.000   7.657  0.0225  0.0058 -0.0753
  760POPS   C4A10260   0.977   4.064   7.746 -0.0343  0.0799  0.3308
  760POPS   C1B10261   0.571   4.392   7.037 -0.0111  0.0663  0.1153
  760POPS   C2B10262   0.425   4.386   7.377 -0.0593  0.0654 -0.1299
  760POPS   C3B10263   0.385   4.400   7.824  0.0434  0.1315 -0.2084
  760POPS   C4B10264   0.415   4.233   8.267  0.2822 -0.1480  0.0426
  761POPS   CNO10265  12.983  13.743   5.820  0.3454  0.3366  0.1802
  761POPS   PO410266  12.831  13.986   6.140  0.0230  0.0951 -0.4262
  761POPS   GL110267  13.096  14.210   6.452 -0.0886 -0.1410 -0.1647
  761POPS   GL210268  13.264  14.040   6.507 -0.0876  0.1628  0.0381
  761POPS   C1A10269  13.081  14.441   6.814 -0.3876 -0.3563  0.0891
  761POPS   D2A10270  13.421  14.305   7.014  0.3208 -0.0752  0.4504
  761POPS   C3A10271  13.531  14.452   7.450 -0.0460 -0.0822  0.0017
  761POPS   C4A10272  13.501  14.417   8.004 -0.1137  0.0168 -0.1576
  761POPS   C1B10273  13.596  13.934   6.727 -0.0243  0.0240  0.0136
  761POPS   C2B10274  13.759  13.847   7.198 -0.1409  0.2990 -0.2271
  761POPS   C3B10275  13.861  14.026   7.497  0.1368 -0.1555 -0.0025
  761POPS   C4B10276  13.873  14.088   7.972  0.0689  0.1330 -0.0033
  762POPS   CNO10277   0.445   6.470   5.816 -0.2029  0.0695 -0.1999
  762POPS   PO410278  -0.010   6.568   6.071 -0.0474  0.2072 -0.3234
  762POPS   GL110279  -0.029   6.730   6.588  0.1784 -0.1250  0.1092
  762POPS   GL210280   0.228   6.854   6.500  0.2040 -0.0738 -0.0392
  762POPS   C1A10281  -0.308   6.933   6.958 -0.4063  0.0790  0.0985
  762POPS   D2A10282  -0.634   7.132   7.212 -0.0250  0.0925 -0.1526
  762POPS   C3A10283  -0.626   7.576   7.387  0.3038  0.0118 -0.1046
  762POPS   C4A10284  -0.790   7.802   7.650 -0.4203  0.0286  0.0706
  762POPS   C1B10285   0.517   6.625   6.794  0.0990 -0.1393 -0.2163
  762POPS   C2B10286   0.514   6.343   7.078 -0.1181  0.2327 -0.0249
  762POPS   C3B10287   0.684   6.077   7.392  0.2358 -0.0537 -0.1212
  762POPS   C4B10288   0.812   5.813   7.720  0.0315  0.4216  0.2150
  763POPS   CNO10289   6.366   4.748   5.274  0.1053 -0.1437 -0.0372
  763POPS   PO410290   6.411   4.366   5.412  0.3239  0.0309  0.2256
  763POPS   GL110291   6.596   4.220   5.790  0.1086 -0.0441 -0.0864
  763POPS   GL210292   6.340   4.309   6.021  0.0662 -0.1446  0.0074
  763POPS   C1A10293   6.911   3.956   5.952 -0.1041  0.0023  0.1818
  763POPS   D2A10294   7.361   3.973   6.149  0.2535 -0.0544  0.3466
  763POPS   C3A10295   7.500   3.988   6.588  0.0375 -0.0895  0.1907
  763POPS   C4A10296   7.786   3.887   6.876 -0.2183 -0.0284 -0.0420
  763POPS   C1B10297   6.678   4.166   6.381 -0.1780 -0.0570 -0.1246
  763POPS   C2B10298   7.028   4.187   6.722 -0.0081 -0.1230  0.0930
  763POPS   C3B10299   7.340   4.055   7.080  0.3275 -0.3708  0.0715
  763POPS   C4B10300   7.365   3.812   7.562  0.0415  0.1409 -0.0258
  764POPS   CNO10301   0.967  17.342   5.632 -0.2782  0.0373 -0.0673
  764POPS   PO410302   1.104  17.679   5.924  0.1903 -0.1472 -0.0998
  764POPS   GL110303   1.045  17.690   6.310 -0.1916 -0.2207  0.1616
  764POPS   GL210304   1.064  17.301   6.493 -0.1598 -0.0728  0.1590
  764POPS   C1A10305   0.937  17.800   6.775 -0.1749  0.0770  0.1434
  764POPS   D2A10306   1.111  17.906   7.205 -0.0945 -0.0415  0.0687
  764POPS   C3A10307   1.036  18.123   7.519  0.0932  0.2144  0.0767
  764POPS   C4A10308   1.171  18.454   7.845  0.0394  0.1001  0.0933
  764POPS   C1B10309   1.208  17.401   6.856  0.0650 -0.1777 -0.1961
  764POPS   C2B10310   1.219  17.310   7.278  0.0760  0.0860  0.1377
  764POPS   C3B10311   1.080  17.078   7.684  0.2877  0.1515  0.1084
  764POPS   C4B10312   0.808  17.035   8.042 -0.0643 -0.0442 -0.0013
  765POPS   CNO10313  10.489   3.564   5.787  0.2267  0.0966 -0.1276
  765POPS   PO410314  10.119   3.468   5.619 -0.1049  0.4792 -0.2744
  765POPS   GL110315   9.910   3.354   5.969  0.3709  0.4250 -0.0806
  765POPS   GL210316  10.210   3.293   6.203  0.2758 -0.3345  0.0037
  765POPS   C1A10317   9.665   3.537   6.276  0.1133  0.1797  0.1262
  765POPS   D2A10318   9.561   3.852   6.546 -0.0522 -0.3455 -0.1114
  765POPS   C3A10319   9.481   3.915   7.014  0.0433 -0.0825 -0.3240
  765POPS   C4A10320   9.284   4.204   7.317  0.1577  0.1522  0.0678
  765POPS   C1B10321   9.808   3.155   6.508  0.0106 -0.0772  0.0665
  765POPS   C2B10322   9.564   3.404   6.914 -0.1146  0.0647 -0.1230
  765POPS   C3B10323   9.409   3.277   7.343 -0.1114 -0.1146  0.3198
  765POPS   C4B10324   9.304   3.444   7.806 -0.2052 -0.0550  0.3399
  766POPS   CNO10325   3.085  10.425   5.258  0.1442 -0.0007 -0.1458
  766POPS   PO410326   2.997  10.497   5.764  0.0042 -0.1818 -0.0531
  766POPS   GL110327   2.960  10.512   6.151 -0.1842  0.1264 -0.0256
  766POPS   GL210328   2.749  10.273   6.148  0.0378  0.1252  0.0214
  766POPS   C1A10329   2.973  10.255   6.615 -0.0351 -0.0504 -0.0107
  766POPS   D2A10330   3.105  10.027   6.825  0.3127 -0.1766  0.2101
  766POPS   C3A10331   3.134   9.678   6.692 -0.1936 -0.2596  0.1310
  766POPS   C4A10332   3.065   9.337   6.546 -0.0531 -0.3474 -0.2720
  766POPS   C1B10333   2.433  10.332   6.476 -0.0862 -0.2620  0.1401
  766POPS   C2B10334   2.426  10.554   6.869 -0.0994 -0.1737  0.1866
  766POPS   C3B10335   2.473  10.486   7.359  0.0131  0.1583 -0.0850
  766POPS   C4B10336   2.458  10.241   7.731 -0.0703 -0.0920  0.0563
  767POPS   CNO10337   3.422   4.115   5.624 -0.0809 -0.2573  0.0452
  767POPS   PO410338   3.738   3.908   5.758 -0.2130 -0.2067  0.6141
  767POPS   GL110339   3.602   3.994   6.101 -0.0017 -0.0123  0.0332
  767POPS   GL210340   3.494   4.315   6.225 -0.1096 -0.2031  0.1020
  767POPS   C1A10341   3.589   3.917   6.607  0.1577 -0.0594  0.2522
  767POPS   D2A10342   3.572   3.894   7.035 -0.2065 -0.2608  0.0529
  767POPS   C3A10343   3.608   3.922   7.479  0.0245  0.2216 -0.2377
  767POPS   C4A10344   3.901   3.849   7.796 -0.0602  0.2923 -0.1346
  767POPS   C1B10345   3.527   4.768   6.317  0.0408  0.2243 -0.2050
  767POPS   C2B10346   3.783   4.812   6.718 -0.1785  0.1243  0.1198
  767POPS   C3B10347   4.164   4.995   6.888 -0.1963 -0.0586 -0.1127
  767POPS   C4B10348   4.446   5.254   7.016  0.0383 -0.0578 -0.0417
  768POPS   CNO10349  14.210   2.758   6.544  0.1654 -0.1276  0.1630
  768POPS   PO410350  14.316   2.841   6.115  0.1963 -0.1903  0.3156
  768POPS   GL110351  14.223   3.263   6.542 -0.0624 -0.0221  0.1018
  768POPS   GL210352  13.843   3.171   6.730 -0.1359  0.0323 -0.3197
  768POPS   C1A10353  14.259   3.252   7.016  0.0439  0.1765 -0.0768
  768POPS   D2A10354  13.978   3.230   7.460 -0.0328  0.0569  0.1509
  768POPS   C3A10355  14.051   3.000   7.886 -0.1639  0.0139  0.2155
  768POPS   C4A10356  14.471   3.032   8.102 -0.2767 -0.0217  0.4255
  768POPS   C1B10357  13.668   3.327   7.084 -0.1602 -0.0640 -0.1362
  768POPS   C2B10358  13.528   3.523   7.471  0.2159 -0.4204  0.3809
  768POPS   C3B10359  13.147   3.866   7.607  0.1834 -0.1503 -0.0526
  768POPS   C4B10360  12.733   3.899   7.677 -0.0893 -0.1173 -0.4383
  769POPS   CNO10361  14.069  16.124   5.730  0.1323  0.2782  0.0154
  769POPS   PO410362  13.944  15.771   5.717  0.1133 -0.3065  0.3443
  769POPS   GL110363  13.922  15.889   6.185 -0.1281 -0.1325  0.1669
  769POPS   GL210364  14.261  15.880   6.399 -0.2429  0.1356 -0.2186
  769POPS   C1A10365  13.782  15.866   6.610  0.5350 -0.0438  0.0468
  769POPS   D2A10366  13.576  16.115   6.977 -0.2517  0.1058  0.0712
  769POPS   C3A10367  13.503  15.919   7.379 -0.2422 -0.1648  0.3582
  769POPS   C4A10368  13.696  16.232   7.639 -0.0481 -0.1483  0.1398
  769POPS   C1B10369  14.322  15.919   6.793 -0.0754  0.1277  0.1311
  769POPS   C2B10370  14.474  15.731   7.103 -0.0030  0.1940  0.1606
  769POPS   C3B10371  14.457  15.842   7.548  0.0315 -0.2821  0.2032
  769POPS   C4B10372  14.329  16.329   7.586 -0.0378  0.0495 -0.1894
  770POPS   CNO10373  11.863  13.390   6.069  0.0495  0.0696  0.1083
  770POPS   PO410374  11.500  13.314   6.488  0.2323 -0.3347 -0.0391
  770POPS   GL110375  11.783  13.265   6.753  0.0827 -0.2239  0.2323
  770POPS   GL210376  11.791  13.564   6.921  0.0811 -0.2585  0.0604
  770POPS   C1A10377  11.658  12.928   6.989  0.1937 -0.0302  0.1496
  770POPS   D2A10378  11.426  12.745   7.307  0.0889 -0.0054 -0.1618
  770POPS   C3A10379  11.438  12.955   7.753 -0.0590  0.0333  0.1235
  770POPS   C4A10380  11.160  13.311   7.887  0.1663  0.2329 -0.0158
  770POPS   C1B10381  12.294  13.442   6.899  0.0748  0.2238  0.2779
  770POPS   C2B10382  12.612  13.768   7.011  0.2102  0.2752  0.3455
  770POPS   C3B10383  12.910  14.104   7.209  0.1185  0.2052  0.0220
  770POPS   C4B10384  13.059  14.415   7.398 -0.0815 -0.0579  0.0138
  771POPS   CNO10385   2.596   5.153   5.369 -0.0474  0.2547  0.0900
  771POPS   PO410386   2.819   5.270   5.704  0.1442 -0.0854  0.0994
  771POPS   GL110387   2.843   5.572   6.051  0.0858  0.0030  0.1159
  771POPS   GL210388   3.177   5.534   6.134 -0.2654  0.3456 -0.0799
  771POPS   C1A10389   2.904   5.750   6.506 -0.1164  0.1495 -0.0779
  771POPS   D2A10390   2.897   5.848   6.955  0.2517  0.1571 -0.2987
  771POPS   C3A10391   2.648   5.550   7.110 -0.0776 -0.2114 -0.4951
  771POPS   C4A10392   2.536   5.205   7.316 -0.0329  0.3321  0.0939
  771POPS   C1B10393   3.380   5.228   6.429 -0.1586 -0.0206  0.1874
  771POPS   C2B10394   3.555   5.265   6.836  0.0572  0.2099  0.0729
  771POPS   C3B10395   3.804   5.257   7.199 -0.0105  0.1853  0.1103
  771POPS   C4B10396   3.753   5.318   7.675  0.0914  0.2579 -0.0102
  772POPS   CNO10397  15.373   1.734   5.730 -0.1284 -0.2500  0.1950
  772POPS   PO410398  15.852   1.605   5.826 -0.5623 -0.0498  0.0918
  772POPS   GL110399  15.838   1.565   6.197 -0.0123 -0.1717  0.0791
  772POPS   GL210400  16.076   1.624   6.295  0.1284  0.0385  0.0942
  772POPS   C1A10401  15.561   1.609   6.587 -0.1032  0.0392 -0.0432
  772POPS   D2A10402  15.245   1.647   6.996 -0.2389 -0.0073 -0.3277
  772POPS   C3A10403  15.383   1.340   7.344  0.1349  0.0618  0.1264
  772POPS   C4A10404  15.297   1.168   7.673 -0.1852 -0.1118 -0.2566
  772POPS   C1B10405  16.008   1.640   6.732 -0.2487  0.2596 -0.0570
  772POPS   C2B10406  15.899   1.588   7.168 -0.1825 -0.0237 -0.0401
  772POPS   C3B10407  15.777   1.521   7.600  0.0571  0.0112 -0.0006
  772POPS   C4B10408  15.510   1.460   7.960  0.0663 -0.2533 -0.1612
  773POPS   CNO10409  13.269  16.728   6.118  0.0625 -0.0853 -0.4219
  773POPS   PO410410  13.516  16.832   5.764  0.2118  0.0402 -0.1688
  773POPS   GL110411  13.748  16.835   6.183 -0.2944 -0.0768 -0.0716
  773POPS   GL210412  13.986  17.202   6.297  0.0625 -0.2172 -0.0931
  773POPS   C1A10413  13.633  16.844   6.643 -0.2276  0.0961 -0.2962
  773POPS   D2A10414  13.610  16.979   7.109 -0.1556  0.1013 -0.0895
  773POPS   C3A10415  13.496  17.344   7.364 -0.0923  0.3667  0.1056
  773POPS   C4A10416  13.680  17.726   7.503 -0.0276 -0.2318 -0.1896
  773POPS   C1B10417  13.832  17.289   6.666 -0.1202  0.2838 -0.0577
  773POPS   C2B10418  13.982  17.387   7.058  0.2304  0.2113 -0.0030
  773POPS   C3B10419  13.997  17.192   7.482  0.0869 -0.3283  0.0170
  773POPS   C4B10420  13.607  17.356   7.820 -0.2863 -0.1320 -0.0649
  774POPS   CNO10421   0.163   9.412   5.386  0.0264 -0.0202  0.2801
  774POPS   PO410422   0.367   9.442   5.773  0.3613  0.2244  0.1915
  774POPS   GL110423   0.309   9.435   6.234 -0.0602 -0.0319  0.1497
  774POPS   GL210424   0.581   9.536   6.206 -0.0575  0.3227 -0.0021
  774POPS   C1A10425   0.334   9.226   6.617  0.1174 -0.0335  0.1122
  774POPS   D2A10426   0.629   9.189   6.872  0.1748 -0.0849 -0.0360
  774POPS   C3A10427   0.709   9.322   7.356  0.0209  0.0139  0.0619
  774POPS   C4A10428   0.376   9.316   7.670  0.0274 -0.0729 -0.3252
  774POPS   C1B10429   0.654   9.647   6.595  0.0161  0.1653 -0.2094
  774POPS   C2B10430   0.630   9.756   7.092 -0.0869 -0.0569 -0.1554
  774POPS   C3B10431   0.418   9.748   7.378  0.3491 -0.1446  0.0233
  774POPS   C4B10432   0.080   9.846   7.649  0.1500 -0.1782  0.2595
  775POPS   CNO10433   2.564  11.078   5.791  0.0459 -0.0335 -0.1036
  775POPS   PO410434   2.279  10.940   5.614 -0.0252  0.1192 -0.2426
  775POPS   GL110435   2.211  10.701   5.957  0.1493 -0.0060  0.1019
  775POPS   GL210436   2.458  10.718   6.248  0.1070 -0.2311 -0.1616
  775POPS   C1A10437   1.911  10.534   6.218 -0.0017  0.0030  0.2792
  775POPS   D2A10438   1.931  10.339   6.566  0.1276  0.0773  0.2535
  775POPS   C3A10439   2.053  10.250   6.979  0.0769 -0.0558  0.4725
  775POPS   C4A10440   2.235  10.053   7.313  0.1528  0.1394  0.2766
  775POPS   C1B10441   2.477  11.021   6.631  0.1267 -0.3266 -0.1154
  775POPS   C2B10442   2.554  11.000   7.066 -0.0532  0.1763 -0.2606
  775POPS   C3B10443   2.834  10.943   7.404 -0.3565  0.0903  0.0722
  775POPS   C4B10444   3.089  10.905   7.889  0.0845  0.0425  0.0160
  776POPS   CNO10445  10.101  16.823   5.575  0.1088  0.1411 -0.0513
  776POPS   PO410446  10.399  16.578   5.808  0.1025  0.2482 -0.0289
  776POPS   GL110447  10.658  16.321   6.207  0.0847  0.0978  0.1476
  776POPS   GL210448  10.747  15.990   6.178 -0.0419 -0.1543  0.0350
  776POPS   C1A10449  10.828  16.259   6.631 -0.1680 -0.1091 -0.0664
  776POPS   D2A10450  10.886  16.086   7.062 -0.0105  0.2873 -0.0966
  776POPS   C3A10451  10.580  16.063   7.359  0.1511  0.1356  0.0012
  776POPS   C4A10452  10.383  16.262   7.842  0.2823 -0.0834  0.0385
  776POPS   C1B10453  10.494  15.719   6.423  0.0770 -0.0351 -0.0499
  776POPS   C2B10454  10.051  15.710   6.639 -0.3989 -0.1786 -0.2467
  776POPS   C3B10455   9.839  15.952   7.025  0.1535  0.1918 -0.0912
  776POPS   C4B10456   9.401  16.201   7.154  0.1625 -0.0394 -0.1146
  777POPS   CNO10457   3.826  11.226   5.445 -0.2553 -0.0853 -0.2118
  777POPS   PO410458   4.149  11.461   5.400 -0.0897 -0.1192 -0.0544
  777POPS   GL110459   4.126  11.506   5.858  0.1294 -0.0262 -0.1926
  777POPS   GL210460   4.046  11.809   6.000 -0.1478  0.0214  0.4515
  777POPS   C1A10461   3.730  11.117   5.932  0.1535 -0.2832 -0.2671
  777POPS   D2A10462   3.362  11.214   6.252  0.4020  0.1114 -0.3161
  777POPS   C3A10463   3.278  11.192   6.652  0.1731 -0.0316  0.1253
  777POPS   C4A10464   3.179  11.039   7.024 -0.0820  0.2374  0.1742
  777POPS   C1B10465   3.794  11.678   6.298  0.0696 -0.1727 -0.0373
  777POPS   C2B10466   3.911  11.673   6.672  0.1503  0.0170 -0.1546
  777POPS   C3B10467   3.866  11.579   7.145 -0.1160 -0.2038  0.1614
  777POPS   C4B10468   3.971  11.530   7.503  0.0405 -0.2359 -0.1392
  778POPS   CNO10469   4.692  17.482   6.069 -0.0074  0.2310 -0.2150
  778POPS   PO410470   5.070  17.431   6.286  0.0119 -0.0588  0.3236
  778POPS   GL110471   5.223  17.331   6.624 -0.0096 -0.1609 -0.2101
  778POPS   GL210472   5.495  17.134   6.674  0.1562 -0.0716  0.0389
  778POPS   C1A10473   5.106  17.252   7.011  0.0353 -0.2447 -0.0004
  778POPS   D2A10474   5.081  17.153   7.386 -0.0638 -0.0194  0.1210
  778POPS   C3A10475   4.788  16.988   7.660  0.1987  0.1749  0.0232
  778POPS   C4A10476   4.348  16.930   7.594  0.1097 -0.1660  0.0154
  778POPS   C1B10477   5.531  16.996   7.039 -0.0204 -0.0125 -0.1519
  778POPS   C2B10478   5.447  16.848   7.520  0.0908  0.2606 -0.0812
  778POPS   C3B10479   5.740  16.804   7.856  0.2023  0.0281 -0.0038
  778POPS   C4B10480   5.752  17.006   8.135 -0.3331 -0.0490  0.1832
  779POPS   CNO10481   2.659  12.724   6.098  0.1888 -0.1352 -0.1091
  779POPS   PO410482   2.868  12.366   5.801  0.1464  0.0299  0.1368
  779POPS   GL110483   3.185  12.478   6.117 -0.0070  0.1028 -0.0612
  779POPS   GL210484   2.951  12.383   6.351  0.0412  0.0719 -0.0452
  779POPS   C1A10485   3.355  12.162   6.386  0.1214 -0.2027  0.6038
  779POPS   D2A10486   3.382  11.761   6.544  0.2126 -0.0932  0.2408
  779POPS   C3A10487   3.335  11.536   7.009  0.1596  0.3023 -0.0749
  779POPS   C4A10488   3.167  11.389   7.355  0.2161  0.1966 -0.0821
  779POPS   C1B10489   2.919  12.122   6.712 -0.0341  0.2253 -0.1244
  779POPS   C2B10490   3.086  11.960   7.040 -0.1786 -0.1308  0.3708
  779POPS   C3B10491   2.907  11.873   7.364  0.1053 -0.1031 -0.2286
  779POPS   C4B10492   2.970  11.716   7.741 -0.1765 -0.1034  0.3324
  780POPS   CNO10493   1.473  11.939   5.189  0.0577 -0.1116 -0.0144
  780POPS   PO410494   1.644  12.127   5.491 -0.0067 -0.1595  0.0714
  780POPS   GL110495   1.526  12.116   5.931 -0.3635 -0.1815  0.1693
  780POPS   GL210496   1.839  12.291   5.993  0.4485 -0.0155 -0.4323
  780POPS   C1A10497   1.377  12.325   6.300 -0.0035  0.2850  0.0655
  780POPS   D2A10498   0.944  11.973   6.461  0.2151 -0.0121  0.1153
  780POPS   C3A10499   0.875  12.152   6.874  0.1558 -0.1770 -0.0586
  780POPS   C4A10500   1.065  12.363   7.148 -0.0425 -0.4172  0.0223
  780POPS   C1B10501   1.999  12.092   6.472  0.3684 -0.1798  0.3331
  780POPS   C2B10502   2.056  12.345   6.842  0.2126 -0.1390  0.2945
  780POPS   C3B10503   2.244  12.637   6.965 -0.0795 -0.3741  0.1914
  780POPS   C4B10504   2.269  13.046   7.152  0.1754 -0.0727 -0.0211
  781POPS   CNO10505  17.480   7.877   6.079 -0.0742  0.3547  0.0887
  781POPS   PO410506  17.873   7.689   6.123 -0.2071 -0.0153  0.2234
  781POPS   GL110507  17.787   7.532   6.466 -0.1727  0.0651 -0.2176
  781POPS   GL210508  17.487   7.598   6.575  0.0803  0.0461  0.0493
  781POPS   C1A10509  17.759   7.523   6.938 -0.0612 -0.1329 -0.1171
  781POPS   D2A10510  17.943   7.381   7.354 -0.1974 -0.3866  0.1280
  781POPS   C3A10511  17.691   7.351   7.776 -0.0835 -0.0634  0.1849
  781POPS   C4A10512  17.298   7.202   7.731  0.0097 -0.2663 -0.2088
  781POPS   C1B10513  17.358   7.863   6.892 -0.2123 -0.0693 -0.1668
  781POPS   C2B10514  17.274   8.046   7.208  0.3537  0.0433 -0.1603
  781POPS   C3B10515  17.097   8.450   7.208  0.0408 -0.0294 -0.0922
  781POPS   C4B10516  16.801   8.655   7.199  0.3064 -0.0296 -0.2112
  782POPS   CNO10517   3.886  15.880   6.203 -0.2598  0.0398 -0.1303
  782POPS   PO410518   3.507  15.881   6.007  0.2676 -0.1885  0.1621
  782POPS   GL110519   3.205  16.178   6.292 -0.3071  0.2560  0.1419
  782POPS   GL210520   3.071  15.997   6.378 -0.0996  0.3262  0.0782
  782POPS   C1A10521   2.985  16.538   6.541 -0.2608  0.3035 -0.2905
  782POPS   D2A10522   3.143  16.902   6.641  0.1828 -0.1096  0.0103
  782POPS   C3A10523   2.926  17.307   6.569 -0.0035  0.0714 -0.0565
  782POPS   C4A10524   2.956  17.673   6.729 -0.2790  0.2163  0.1572
  782POPS   C1B10525   3.107  15.888   6.866  0.0213 -0.2483 -0.1554
  782POPS   C2B10526   2.991  15.833   7.271  0.3567 -0.1230  0.0639
  782POPS   C3B10527   2.900  15.735   7.711 -0.1104  0.1237 -0.2792
  782POPS   C4B10528   2.690  15.653   8.173  0.0639 -0.1411  0.2130
  783POPS   CNO10529   1.949  12.689   5.497 -0.4132 -0.0738 -0.2049
  783POPS   PO410530   2.153  12.867   5.646 -0.2280 -0.3850  0.1298
  783POPS   GL110531   2.263  12.507   5.932  0.1005 -0.0636  0.1411
  783POPS   GL210532   2.416  12.203   5.948 -0.2938 -0.1030 -0.1406
  783POPS   C1A10533   2.149  12.551   6.296  0.0985 -0.2296 -0.0349
  783POPS   D2A10534   1.771  12.645   6.560 -0.1409 -0.0992  0.0645
  783POPS   C3A10535   1.785  12.702   7.037  0.1306  0.0857  0.1729
  783POPS   C4A10536   1.980  12.677   7.353  0.1093 -0.1756  0.0954
  783POPS   C1B10537   2.481  12.208   6.412 -0.3223  0.2553  0.1853
  783POPS   C2B10538   2.408  12.003   6.773  0.2692 -0.2485  0.2781
  783POPS   C3B10539   2.438  11.836   7.157  0.1406 -0.1935  0.0544
  783POPS   C4B10540   2.479  11.840   7.613 -0.1959  0.1053 -0.0185
  784POPS   CNO10541   1.791   3.668   5.900  0.1181 -0.0478  0.1075
  784POPS   PO410542   2.010   3.274   6.032  0.0107 -0.2137  0.1814
  784POPS   GL110543   2.345   3.332   6.340 -0.2647  0.1048  0.0489
  784POPS   GL210544   2.436   2.999   6.510  0.1286  0.3277 -0.1126
  784POPS   C1A10545   2.495   3.564   6.692  0.3044 -0.1918  0.3369
  784POPS   D2A10546   2.703   3.654   7.015  0.2073  0.2838 -0.0709
  784POPS   C3A10547   2.583   3.668   7.419 -0.3690  0.4008 -0.0728
  784POPS   C4A10548   2.400   3.894   7.697  0.0393  0.0384 -0.3127
  784POPS   C1B10549   2.548   3.088   6.892  0.0208  0.4935 -0.0595
  784POPS   C2B10550   2.605   3.159   7.326 -0.0419  0.2985 -0.1366
  784POPS   C3B10551   2.748   3.202   7.764 -0.4453 -0.0185  0.0432
  784POPS   C4B10552   3.187   3.170   7.845  0.0211  0.1064  0.2091
  785POPS   CNO10553  12.899   0.678   5.576 -0.0585  0.0600  0.2297
  785POPS   PO410554  12.954   0.895   6.001  0.4002 -0.0729 -0.0979
  785POPS   GL110555  12.689   0.729   6.258 -0.0017 -0.1424 -0.0183
  785POPS   GL210556  12.711   0.403   6.348 -0.1421 -0.1614  0.0459
  785POPS   C1A10557  12.494   0.720   6.682  0.5999 -0.1475  0.0224
  785POPS   D2A10558  12.613   0.809   7.054 -0.1325  0.1667 -0.1134
  785POPS   C3A10559  12.602   1.221   7.268  0.0492  0.0544 -0.1543
  785POPS   C4A10560  12.481   1.346   7.703  0.0666 -0.1114 -0.4297
  785POPS   C1B10561  12.985   0.258   6.619 -0.3438  0.2432 -0.1093
  785POPS   C2B10562  12.850   0.285   7.109 -0.0502  0.1061  0.1834
  785POPS   C3B10563  12.709   0.508   7.506  0.0698  0.0815  0.3137
  785POPS   C4B10564  12.794   0.903   7.701 -0.1061 -0.1635 -0.0306
  786POPS   CNO10565  10.163   0.936   5.902  0.1135  0.2230  0.3298
  786POPS   PO410566  10.533   1.181   6.010 -0.2676  0.1818 -0.0858
  786POPS   GL110567  10.314   1.176   6.416  0.1119  0.1507  0.0810
  786POPS   GL210568  10.207   0.888   6.530  0.1428 -0.1825 -0.0337
  786POPS   C1A10569  10.068   1.387   6.748  0.0656  0.0093 -0.2948
  786POPS   D2A10570  10.082   1.739   7.105 -0.1508  0.2769 -0.0345
  786POPS   C3A10571  10.263   1.787   7.453 -0.0238 -0.0156  0.0549
  786POPS   C4A10572  10.656   2.005   7.658  0.2446 -0.0736 -0.0190
  786POPS   C1B10573  10.367   0.899   6.932 -0.0767 -0.2965  0.1577
  786POPS   C2B10574  10.159   1.164   7.210  0.0299  0.0979  0.0412
  786POPS   C3B10575  10.268   1.268   7.610 -0.1802 -0.1040  0.2720
  786POPS   C4B10576   9.908   1.293   7.962  0.2474  0.0621  0.0600
  787POPS   CNO10577   5.751   6.730   5.216  0.0206 -0.0085 -0.0772
  787POPS   PO410578   5.584   6.891   5.628  0.4210  0.2115 -0.1299
  787POPS   GL110579   5.423   6.775   6.117 -0.4421  0.0317 -0.2181
  787POPS   GL210580   5.696   6.901   6.338 -0.2196 -0.0165  0.0048
  787POPS   C1A10581   5.304   7.105   6.408  0.0528 -0.1850  0.0652
  787POPS   D2A10582   5.405   7.434   6.554  0.2531  0.2017 -0.0290
  787POPS   C3A10583   5.403   7.708   6.797 -0.0292 -0.3293  0.0053
  787POPS   C4A10584   5.307   7.952   7.218  0.1865 -0.1023 -0.1118
  787POPS   C1B10585   5.613   7.008   6.795 -0.4008 -0.2332  0.4528
  787POPS   C2B10586   5.669   6.991   7.248  0.1503  0.3861 -0.0719
  787POPS   C3B10587   5.403   6.957   7.604 -0.0411 -0.1986  0.0537
  787POPS   C4B10588   4.974   6.900   7.807  0.2280 -0.0538 -0.5331
  788POPS   CNO10589   6.076   0.306   6.254  0.3450 -0.1565 -0.2100
  788POPS   PO410590   6.433   0.249   6.357 -0.0856 -0.0139  0.1353
  788POPS   GL110591   6.623   0.333   6.777 -0.0415  0.0893 -0.0787
  788POPS   GL210592   6.613   0.749   6.865  0.1256  0.3105  0.1807
  788POPS   C1A10593   6.775   0.361   7.209 -0.0417 -0.1688 -0.2548
  788POPS   D2A10594   6.697   0.490   7.610 -0.0265  0.0457  0.1470
  788POPS   C3A10595   6.655   0.369   8.027  0.0262 -0.1712 -0.0732
  788POPS   C4A10596   6.841   0.661   8.459  0.1636  0.0903 -0.0301
  788POPS   C1B10597   6.394   0.734   7.228  0.1723 -0.4314  0.0766
  788POPS   C2B10598   6.328   0.805   7.676  0.0446  0.0014  0.0011
  788POPS   C3B10599   6.221   0.631   7.983 -0.0756 -0.1654  0.0178
  788POPS   C4B10600   6.277   0.452   8.357 -0.0226  0.1995  0.0510
  789POPS   CNO10601   2.648   2.800   5.740 -0.0679 -0.1224  0.1474
  789POPS   PO410602   2.642   2.661   6.252  0.0335  0.2136 -0.0223
  789POPS   GL110603   2.971   2.760   6.519  0.3690  0.0888  0.1226
  789POPS   GL210604   3.199   2.948   6.459 -0.0211 -0.1064  0.0971
  789POPS   C1A10605   3.096   2.723   6.970 -0.1256  0.0616  0.0422
  789POPS   D2A10606   3.114   3.005   7.321 -0.0337 -0.0044 -0.0899
  789POPS   C3A10607   3.032   3.438   7.422 -0.2257 -0.1797  0.2338
  789POPS   C4A10608   2.972   3.640   7.822 -0.0384 -0.0449 -0.0662
  789POPS   C1B10609   3.513   2.836   6.660  0.1369  0.1211  0.1533
  789POPS   C2B10610   3.533   2.752   7.165  0.0614 -0.2888 -0.2203
  789POPS   C3B10611   3.586   2.907   7.568  0.0580  0.0133  0.1518
  789POPS   C4B10612   3.799   3.143   7.847 -0.1869  0.0625  0.0881
  790POPS   CNO10613   7.461  13.332   5.721 -0.1580 -0.0792  0.0292
  790POPS   PO410614   7.685  13.653   6.088 -0.3594  0.3200  0.0095
  790POPS   GL110615   7.420  13.475   6.461  0.0154 -0.1037  0.1657
  790POPS   GL210616   7.365  13.876   6.474 -0.0623  0.1153  0.0873
  790POPS   C1A10617   7.485  13.386   6.893 -0.0059  0.2072  0.3022
  790POPS   D2A10618   7.691  13.409   7.237  0.0561 -0.0841 -0.1669
  790POPS   C3A10619   7.749  13.708   7.523  0.1921 -0.0275 -0.0166
  790POPS   C4A10620   7.526  13.970   7.793 -0.2703 -0.1635  0.0471
  790POPS   C1B10621   7.288  13.825   6.835 -0.0824  0.0548 -0.0986
  790POPS   C2B10622   7.333  13.803   7.285 -0.1987  0.1331 -0.0068
  790POPS   C3B10623   7.130  13.637   7.549 -0.0498 -0.1049  0.1206
  790POPS   C4B10624   7.171  13.468   7.948  0.0972 -0.3931 -0.0786
  791POPS   CNO10625  10.150   7.697   5.618 -0.2850 -0.0136  0.1184
  791POPS   PO410626  10.486   7.509   5.923  0.1951 -0.1122  0.0356
  791POPS   GL110627  10.599   7.324   6.205  0.0472  0.3409 -0.1091
  791POPS   GL210628  10.907   7.248   6.268  0.3532 -0.2503 -0.1429
  791POPS   C1A10629  10.490   7.430   6.553 -0.1570 -0.0544  0.0414
  791POPS   D2A10630  10.300   7.675   6.603  0.1398 -0.2998 -0.0865
  791POPS   C3A10631   9.986   7.711   6.915  0.2631  0.1321  0.0372
  791POPS   C4A10632   9.663   7.970   7.137  0.1926  0.2592 -0.1164
  791POPS   C1B10633  10.864   7.051   6.657 -0.0183  0.1202  0.2573
  791POPS   C2B10634  10.715   7.158   6.929  0.2498 -0.1010 -0.1934
  791POPS   C3B10635  10.731   7.383   7.364  0.1258  0.0064 -0.2918
  791POPS   C4B10636  10.785   7.471   7.888  0.2096 -0.2269 -0.0358
  792POPS   CNO10637  10.806   5.274   5.281 -0.0694  0.0819 -0.3623
  792POPS   PO410638  10.848   4.875   5.503  0.1253  0.5055 -0.0184
  792POPS   GL110639  10.720   4.982   5.884 -0.0552  0.0416 -0.1844
  792POPS   GL210640  11.004   4.831   6.106  0.0072 -0.3126  0.1084
  792POPS   C1A10641  10.542   4.818   6.270 -0.3836 -0.1516 -0.0794
  792POPS   D2A10642  10.505   4.659   6.689 -0.0346  0.0116  0.0458
  792POPS   C3A10643  10.529   4.391   7.066  0.2175 -0.1316  0.4930
  792POPS   C4A10644  10.287   4.106   7.425 -0.0695 -0.1084  0.0593
  792POPS   C1B10645  11.017   4.809   6.548  0.0207 -0.2405 -0.5823
  792POPS   C2B10646  10.915   4.723   7.022  0.3693  0.1636 -0.0137
  792POPS   C3B10647  10.896   4.931   7.451  0.3134  0.0745  0.1632
  792POPS   C4B10648  10.615   5.092   7.791  0.1030  0.2821  0.0870
  793POPS   CNO10649   9.719   0.567   5.595 -0.0678 -0.3484  0.0816
  793POPS   PO410650   9.333   0.546   5.756 -0.1157  0.1320 -0.3164
  793POPS   GL110651   9.159   0.893   6.042 -0.1074 -0.1428 -0.0501
  793POPS   GL210652   8.727   0.811   6.154  0.1814 -0.0685 -0.3055
  793POPS   C1A10653   9.214   1.127   6.388 -0.1361  0.1836 -0.1212
  793POPS   D2A10654   9.462   1.305   6.660  0.0871  0.1362  0.2217
  793POPS   C3A10655   9.773   1.028   6.640  0.0029  0.0649 -0.2489
  793POPS   C4A10656   9.849   0.546   6.597  0.3054 -0.1910  0.2288
  793POPS   C1B10657   8.658   1.151   6.415 -0.2360  0.1577 -0.1710
  793POPS   C2B10658   8.978   1.401   6.728  0.4319 -0.2446  0.1123
  793POPS   C3B10659   8.806   1.596   7.206 -0.0619  0.2524 -0.0606
  793POPS   C4B10660   8.584   1.534   7.689  0.1749  0.3671  0.2228
  794POPS   CNO10661  16.273  13.283   6.104  0.0984 -0.0994 -0.1662
  794POPS   PO410662  16.479  13.480   6.279  0.0892 -0.0075  0.0118
  794POPS   GL110663  16.648  13.104   6.504  0.2191 -0.1089  0.1056
  794POPS   GL210664  16.970  13.002   6.366  0.1616  0.1179 -0.1232
  794POPS   C1A10665  16.699  13.115   6.903 -0.0568 -0.3261  0.1332
  794POPS   D2A10666  16.774  13.269   7.246  0.1892 -0.0464  0.0860
  794POPS   C3A10667  16.967  13.089   7.605 -0.0546  0.2611  0.0198
  794POPS   C4A10668  17.196  12.842   7.973  0.0485 -0.0647 -0.2293
  794POPS   C1B10669  17.181  13.167   6.784 -0.2795  0.0402  0.4115
  794POPS   C2B10670  17.354  13.308   7.158  0.4526  0.0479  0.1030
  794POPS   C3B10671  17.372  13.307   7.508 -0.1233 -0.0910 -0.0032
  794POPS   C4B10672  17.352  13.333   7.985 -0.1044  0.1427  0.3154
  795POPS   CNO10673  11.710   2.424   5.419  0.0332 -0.0711 -0.3392
  795POPS   PO410674  11.237   2.408   5.425  0.1822  0.0162  0.1028
  795POPS   GL110675  11.375   2.527   5.883 -0.2572  0.1875  0.1439
  795POPS   GL210676  11.729   2.360   5.956  0.0932  0.0772 -0.3001
  795POPS   C1A10677  11.535   2.626   6.350  0.3705  0.1355 -0.0643
  795POPS   D2A10678  11.479   2.690   6.748 -0.1886  0.0758 -0.0724
  795POPS   C3A10679  11.370   2.454   7.147  0.0452  0.0598 -0.3293
  795POPS   C4A10680  11.462   2.503   7.594 -0.0339 -0.3298 -0.0404
  795POPS   C1B10681  12.033   2.541   6.274 -0.4585  0.2242 -0.0990
  795POPS   C2B10682  11.990   2.647   6.706  0.1160 -0.2565 -0.5657
  795POPS   C3B10683  12.098   2.452   7.149  0.0763 -0.2275  0.3228
  795POPS   C4B10684  12.333   2.099   7.119  0.0268 -0.0713  0.2000
  796POPS   CNO10685  17.715   6.916   5.400  0.2277  0.2448  0.4960
  796POPS   PO410686  17.351   6.886   5.861  0.2475  0.2078  0.0882
  796POPS   GL110687  17.475   6.820   6.245 -0.2052  0.1329 -0.1808
  796POPS   GL210688  17.582   6.551   6.325  0.1476 -0.1418 -0.1658
  796POPS   C1A10689  17.454   7.135   6.713 -0.2338 -0.1002  0.2201
  796POPS   D2A10690  17.215   7.376   6.827  0.4954  0.4102  0.0245
  796POPS   C3A10691  17.066   7.371   7.298  0.0402  0.0079  0.4026
  796POPS   C4A10692  16.749   7.293   7.546 -0.2076 -0.1503  0.0168
  796POPS   C1B10693  17.471   6.623   6.735  0.0233 -0.1085  0.0247
  796POPS   C2B10694  17.560   6.592   7.199  0.0136 -0.0581  0.1162
  796POPS   C3B10695  17.530   6.690   7.580  0.2770 -0.1215 -0.0985
  796POPS   C4B10696  17.720   6.893   8.005 -0.0479 -0.1483 -0.1852
  797POPS   CNO10697  15.312   9.519   6.116  0.1553  0.5284 -0.0262
  797POPS   PO410698  15.301   9.960   6.144  0.0841  0.2576  0.3764
  797POPS   GL110699  15.218   9.797   6.564 -0.0420 -0.2028 -0.2992
  797POPS   GL210700  15.165   9.989   6.832 -0.1992 -0.1325  0.0328
  797POPS   C1A10701  15.262   9.475   6.930 -0.3381 -0.2153  0.1631
  797POPS   D2A10702  15.335   9.505   7.389 -0.0292  0.1288  0.0839
  797POPS   C3A10703  15.174   9.557   7.760 -0.0226  0.3942 -0.1470
  797POPS   C4A10704  14.882   9.285   8.037 -0.1901 -0.0687  0.4899
  797POPS   C1B10705  15.229   9.939   7.209 -0.3550 -0.2591  0.0989
  797POPS   C2B10706  15.340  10.034   7.581 -0.5069  0.1277  0.3463
  797POPS   C3B10707  15.548   9.791   7.959  0.1927 -0.3412 -0.2265
  797POPS   C4B10708  15.906   9.832   8.226  0.0491 -0.1220  0.0816
  798POPS   CNO10709   7.792   7.529   5.938  0.0783  0.0663 -0.1670
  798POPS   PO410710   7.609   7.187   5.854 -0.0594  0.2646 -0.2211
  798POPS   GL110711   7.343   7.339   6.122 -0.1263  0.1640 -0.2532
  798POPS   GL210712   7.186   7.015   6.116 -0.3934  0.0552 -0.3010
  798POPS   C1A10713   7.382   7.349   6.595  0.1952 -0.4330  0.0659
  798POPS   D2A10714   7.684   7.589   6.914 -0.3809 -0.0479  0.1714
  798POPS   C3A10715   7.445   7.542   7.288 -0.4970 -0.0418 -0.1137
  798POPS   C4A10716   7.671   7.629   7.627  0.1294  0.0122 -0.0053
  798POPS   C1B10717   7.293   6.879   6.455 -0.2404 -0.0133  0.0768
  798POPS   C2B10718   7.358   6.941   6.893 -0.2060  0.1458 -0.1290
  798POPS   C3B10719   7.572   6.944   7.312 -0.2747  0.0239 -0.0592
  798POPS   C4B10720   7.920   6.698   7.470  0.1337  0.1288  0.0751
  799POPS   CNO10721   6.402   3.664   5.069 -0.0832 -0.1175 -0.0626
  799POPS   PO410722   6.301   3.863   5.500 -0.3482  0.1268  0.1303
  799POPS   GL110723   6.506   3.595   5.850 -0.0592 -0.0534 -0.5278
  799POPS   GL210724   6.725   3.278   5.851  0.2397 -0.2890  0.0660
  799POPS   C1A10725   6.500   3.514   6.246  0.1973  0.0051 -0.3902
  799POPS   D2A10726   6.573   3.323   6.769  0.0241 -0.0780  0.2795
  799POPS   C3A10727   6.491   3.554   7.146  0.2004 -0.0888 -0.1466
  799POPS   C4A10728   6.925   3.697   7.357 -0.0844 -0.2805 -0.1711
  799POPS   C1B10729   6.844   3.182   6.293 -0.4765 -0.2630  0.2550
  799POPS   C2B10730   6.992   3.106   6.738  0.2418 -0.1226 -0.0153
  799POPS   C3B10731   6.944   3.279   7.123 -0.0138  0.0165 -0.2462
  799POPS   C4B10732   6.888   3.215   7.527 -0.2019  0.1903  0.0340
  800POPS   CNO10733   5.153  10.223   5.474 -0.0692  0.1381 -0.1292
  800POPS   PO410734   5.147  10.583   5.757 -0.3100 -0.4756  0.1062
  800POPS   GL110735   5.221  10.382   6.184  0.2124 -0.1723 -0.0097
  800POPS   GL210736   5.497  10.432   6.281 -0.2345 -0.0377  0.1314
  800POPS   C1A10737   5.178  10.105   6.609  0.0787 -0.0048  0.2600
  800POPS   D2A10738   5.119  10.215   7.051 -0.2884 -0.0425  0.0873
  800POPS   C3A10739   5.135   9.945   7.371 -0.4383 -0.0509 -0.0790
  800POPS   C4A10740   5.080   9.708   7.725  0.2581  0.3686  0.0487
  800POPS   C1B10741   5.625  10.294   6.695  0.1481 -0.0460 -0.2127
  800POPS   C2B10742   5.573  10.464   7.140  0.1239  0.2007  0.2595
  800POPS   C3B10743   5.454  10.364   7.494  0.1068 -0.2382 -0.0332
  800POPS   C4B10744   5.499   9.985   7.706 -0.1429 -0.2070 -0.0592
  801POPS   CNO10745  11.287   0.057   5.987  0.0637  0.2701  0.1875
  801POPS   PO410746  11.359  -0.406   5.987 -0.2283  0.0999  0.1711
  801POPS   GL110747  11.129  -0.371   6.400 -0.0170  0.0427  0.2668
  801POPS   GL210748  11.118  -0.118   6.495  0.1266  0.1949 -0.0886
  801POPS   C1A10749  11.024  -0.484   6.839 -0.4381 -0.2456 -0.1922
  801POPS   D2A10750  11.195  -0.243   7.130 -0.2361  0.1413 -0.0728
  801POPS   C3A10751  11.416  -0.041   6.937 -0.2617 -0.0465  0.1646
  801POPS   C4A10752  11.602  -0.062   6.473  0.1043 -0.0036  0.2337
  801POPS   C1B10753  11.206   0.306   6.697 -0.1220 -0.0193  0.0464
  801POPS   C2B10754  11.177   0.586   6.987 -0.0399  0.0145  0.0713
  801POPS   C3B10755  11.299   0.798   7.367 -0.0045  0.1338  0.0430
  801POPS   C4B10756  11.014   1.090   7.570  0.0750  0.0236 -0.1543
  802POPS   CNO10757   7.150   2.204   5.488 -0.0582  0.0167 -0.0662
  802POPS   PO410758   6.954   2.004   5.942  0.0221 -0.1835 -0.1854
  802POPS   GL110759   6.930   2.312   6.326 -0.0289 -0.1362 -0.0005
  802POPS   GL210760   6.749   2.078   6.517  0.2986  0.0787 -0.1587
  802POPS   C1A10761   6.988   2.634   6.634 -0.0040 -0.0299 -0.0205
  802POPS   D2A10762   6.748   2.734   7.028 -0.2133  0.0809  0.1725
  802POPS   C3A10763   7.003   2.664   7.373  0.1208  0.0764  0.1169
  802POPS   C4A10764   6.913   2.716   7.778 -0.2967  0.0548  0.2196
  802POPS   C1B10765   6.943   2.244   6.946  0.3293  0.0508 -0.1620
  802POPS   C2B10766   7.069   2.022   7.335 -0.0129 -0.1611  0.1948
  802POPS   C3B10767   7.008   2.221   7.749 -0.1001 -0.0997 -0.1792
  802POPS   C4B10768   7.291   2.428   7.902 -0.3702  0.1510  0.2350
  803POPS   CNO10769   8.002   0.757   5.442 -0.1855 -0.1098  0.0724
  803POPS   PO410770   7.963   0.790   5.861  0.3529 -0.1950 -0.0511
  803POPS   GL110771   8.169   0.779   6.346  0.2862 -0.2848  0.0989
  803POPS   GL210772   7.915   0.856   6.495 -0.1265  0.0340 -0.1973
  803POPS   C1A10773   8.144   0.483   6.768 -0.3051  0.3303  0.1321
  803POPS   D2A10774   8.523   0.338   6.985 -0.1062 -0.0698 -0.1659
  803POPS   C3A10775   8.767   0.554   7.285 -0.3300 -0.0667 -0.2072
  803POPS   C4A10776   9.011   0.465   7.677  0.1536  0.0033  0.1176
  803POPS   C1B10777   8.023   1.155   6.811  0.2591  0.2753  0.0929
  803POPS   C2B10778   7.848   1.302   7.214 -0.4586  0.1479 -0.0852
  803POPS   C3B10779   7.898   1.138   7.609 -0.0611  0.2163  0.0636
  803POPS   C4B10780   8.129   1.142   7.979 -0.1561 -0.1972 -0.4048
  804POPS   CNO10781   7.474  14.611   6.013 -0.4047  0.1851 -0.2231
  804POPS   PO410782   7.231  15.042   5.998  0.0407  0.1019  0.1155
  804POPS   GL110783   7.456  15.040   6.338  0.1113 -0.0147  0.1475
  804POPS   GL210784   7.680  15.287   6.349 -0.0581 -0.2115 -0.0468
  804POPS   C1A10785   7.426  14.962   6.791 -0.0025 -0.3138  0.3627
  804POPS   D2A10786   7.557  14.630   7.073  0.1220 -0.0526 -0.2626
  804POPS   C3A10787   7.404  14.766   7.370 -0.0963 -0.1279  0.0694
  804POPS   C4A10788   7.314  14.765   7.768 -0.0904  0.0856  0.0983
  804POPS   C1B10789   7.890  14.973   6.677  0.0659 -0.2977 -0.1122
  804POPS   C2B10790   7.935  15.005   7.097 -0.0722  0.0399  0.0803
  804POPS   C3B10791   7.888  14.878   7.514 -0.0000  0.0646  0.2399
  804POPS   C4B10792   7.764  15.013   7.872  0.3096 -0.1715  0.2185
  805POPS   CNO10793   1.281  10.630   5.524 -0.0033  0.0206  0.0276
  805POPS   PO410794   0.968  10.679   5.631  0.0249  0.0340  0.0110
  805POPS   GL110795   1.097  10.881   5.970  0.2748 -0.1041  0.0481
  805POPS   GL210796   0.865  10.969   6.050  0.1203 -0.1894 -0.0255
  805POPS   C1A10797   1.349  11.035   6.310 -0.1374  0.0010 -0.0400
  805POPS   D2A10798   1.532  11.228   6.605  0.5373 -0.0039  0.2103
  805POPS   C3A10799   1.718  11.426   6.705 -0.4481 -0.2147 -0.4426
  805POPS   C4A10800   1.927  11.781   6.798  0.0750 -0.0759 -0.1149
  805POPS   C1B10801   0.845  11.130   6.459 -0.0739 -0.0395 -0.5326
  805POPS   C2B10802   1.030  11.237   6.828  0.1539 -0.0621 -0.2589
  805POPS   C3B10803   1.053  11.074   7.305 -0.2296 -0.1644 -0.0153
  805POPS   C4B10804   0.747  11.174   7.645  0.0553  0.1697  0.0265
  806POPS   CNO10805   3.104  14.015   6.014  0.3284  0.2500 -0.3393
  806POPS   PO410806   3.383  14.339   5.813 -0.3169  0.3172  0.2684
  806POPS   GL110807   3.456  14.301   6.253  0.3041 -0.1758 -0.2239
  806POPS   GL210808   3.477  14.036   6.469 -0.2509 -0.0197  0.2531
  806POPS   C1A10809   3.693  14.462   6.629 -0.1184  0.0581  0.2618
  806POPS   D2A10810   3.615  14.598   7.065 -0.0204  0.1045  0.2826
  806POPS   C3A10811   3.893  15.099   7.148  0.1707 -0.3342  0.2401
  806POPS   C4A10812   3.865  15.139   7.617  0.2075 -0.1187 -0.0758
  806POPS   C1B10813   3.602  13.711   6.852 -0.2787 -0.1093  0.2023
  806POPS   C2B10814   3.580  13.547   7.242  0.3558 -0.0548  0.1874
  806POPS   C3B10815   3.575  13.300   7.664  0.0410  0.1782 -0.0821
  806POPS   C4B10816   3.323  13.249   8.105 -0.1380  0.0583 -0.2575
  807POPS   CNO10817   6.399   9.524   5.938  0.1429 -0.0353  0.0725
  807POPS   PO410818   5.986   9.659   5.856 -0.1043  0.2251 -0.1754
  807POPS   GL110819   5.879   9.349   6.055 -0.1838 -0.0144 -0.2074
  807POPS   GL210820   5.667   9.153   5.922 -0.0116  0.4516  0.1520
  807POPS   C1A10821   5.668   9.431   6.436 -0.1051 -0.1645 -0.0436
  807POPS   D2A10822   5.658   9.365   6.932  0.3573  0.1079  0.0553
  807POPS   C3A10823   5.814   9.149   7.302  0.0552  0.0704  0.2898
  807POPS   C4A10824   5.707   8.909   7.614  0.2373  0.0918  0.0819
  807POPS   C1B10825   5.733   8.929   6.372  0.0691 -0.5557 -0.0721
  807POPS   C2B10826   6.060   8.986   6.729  0.1631  0.0662 -0.4439
  807POPS   C3B10827   6.236   8.988   7.097 -0.0060 -0.0538 -0.0363
  807POPS   C4B10828   6.580   8.753   7.302  0.1265  0.0715  0.1997
  808POPS   CNO10829  13.427   6.318   6.063 -0.0142 -0.0385 -0.0101
  808POPS   PO410830  13.870   6.371   6.274 -0.0299  0.1296 -0.2743
  808POPS   GL110831  13.904   6.319   6.747 -0.1986  0.0073  0.1283
  808POPS   GL210832  13.680   6.249   7.055 -0.0841 -0.0109 -0.0711
  808POPS   C1A10833  13.965   5.819   6.902 -0.1093  0.1472 -0.4796
  808POPS   D2A10834  14.026   5.516   7.269  0.1492  0.3120 -0.2432
  808POPS   C3A10835  14.210   5.399   7.656  0.1167  0.0058  0.0298
  808POPS   C4A10836  14.556   5.362   7.839 -0.1678  0.2943  0.1065
  808POPS   C1B10837  13.463   6.474   7.305  0.2530  0.1296 -0.2273
  808POPS   C2B10838  13.501   6.728   7.686 -0.3378 -0.0969 -0.0723
  808POPS   C3B10839  13.679   6.912   7.927 -0.0768 -0.0841 -0.1491
  808POPS   C4B10840  13.742   6.912   8.377 -0.0593 -0.0184 -0.5004
  809POPS   CNO10841   8.300   2.922   5.279 -0.0500 -0.2625  0.0786
  809POPS   PO410842   8.712   2.739   5.327 -0.1487  0.1355 -0.0125
  809POPS   GL110843   8.541   2.851   5.727 -0.0311  0.2345 -0.0237
  809POPS   GL210844   8.374   2.559   5.852 -0.2168  0.0202  0.2333
  809POPS   C1A10845   8.544   2.942   6.142  0.0169  0.1351 -0.4483
  809POPS   D2A10846   8.396   2.851   6.628 -0.1512 -0.0796 -0.0195
  809POPS   C3A10847   8.353   3.194   6.863 -0.0108  0.0358  0.0487
  809POPS   C4A10848   8.168   3.616   6.886  0.2517  0.4018  0.0213
  809POPS   C1B10849   8.186   2.579   6.252 -0.2990  0.0910 -0.2554
  809POPS   C2B10850   7.878   2.576   6.607  0.0331  0.0821  0.1593
  809POPS   C3B10851   7.954   2.731   6.961 -0.4428 -0.1734  0.1723
  809POPS   C4B10852   7.815   2.793   7.362 -0.1166 -0.3541 -0.1767
  810POPS   CNO10853   1.810  13.704   5.614 -0.1690  0.2376 -0.1233
  810POPS   PO410854   1.502  13.520   5.852 -0.1113 -0.1136  0.0717
  810POPS   GL110855   1.194  13.492   6.186  0.2813  0.2306  0.1021
  810POPS   GL210856   1.013  13.179   6.178 -0.1495  0.1224  0.1444
  810POPS   C1A10857   1.091  13.434   6.619 -0.1089  0.0993 -0.2205
  810POPS   D2A10858   1.021  13.180   6.982  0.1607 -0.1581  0.0609
  810POPS   C3A10859   0.953  13.353   7.390  0.1511 -0.1728 -0.4054
  810POPS   C4A10860   0.923  13.824   7.512  0.0121  0.2252  0.4071
  810POPS   C1B10861   0.916  12.950   6.579 -0.1271  0.0708 -0.3503
  810POPS   C2B10862   0.797  12.678   6.961 -0.0805 -0.0936 -0.1963
  810POPS   C3B10863   0.637  12.505   7.367  0.1278  0.2574  0.0664
  810POPS   C4B10864   0.338  12.302   7.697  0.0804 -0.0232 -0.0327
  811POPS   CNO10865   5.420   8.217   5.729  0.1640  0.0604  0.1183
  811POPS   PO410866   5.068   8.201   6.013  0.0859 -0.1577  0.3306
  811POPS   GL110867   5.120   8.229   6.426  0.0494 -0.1057  0.0098
  811POPS   GL210868   5.050   8.029   6.613 -0.3135  0.2161  0.0879
  811POPS   C1A10869   5.322   8.425   6.767  0.0543 -0.0248 -0.1784
  811POPS   D2A10870   5.546   8.373   7.090 -0.0815  0.0334 -0.0171
  811POPS   C3A10871   5.721   8.264   7.533 -0.0619 -0.0022 -0.4096
  811POPS   C4A10872   6.009   8.217   7.779 -0.1401 -0.4085  0.0670
  811POPS   C1B10873   4.761   8.147   6.949  0.1561 -0.3730  0.0173
  811POPS   C2B10874   4.781   8.122   7.433  0.4302  0.0324  0.1197
  811POPS   C3B10875   4.690   8.193   7.869 -0.0511  0.3238  0.1478
  811POPS   C4B10876   4.597   8.031   8.246  0.2537 -0.1250  0.0518
  812YOPS   CNO10877   5.969   7.911   6.081  0.3290  0.1321 -0.2086
  812YOPS   PO410878   6.013   7.514   5.938 -0.2183  0.1189 -0.1905
  812YOPS   GL110879   5.970   7.375   6.407  0.3364 -0.0759  0.2221
  812YOPS   GL210880   6.171   7.188   6.429  0.0036 -0.0376 -0.1215
  812YOPS   C1A10881   5.855   7.480   6.823 -0.2711 -0.3205  0.2683
  812YOPS   D2A10882   5.721   7.580   7.268 -0.1461  0.4411  0.1430
  812YOPS   C3A10883   5.663   7.837   7.663  0.1683  0.0663 -0.3380
  812YOPS   C4A10884   5.289   7.969   7.707 -0.2261 -0.0848  0.1843
  812YOPS   C1B10885   6.094   7.055   6.799  0.0019 -0.0165  0.1112
  812YOPS   C2B10886   6.149   6.946   7.276  0.5116 -0.0828 -0.0543
  812YOPS   D3B10887   6.232   6.767   7.752  0.3072 -0.0443  0.5022
  812YOPS   C4B10888   6.542   6.339   7.788  0.1074 -0.2849 -0.2496
  813YOPS   CNO10889  10.541  17.557   5.947 -0.0383  0.2231  0.1580
  813YOPS   PO410890  10.114  17.435   5.780  0.0327 -0.0060  0.3887
  813YOPS   GL110891   9.972  17.499   6.177 -0.0770  0.2945  0.0700
  813YOPS   GL210892   9.690  17.302   6.339  0.0982 -0.1644 -0.2391
  813YOPS   C1A10893  10.189  17.483   6.533 -0.1442 -0.0410 -0.0469
  813YOPS   D2A10894  10.523  17.548   6.885 -0.0767 -0.0846 -0.0272
  813YOPS   C3A10895  10.717  17.535   7.267 -0.1682 -0.1650  0.2099
  813YOPS   C4A10896  10.947  17.828   7.541  0.0843 -0.1611 -0.3281
  813YOPS   C1B10897   9.729  17.036   6.615 -0.0337 -0.2834  0.1773
  813YOPS   C2B10898   9.802  16.981   6.977 -0.1613  0.1729  0.1972
  813YOPS   D3B10899   9.799  16.756   7.197 -0.2343 -0.1031 -0.0423
  813YOPS   C4B10900   9.869  16.952   7.524 -0.0581 -0.2843  0.0931
  814YOPS   CNO10901   0.436  17.159   5.755  0.0993 -0.0191  0.3065
  814YOPS   PO410902   0.437  17.496   5.938 -0.3072 -0.0332  0.1445
  814YOPS   GL110903   0.427  17.378   6.346  0.0441 -0.0410 -0.0372
  814YOPS   GL210904   0.601  17.624   6.433  0.0337  0.2338 -0.2267
  814YOPS   C1A10905   0.101  17.228   6.566  0.2903  0.0213  0.1922
  814YOPS   D2A10906  -0.145  17.210   6.902  0.1233 -0.0361 -0.0721
  814YOPS   C3A10907  -0.458  17.102   7.253  0.3186 -0.2985  0.0482
  814YOPS   C4A10908  -0.721  17.390   7.406  0.2632 -0.0936  0.2918
  814YOPS   C1B10909   0.683  17.381   6.802 -0.2584  0.3546 -0.2408
  814YOPS   C2B10910   0.656  17.403   7.211  0.1094 -0.0191 -0.0977
  814YOPS   D3B10911   0.600  17.190   7.609 -0.0350 -0.1966  0.0501
  814YOPS   C4B10912   0.341  16.880   7.923  0.0409 -0.1346  0.1306
  815YOPS   CNO10913   5.944  10.416   6.084 -0.1316 -0.0496 -0.2670
  815YOPS   PO410914   6.292  10.580   5.911  0.1167 -0.0330 -0.2349
  815YOPS   GL110915   6.534  10.505   6.289  0.3406  0.1778 -0.2091
  815YOPS   GL210916   6.560  10.184   6.391  0.1090  0.1110 -0.1285
  815YOPS   C1A10917   6.444  10.506   6.754 -0.1305  0.1748  0.1150
  815YOPS   D2A10918   6.427  10.386   7.124  0.2234 -0.1410 -0.1591
  815YOPS   C3A10919   6.350  10.467   7.535  0.0685  0.2162 -0.1062
  815YOPS   C4A10920   6.497  10.155   7.863 -0.1261 -0.2531 -0.1877
  815YOPS   C1B10921   6.172  10.220   6.459  0.2159 -0.3043  0.1701
  815YOPS   C2B10922   5.997  10.197   6.957 -0.2348 -0.2430 -0.0362
  815YOPS   D3B10923   6.025  10.123   7.360  0.2107  0.3941 -0.0392
  815YOPS   C4B10924   6.454   9.960   7.366 -0.1961 -0.1280  0.1337
  816YOPS   CNO10925  11.188   7.481   5.399 -0.1512 -0.1989 -0.1669
  816YOPS   PO410926  11.330   7.580   5.741  0.1479  0.0524  0.1860
  816YOPS   GL110927  11.328   7.603   6.167  0.2144  0.0112 -0.0574
  816YOPS   GL210928  11.625   7.769   6.269 -0.0140  0.0490  0.1689
  816YOPS   C1A10929  11.194   7.539   6.641 -0.0664  0.3692 -0.4384
  816YOPS   D2A10930  11.173   7.503   7.125  0.0450  0.5846  0.0365
  816YOPS   C3A10931  11.203   7.404   7.591  0.0408 -0.1775 -0.1767
  816YOPS   C4A10932  11.297   7.769   7.860  0.1904  0.0490 -0.0145
  816YOPS   C1B10933  11.621   7.789   6.618  0.2592  0.2813 -0.2745
  816YOPS   C2B10934  11.766   7.546   6.967 -0.2398  0.1260 -0.4697
  816YOPS   D3B10935  11.691   7.268   7.316 -0.1869  0.0987  0.2727
  816YOPS   C4B10936  11.972   7.043   7.518 -0.1574 -0.0795 -0.2545
  817YOPS   CNO10937  15.061  13.804   5.868 -0.2811  0.3842 -0.1146
  817YOPS   PO410938  14.972  13.800   6.313 -0.2703 -0.1921 -0.0956
  817YOPS   GL110939  15.120  13.849   6.740  0.2683  0.0121  0.1911
  817YOPS   GL210940  14.929  13.511   6.822  0.2051 -0.0873  0.0499
  817YOPS   C1A10941  15.350  13.549   7.067  0.0958 -0.1928 -0.1031
  817YOPS   D2A10942  15.345  13.504   7.450 -0.0314  0.2719 -0.0976
  817YOPS   C3A10943  15.576  13.277   7.803  0.2078 -0.3965 -0.1621
  817YOPS   C4A10944  15.728  13.620   8.066 -0.1332 -0.0109  0.2324
  817YOPS   C1B10945  14.948  13.252   7.204  0.4824  0.1597 -0.1682
  817YOPS   C2B10946  14.946  13.249   7.647 -0.0249 -0.1116  0.0347
  817YOPS   D3B10947  15.144  13.073   7.910  0.0445  0.1821  0.2106
  817YOPS   C4B10948  15.312  12.757   8.265 -0.3550  0.1576  0.3060
  818YOPS   CNO10949  16.864  12.186   5.883  0.0043  0.1318  0.3491
  818YOPS   PO410950  16.917  11.785   6.000  0.0107  0.1848  0.0100
  818YOPS   GL110951  16.827  12.043   6.364  0.1475  0.0651  0.1362
  818YOPS   GL210952  16.738  12.318   6.504 -0.0993 -0.0823 -0.0239
  818YOPS   C1A10953  16.520  11.804   6.680  0.0539 -0.0846 -0.0338
  818YOPS   D2A10954  16.636  11.426   6.777  0.1784  0.0822  0.2962
  818YOPS   C3A10955  16.412  11.076   6.854  0.1133  0.4184  0.3652
  818YOPS   C4A10956  16.468  11.023   7.253  0.2210 -0.0543 -0.0246
  818YOPS   C1B10957  16.753  12.224   6.865  0.0156 -0.2770  0.0938
  818YOPS   C2B10958  16.693  12.345   7.203  0.2173 -0.1627  0.2733
  818YOPS   D3B10959  16.616  12.735   7.333 -0.2262 -0.1507  0.0479
  818YOPS   C4B10960  16.811  12.644   7.758  0.0598  0.2214 -0.1023
  819YOPS   CNO10961   8.345   1.654   5.908  0.1320  0.2812 -0.3084
  819YOPS   PO410962   8.288   2.049   5.734 -0.0291 -0.1969  0.1321
  819YOPS   GL110963   8.304   2.083   6.159  0.0714 -0.1679 -0.0787
  819YOPS   GL210964   8.251   1.814   6.371  0.2011  0.0843  0.1639
  819YOPS   C1A10965   8.210   2.210   6.674 -0.0709 -0.0410 -0.2591
  819YOPS   D2A10966   7.964   2.258   7.140 -0.2029  0.2956  0.1112
  819YOPS   C3A10967   8.088   2.399   7.524 -0.0046  0.0301 -0.0599
  819YOPS   C4A10968   8.348   2.656   7.450  0.1528  0.0135 -0.0579
  819YOPS   C1B10969   8.283   1.514   6.447  0.1415  0.0095 -0.1258
  819YOPS   C2B10970   8.469   1.437   6.875 -0.2434  0.0614 -0.1768
  819YOPS   D3B10971   8.354   1.317   7.322  0.0332  0.0465 -0.5248
  819YOPS   C4B10972   8.505   0.889   7.556  0.0260  0.2248  0.3146
  820YOPS   CNO10973   9.038   6.510   4.835 -0.2309  0.4615  0.0145
  820YOPS   PO410974   8.981   6.221   5.184  0.0487  0.0263 -0.0273
  820YOPS   GL110975   8.856   6.326   5.544 -0.2852  0.0144  0.1742
  820YOPS   GL210976   8.558   6.473   5.673 -0.1674 -0.2052  0.0182
  820YOPS   C1A10977   8.863   6.259   5.982 -0.3146 -0.0689  0.1254
  820YOPS   D2A10978   8.821   6.386   6.394 -0.1826 -0.0681  0.2704
  820YOPS   C3A10979   8.653   6.558   6.755  0.2620 -0.1276  0.0129
  820YOPS   C4A10980   8.465   6.554   7.143  0.2145  0.0208  0.2793
  820YOPS   C1B10981   8.719   6.724   5.974  0.0304  0.1457 -0.0235
  820YOPS   C2B10982   8.756   7.104   6.214 -0.2249  0.0185 -0.2914
  820YOPS   D3B10983   9.026   7.333   6.449  0.1665  0.0215  0.1927
  820YOPS   C4B10984   9.195   7.635   6.277  0.2725 -0.2920  0.2646
  821YOPS   CNO10985  17.674  17.784   5.417  0.1068 -0.1975 -0.0438
  821YOPS   PO410986  17.765  17.382   5.711 -0.0937  0.2884  0.1827
  821YOPS   GL110987  17.723  17.481   6.146 -0.4220 -0.4295 -0.1401
  821YOPS   GL210988  17.371  17.453   6.236  0.0634 -0.2722 -0.1891
  821YOPS   C1A10989  17.852  17.611   6.535 -0.1586  0.2052 -0.3392
  821YOPS   D2A10990  17.755  17.649   7.075  0.0075 -0.2414  0.1062
  821YOPS   C3A10991  17.856  17.545   7.450  0.0559 -0.0867  0.1194
  821YOPS   C4A10992  17.618  17.528   7.822 -0.0624  0.0560 -0.1309
  821YOPS   C1B10993  17.364  17.724   6.662  0.0539 -0.1420 -0.0454
  821YOPS   C2B10994  17.354  17.989   6.911 -0.2828 -0.2505 -0.0478
  821YOPS   D3B10995  17.433  17.956   7.253 -0.0577  0.3957 -0.1769
  821YOPS   C4B10996  17.645  18.088   7.587 -0.2432  0.0103  0.0012
  822YOPS   CNO10997  14.060   1.077   5.480  0.1028 -0.0014  0.0962
  822YOPS   PO410998  14.295   1.266   5.809 -0.0858 -0.0374 -0.1018
  822YOPS   GL110999  14.317   1.100   6.076 -0.2475  0.0282 -0.2234
  822YOPS   GL211000  14.745   1.139   6.203  0.2096  0.0972  0.1269
  822YOPS   C1A11001  14.379   0.925   6.488  0.1458  0.1597 -0.0201
  822YOPS   D2A11002  14.777   0.774   6.737 -0.1061 -0.0039 -0.0099
  822YOPS   C3A11003  15.185   0.695   6.882 -0.1615  0.1736 -0.0062
  822YOPS   C4A11004  15.663   0.687   6.809  0.0449  0.2303  0.0973
  822YOPS   C1B11005  14.718   1.276   6.562  0.2797  0.2242 -0.1230
  822YOPS   C2B11006  14.564   1.160   7.049 -0.0772 -0.2049 -0.1736
  822YOPS   D3B11007  14.541   1.152   7.470 -0.1950  0.0984 -0.0311
  822YOPS   C4B11008  14.385   0.782   7.697  0.2456 -0.1110 -0.0701
  823YOPS   CNO11009  11.731  16.894   5.770  0.0804  0.2113  0.0810
  823YOPS   PO411010  11.932  17.294   5.739 -0.1341 -0.4283 -0.1917
  823YOPS   GL111011  12.045  17.408   6.132 -0.1040 -0.0391  0.3283
  823YOPS   GL211012  11.954  17.745   6.233 -0.1362 -0.5074  0.3437
  823YOPS   C1A11013  11.790  17.369   6.505  0.0039 -0.0910 -0.1194
  823YOPS   D2A11014  11.575  17.533   6.876  0.3116  0.0990 -0.3598
  823YOPS   C3A11015  11.677  17.723   7.249 -0.0666  0.3828  0.2092
  823YOPS   C4A11016  11.860  18.127   7.232 -0.2730  0.0258  0.2442
  823YOPS   C1B11017  12.056  17.895   6.812 -0.1304  0.1444  0.1178
  823YOPS   C2B11018  12.150  17.661   7.248  0.0037  0.0667 -0.0203
  823YOPS   D3B11019  12.374  17.492   7.609 -0.1471 -0.1662  0.0850
  823YOPS   C4B11020  12.200  17.190   7.848 -0.2430 -0.0338  0.0843
  824YOPS   CNO11021  16.312  14.371   5.736 -0.0583 -0.2224 -0.1627
  824YOPS   PO411022  16.516  14.096   5.909  0.0222  0.3893  0.0748
  824YOPS   GL111023  16.516  14.108   6.378  0.0446  0.0635  0.0363
  824YOPS   GL211024  16.461  13.932   6.547 -0.1195  0.0542  0.1230
  824YOPS   C1A11025  16.504  14.447   6.619 -0.1189 -0.0283  0.1943
  824YOPS   D2A11026  16.462  14.645   7.044 -0.0268  0.1436 -0.1335
  824YOPS   C3A11027  16.505  14.847   7.430  0.0697  0.1429  0.0262
  824YOPS   C4A11028  16.481  14.694   7.842 -0.1965 -0.2646  0.1085
  824YOPS   C1B11029  16.252  14.017   6.879  0.0331 -0.0082 -0.0815
  824YOPS   C2B11030  16.364  14.233   7.282  0.0878 -0.0457  0.0750
  824YOPS   D3B11031  16.208  14.335   7.665  0.0447 -0.0579  0.0938
  824YOPS   C4B11032  16.129  13.939   7.945  0.1175 -0.2116 -0.2400
  825YOPS   CNO11033  12.180  14.929   5.631 -0.1100 -0.0615  0.0659
  825YOPS   PO411034  12.162  15.291   5.915 -0.0347  0.1009 -0.1510
  825YOPS   GL111035  12.223  15.241   6.352  0.0764  0.1431 -0.0285
  825YOPS   GL211036  12.319  14.969   6.576 -0.3929 -0.1810  0.3838
  825YOPS   C1A11037  12.319  15.401   6.793 -0.2323 -0.1620 -0.0560
  825YOPS   D2A11038  12.036  15.478   7.152 -0.1451 -0.1636 -0.3761
  825YOPS   C3A11039  11.594  15.517   7.476 -0.0619  0.3547 -0.0368
  825YOPS   C4A11040  11.291  15.273   7.382  0.1896 -0.1871  0.0291
  825YOPS   C1B11041  12.050  14.989   6.983 -0.1210  0.1250  0.1212
  825YOPS   C2B11042  11.825  14.977   7.318 -0.2069  0.3456 -0.1606
  825YOPS   D3B11043  11.635  15.046   7.723 -0.0041  0.2325  0.2491
  825YOPS   C4B11044  11.735  15.442   7.920 -0.0335  0.1876 -0.0414
  826YOPS   CNO11045   0.737   7.327   5.384 -0.0821  0.2103 -0.1279
  826YOPS   PO411046   0.738   7.291   5.884 -0.0283 -0.0730 -0.1221
  826YOPS   GL111047   0.647   7.203   6.248  0.1125 -0.1351  0.1867
  826YOPS   GL211048   0.815   7.487   6.421 -0.1036  0.0383  0.0589
  826YOPS   C1A11049   0.592   7.110   6.698  0.1860  0.0528 -0.0883
  826YOPS   D2A11050   0.534   7.268   7.133  0.1279  0.0397  0.2422
  826YOPS   C3A11051   0.500   7.373   7.536 -0.0160 -0.3694  0.0772
  826YOPS   C4A11052   0.670   7.071   7.787  0.0356  0.1757  0.0100
  826YOPS   C1B11053   0.651   7.720   6.755 -0.1050  0.1334 -0.0684
  826YOPS   C2B11054   0.963   7.752   7.107 -0.1486  0.0343  0.3139
  826YOPS   D3B11055   1.010   7.471   7.519 -0.0903  0.1882  0.0048
  826YOPS   C4B11056   1.332   7.351   7.804 -0.1376  0.2221  0.0737
  827YOPS   CNO11057  11.027  11.895   6.539 -0.3238  0.2773  0.1614
  827YOPS   PO411058  11.011  11.574   6.354  0.0862 -0.0571 -0.0024
  827YOPS   GL111059  11.049  11.408   6.665 -0.3379  0.0301 -0.2238
  827YOPS   GL211060  11.372  11.224   6.784  0.0351 -0.0968 -0.0546
  827YOPS   C1A11061  10.914  11.056   6.974  0.1099  0.0544 -0.3445
  827YOPS   D2A11062  10.939  10.959   7.317 -0.0519 -0.0379 -0.0809
  827YOPS   C3A11063  11.257  10.896   7.618 -0.3590 -0.2392  0.3760
  827YOPS   C4A11064  11.373  10.599   7.940  0.0974  0.2178 -0.0073
  827YOPS   C1B11065  11.414  11.167   7.146  0.2335  0.2143 -0.0755
  827YOPS   C2B11066  11.531  11.360   7.532 -0.0430 -0.5136 -0.2035
  827YOPS   D3B11067  11.358  11.332   7.935 -0.1992 -0.0216  0.0167
  827YOPS   C4B11068  11.068  11.095   8.049 -0.1202 -0.0051  0.0601
  828YOPS   CNO11069  11.303   9.719   5.695  0.0167 -0.0037  0.0570
  828YOPS   PO411070  10.995   9.420   5.661  0.3211 -0.1151 -0.1210
  828YOPS   GL111071  10.986   9.434   6.104 -0.2916 -0.3157 -0.0791
  828YOPS   GL211072  11.135   9.731   6.249  0.0778 -0.0528  0.3825
  828YOPS   C1A11073  10.793   9.163   6.492 -0.0563  0.1181 -0.1681
  828YOPS   D2A11074  10.594   9.219   6.901  0.2796  0.0967 -0.0236
  828YOPS   C3A11075  10.384   9.395   7.180 -0.0791  0.0737 -0.1576
  828YOPS   C4A11076  10.785   9.472   7.327  0.1378 -0.1630  0.1663
  828YOPS   C1B11077  11.188   9.507   6.643  0.1562  0.3984 -0.2354
  828YOPS   C2B11078  11.248   9.240   6.974 -0.5816  0.3260  0.3227
  828YOPS   D3B11079  11.182   9.032   7.263  0.1313  0.0189 -0.2654
  828YOPS   C4B11080  10.665   8.996   7.328 -0.0859  0.4217  0.0635
  829YOPS   CNO11081  13.116  15.228   5.884  0.1363  0.0767 -0.2496
  829YOPS   PO411082  13.013  14.921   6.036  0.0188  0.2146 -0.4765
  829YOPS   GL111083  12.811  15.163   6.346 -0.0772  0.1144  0.2495
  829YOPS   GL211084  12.979  15.353   6.342  0.0934  0.0467  0.1743
  829YOPS   C1A11085  12.779  15.206   6.802 -0.1563  0.0435 -0.0000
  829YOPS   D2A11086  12.527  15.245   7.226 -0.0533  0.1602  0.3033
  829YOPS   C3A11087  12.288  15.133   7.592  0.2322  0.0944 -0.0207
  829YOPS   C4A11088  12.422  14.812   7.879  0.4151  0.1600 -0.3646
  829YOPS   C1B11089  13.180  15.469   6.608 -0.3557  0.4429 -0.1014
  829YOPS   C2B11090  13.424  15.618   6.860 -0.3038 -0.0292 -0.2201
  829YOPS   D3B11091  13.536  15.388   7.230  0.1067  0.2889  0.1314
  829YOPS   C4B11092  13.688  15.520   7.571  0.0929 -0.3794  0.1604
  830YOPS   CNO11093   2.706  16.245   6.067 -0.3220  0.0523  0.2553
  830YOPS   PO411094   2.655  15.812   6.144  0.3220  0.0208  0.2766
  830YOPS   GL111095   2.624  15.859   6.548 -0.2483  0.0145  0.2430
  830YOPS   GL211096   2.350  16.044   6.574  0.2859 -0.0072 -0.3104
  830YOPS   C1A11097   2.763  16.189   6.811  0.2173 -0.1157  0.0525
  830YOPS   D2A11098   2.796  16.367   7.138 -0.1134  0.1104  0.3121
  830YOPS   C3A11099   2.784  16.689   7.491 -0.1359 -0.2740 -0.1964
  830YOPS   C4A11100   2.363  16.631   7.760 -0.0279  0.0341 -0.0002
  830YOPS   C1B11101   2.284  16.345   6.961  0.3245 -0.0407 -0.0850
  830YOPS   C2B11102   2.311  16.588   7.249  0.1370  0.1886  0.0134
  830YOPS   D3B11103   2.356  17.059   7.453 -0.0893  0.2240 -0.0130
  830YOPS   C4B11104   2.541  17.091   7.868 -0.0934 -0.0390 -0.0476
  831YOPS   CNO11105   6.105  14.568   5.422 -0.2259  0.0472 -0.1206
  831YOPS   PO411106   5.758  14.431   5.516  0.0286 -0.1096  0.2289
  831YOPS   GL111107   5.899  14.448   5.840  0.3116  0.2985 -0.4615
  831YOPS   GL211108   5.747  14.401   6.138 -0.4200 -0.0850 -0.1814
  831YOPS   C1A11109   6.241  14.323   6.264  0.3406  0.2159  0.0686
  831YOPS   D2A11110   6.483  14.234   6.567 -0.0469 -0.0136 -0.0166
  831YOPS   C3A11111   6.736  14.345   6.825  0.0591 -0.1378 -0.2937
  831YOPS   C4A11112   6.665  14.188   7.318  0.2650 -0.0107 -0.0233
  831YOPS   C1B11113   5.928  14.292   6.667 -0.2076 -0.4638  0.1978
  831YOPS   C2B11114   5.954  14.411   7.144 -0.2381 -0.0679  0.2585
  831YOPS   D3B11115   5.850  14.384   7.589  0.0265  0.2543 -0.2875
  831YOPS   C4B11116   6.248  14.084   7.649  0.1196  0.3168 -0.0668
  832YOPS   CNO11117  15.988  17.850   5.326 -0.2386  0.0160 -0.2862
  832YOPS   PO411118  16.395  17.846   5.680  0.1068  0.3609  0.1842
  832YOPS   GL111119  16.369  17.916   6.084  0.0851  0.1356 -0.2039
  832YOPS   GL211120  16.078  18.122   6.111  0.0354 -0.1269 -0.4160
  832YOPS   C1A11121  16.368  17.978   6.535 -0.2835 -0.1466  0.0692
  832YOPS   D2A11122  16.417  17.992   6.956 -0.0412  0.0737 -0.0370
  832YOPS   C3A11123  16.509  18.003   7.495 -0.0162 -0.4299  0.1097
  832YOPS   C4A11124  16.500  17.586   7.535 -0.0961 -0.2973  0.0717
  832YOPS   C1B11125  15.844  17.892   6.417  0.2858 -0.0917  0.0561
  832YOPS   C2B11126  15.862  17.574   6.648 -0.2719 -0.0904 -0.1125
  832YOPS   D3B11127  15.823  17.375   7.074  0.3129 -0.0538  0.0583
  832YOPS   C4B11128  15.887  17.388   7.473  0.0149  0.3596 -0.2389
  833YOPS   CNO11129   8.261  11.362   5.268  0.1086 -0.1276 -0.2417
  833YOPS   PO411130   8.538  11.529   5.504 -0.0058  0.0093 -0.0674
  833YOPS   GL111131   8.867  11.501   5.857 -0.2364 -0.1493  0.1146
  833YOPS   GL211132   9.270  11.570   5.970 -0.2370 -0.0187 -0.1136
  833YOPS   C1A11133   8.941  11.684   6.300 -0.2809 -0.0947  0.0325
  833YOPS   D2A11134   8.841  11.500   6.725  0.2579 -0.3407  0.1081
  833YOPS   C3A11135   8.615  11.260   6.900  0.0142  0.2863  0.2291
  833YOPS   C4A11136   8.868  10.802   7.002  0.1267 -0.1605 -0.0449
  833YOPS   C1B11137   9.221  11.258   6.341  0.2807  0.0609  0.1314
  833YOPS   C2B11138   9.094  10.986   6.612  0.1411 -0.2749  0.2892
  833YOPS   D3B11139   8.880  10.690   6.434 -0.1614  0.2083 -0.1196
  833YOPS   C4B11140   8.559  10.519   6.699  0.1060 -0.0724  0.3576
  834YOPS   CNO11141  14.731   8.133   5.835  0.2797 -0.2757 -0.1840
  834YOPS   PO411142  14.867   8.478   6.074  0.0713 -0.0323  0.0682
  834YOPS   GL111143  14.914   8.448   6.470 -0.1358  0.0771 -0.0468
  834YOPS   GL211144  15.127   8.633   6.639  0.3187  0.2713 -0.1096
  834YOPS   C1A11145  14.920   8.115   6.757 -0.1106  0.0328 -0.1924
  834YOPS   D2A11146  14.747   7.798   6.878  0.0558  0.0477  0.1785
  834YOPS   C3A11147  14.823   7.431   6.908 -0.1471  0.2457  0.1920
  834YOPS   C4A11148  14.503   7.163   6.784 -0.1420  0.3628 -0.0488
  834YOPS   C1B11149  15.056   8.447   7.050  0.0983 -0.3513  0.1824
  834YOPS   C2B11150  14.988   8.512   7.471 -0.0742 -0.2638 -0.1670
  834YOPS   D3B11151  14.682   8.371   7.907  0.1265  0.0276 -0.0372
  834YOPS   C4B11152  14.802   8.098   8.223 -0.2453 -0.2229  0.2231
  835YOPS   CNO11153  10.895  14.683   5.849 -0.1540  0.3833 -0.0551
  835YOPS   PO411154  11.216  14.954   6.073  0.3279  0.1557  0.2097
  835YOPS   GL111155  11.084  14.969   6.433 -0.1786  0.1954 -0.0617
  835YOPS   GL211156  11.085  14.708   6.700  0.1756  0.0216  0.1675
  835YOPS   C1A11157  10.859  15.268   6.734  0.1546 -0.0495 -0.0693
  835YOPS   D2A11158  10.670  15.630   6.905  0.0722  0.1599 -0.0400
  835YOPS   C3A11159  10.439  16.038   6.848 -0.2206  0.3147 -0.2039
  835YOPS   C4A11160  10.328  16.196   6.508  0.0486 -0.2619  0.3248
  835YOPS   C1B11161  11.079  14.901   7.001 -0.0103  0.3492  0.2794
  835YOPS   C2B11162  10.821  15.210   7.234 -0.2458  0.0698 -0.0791
  835YOPS   D3B11163  10.851  15.394   7.619  0.4379  0.0579  0.0704
  835YOPS   C4B11164  10.623  15.731   7.901  0.0892 -0.0026 -0.0750
  836YOPS   CNO11165   4.054   8.791   5.027  0.0384  0.1465 -0.0137
  836YOPS   PO411166   3.954   9.023   5.426 -0.1787 -0.3653  0.1501
  836YOPS   GL111167   3.947   9.029   5.917 -0.1922 -0.1235  0.3429
  836YOPS   GL211168   4.254   9.007   6.040  0.1860 -0.2435 -0.2955
  836YOPS   C1A11169   3.731   8.856   6.309  0.0061 -0.1173 -0.0717
  836YOPS   D2A11170   3.678   8.889   6.681  0.0277 -0.1041 -0.2386
  836YOPS   C3A11171   3.718   8.911   7.020  0.0679  0.4053 -0.0256
  836YOPS   C4A11172   3.831   8.920   7.514  0.0340 -0.4159 -0.1691
  836YOPS   C1B11173   4.074   9.147   6.451  0.0124  0.0972 -0.2842
  836YOPS   C2B11174   4.173   9.173   6.827  0.1900  0.1634  0.0318
  836YOPS   D3B11175   4.208   9.077   7.252 -0.0672 -0.2447  0.1134
  836YOPS   C4B11176   4.583   9.049   7.435  0.0462  0.0051  0.0956
  837YOPS   CNO11177   4.207   6.820   5.529  0.0268 -0.0751 -0.2707
  837YOPS   PO411178   3.995   6.878   5.887  0.1218 -0.1871  0.2581
  837YOPS   GL111179   4.225   6.990   6.238  0.1290  0.0530  0.0473
  837YOPS   GL211180   4.595   7.040   6.142 -0.0553  0.1125 -0.1527
  837YOPS   C1A11181   4.148   6.852   6.732  0.1633  0.0710  0.1878
  837YOPS   D2A11182   4.112   6.836   7.134  0.2349 -0.4046  0.2240
  837YOPS   C3A11183   3.830   6.541   7.352  0.2578  0.1902  0.0539
  837YOPS   C4A11184   4.005   6.318   7.670 -0.3264 -0.1970  0.3902
  837YOPS   C1B11185   4.587   7.190   6.584  0.0346  0.0601 -0.1118
  837YOPS   C2B11186   4.523   7.203   6.966 -0.2038 -0.0054  0.1462
  837YOPS   D3B11187   4.363   7.306   7.431  0.0224  0.0147  0.0816
  837YOPS   C4B11188   3.992   7.005   7.614  0.2937 -0.1547 -0.0159
  838YOPS   CNO11189   3.945  16.729   6.177 -0.1000 -0.1120 -0.1255
  838YOPS   PO411190   3.563  16.867   6.223  0.1972 -0.0926  0.1733
  838YOPS   GL111191   3.564  16.651   6.637 -0.0908 -0.0588 -0.1761
  838YOPS   GL211192   3.892  16.530   6.693 -0.0668  0.0334  0.1902
  838YOPS   C1A11193   3.284  16.632   7.132 -0.1562 -0.0174  0.0219
  838YOPS   D2A11194   3.413  16.687   7.545 -0.3828  0.0931 -0.0400
  838YOPS   C3A11195   3.565  16.526   7.958  0.2766 -0.2471  0.0275
  838YOPS   C4A11196   3.751  16.841   8.235  0.0357  0.0857  0.3571
  838YOPS   C1B11197   3.769  16.553   7.128 -0.0598 -0.2910 -0.1459
  838YOPS   C2B11198   3.943  16.377   7.364 -0.0140  0.0709  0.0527
  838YOPS   D3B11199   4.011  16.547   7.693  0.0096  0.3008  0.2285
  838YOPS   C4B11200   4.198  16.666   8.052 -0.0670  0.2571 -0.0756
  839YOPS   CNO11201   8.285   8.943   5.628 -0.2926 -0.0094 -0.1397
  839YOPS   PO411202   8.356   8.503   5.644 -0.2204 -0.1812 -0.1008
  839YOPS   GL111203   8.269   8.549   6.146 -0.2796  0.1189  0.0723
  839YOPS   GL211204   8.627   8.568   6.225  0.0205  0.0961 -0.0552
  839YOPS   C1A11205   7.990   8.724   6.503  0.0983  0.0524 -0.0668
  839YOPS   D2A11206   8.032   8.949   6.925 -0.2596  0.0757 -0.3822
  839YOPS   C3A11207   7.966   9.327   7.107 -0.3394  0.0269 -0.4211
  839YOPS   C4A11208   7.996   9.573   7.547  0.2767 -0.0655 -0.2111
  839YOPS   C1B11209   8.407   8.632   6.733  0.3609  0.1355  0.1005
  839YOPS   C2B11210   8.422   8.716   7.155  0.2829  0.2967 -0.0556
  839YOPS   D3B11211   8.428   8.447   7.470  0.2708  0.0605 -0.1963
  839YOPS   C4B11212   8.673   8.010   7.562  0.1348 -0.1248  0.0938
  840YOPS   CNO11213  10.047  12.950   5.905  0.0623  0.1362 -0.2092
  840YOPS   PO411214  10.094  12.383   5.920  0.1172  0.3678 -0.0072
  840YOPS   GL111215  10.116  12.497   6.282  0.1029  0.2983  0.0855
  840YOPS   GL211216  10.353  12.586   6.359 -0.1419  0.1496 -0.1557
  840YOPS   C1A11217   9.797  12.487   6.668 -0.1808  0.2021 -0.3055
  840YOPS   D2A11218   9.871  12.401   7.089 -0.1927  0.0717 -0.3212
  840YOPS   C3A11219   9.701  12.040   7.337  0.2624  0.0243  0.1160
  840YOPS   C4A11220   9.303  12.143   7.531  0.2663 -0.0143 -0.0301
  840YOPS   C1B11221  10.346  12.332   6.785  0.0135  0.0276  0.3089
  840YOPS   C2B11222  10.630  12.169   7.189 -0.3499 -0.2110 -0.1025
  840YOPS   D3B11223  10.721  11.986   7.490 -0.1412  0.1647 -0.1547
  840YOPS   C4B11224  10.512  11.660   7.901 -0.1208  0.0297  0.1977
  841YOPS   CNO11225   4.114  12.660   5.667  0.0171 -0.0342 -0.0244
  841YOPS   PO411226   4.329  12.477   5.368  0.0264  0.0432  0.4767
  841YOPS   GL111227   4.523  12.353   5.752  0.0850 -0.0226 -0.1941
  841YOPS   GL211228   4.293  12.251   5.985 -0.0271  0.0731  0.1104
  841YOPS   C1A11229   4.679  12.387   6.215  0.3222 -0.0465 -0.1630
  841YOPS   D2A11230   4.620  12.587   6.540  0.0422  0.0414 -0.1978
  841YOPS   C3A11231   4.580  12.549   6.978 -0.1614 -0.0280  0.0434
  841YOPS   C4A11232   4.817  12.847   7.242  0.0915 -0.2286 -0.0653
  841YOPS   C1B11233   4.153  12.109   6.334  0.4058 -0.2050  0.3293
  841YOPS   C2B11234   3.758  12.125   6.570 -0.3656 -0.0474 -0.3298
  841YOPS   D3B11235   3.516  12.091   6.838 -0.0976  0.1158  0.0788
  841YOPS   C4B11236   3.543  11.997   7.273 -0.0613  0.2615 -0.3247
  842POPE   NH311237   1.246   1.359   6.278 -0.1973  0.1228  0.3408
  842POPE   PO411238   0.942   1.319   5.996  0.4292 -0.1186 -0.0493
  842POPE   GL111239   0.811   1.408   6.490  0.0867  0.0693  0.0653
  842POPE   GL211240   1.075   1.368   6.762  0.1944 -0.0705  0.3888
  842POPE   C1A11241   0.500   1.537   6.770 -0.0079  0.1837 -0.0623
  842POPE   D2A11242   0.343   1.595   7.179  0.2875 -0.1109 -0.2159
  842POPE   C3A11243   0.426   1.667   7.608  0.1450 -0.3222  0.0524
  842POPE   C4A11244   0.176   1.638   7.945  0.0463 -0.1526  0.0179
  842POPE   C1B11245   1.214   1.205   7.085 -0.2951  0.2085 -0.0307
  842POPE   C2B11246   1.485   1.079   7.404  0.1192 -0.2090 -0.0407
  842POPE   C3B11247   1.952   0.936   7.529  0.0507 -0.2507  0.1223
  842POPE   C4B11248   2.428   1.094   7.649 -0.3220  0.0954 -0.1217
  843POPE   NH311249  13.772   0.380   5.799  0.1424  0.0750 -0.0793
  843POPE   PO411250  14.153   0.622   5.630  0.2111 -0.1536  0.2373
  843POPE   GL111251  14.233   0.549   6.058 -0.0053  0.2302 -0.0968
  843POPE   GL211252  13.935   0.695   6.161  0.1837 -0.2986  0.0870
  843POPE   C1A11253  14.433   0.432   6.508  0.1851  0.0901 -0.2412
  843POPE   D2A11254  14.789   0.194   6.659 -0.0187  0.2046  0.1595
  843POPE   C3A11255  14.970  -0.093   6.929 -0.1697 -0.2777  0.0218
  843POPE   C4A11256  15.005  -0.456   7.142 -0.0691  0.0691 -0.1005
  843POPE   C1B11257  13.956   0.669   6.577  0.3510  0.2886 -0.0318
  843POPE   C2B11258  14.216   0.805   6.908  0.2390 -0.0324 -0.1433
  843POPE   C3B11259  14.562   0.664   7.247  0.4040 -0.0829 -0.0211
  843POPE   C4B11260  14.918   0.389   7.456 -0.0928 -0.2297  0.0450
  844POPE   NH311261   0.809   8.586   6.118 -0.0175  0.1586 -0.0401
  844POPE   PO411262   0.273   8.473   6.134 -0.1414 -0.0146 -0.0181
  844POPE   GL111263   0.243   8.623   6.515 -0.2108 -0.3937  0.3360
  844POPE   GL211264   0.582   8.730   6.651  0.0837  0.1549  0.3247
  844POPE   C1A11265   0.055   8.617   6.832 -0.3766  0.1006  0.1744
  844POPE   D2A11266  -0.134   8.626   7.217  0.0889 -0.2276 -0.0531
  844POPE   C3A11267  -0.020   8.976   7.553  0.0054  0.1528 -0.2009
  844POPE   C4A11268   0.193   8.920   7.909 -0.2847 -0.2647  0.0040
  844POPE   C1B11269   0.620   8.815   7.111 -0.0630 -0.3316 -0.0641
  844POPE   C2B11270   0.561   8.916   7.529 -0.1512 -0.0347 -0.1938
  844POPE   C3B11271   0.699   9.084   7.949  0.0539  0.0359  0.1715
  844POPE   C4B11272   0.758   9.351   8.233 -0.0068  0.1077 -0.1169
  845POPE   NH311273  12.698  12.932   6.288  0.0669 -0.1443 -0.0213
  845POPE   PO411274  12.713  12.471   6.195 -0.1555 -0.1270  0.3369
  845POPE   GL111275  12.819  12.590   6.661  0.0430 -0.1327  0.0598
  845POPE   GL211276  13.177  12.709   6.792  0.0475 -0.0697 -0.0495
  845POPE   C1A11277  12.719  12.576   7.117 -0.1424  0.0291 -0.0539
  845POPE   D2A11278  12.883  12.494   7.545  0.0572  0.4450 -0.1383
  845POPE   C3A11279  12.684  12.463   7.932 -0.3687  0.1356  0.3544
  845POPE   C4A11280  12.697  12.387   8.387  0.1441  0.1426 -0.2671
  845POPE   C1B11281  13.116  12.941   7.166 -0.0852 -0.0399  0.0454
  845POPE   C2B11282  13.161  12.925   7.512  0.4024 -0.0685 -0.1607
  845POPE   C3B11283  13.240  13.012   7.936 -0.0467  0.0517 -0.1325
  845POPE   C4B11284  13.161  13.401   8.108 -0.0595 -0.4046 -0.0114
  846POPE   NH311285  12.626   3.379   5.856  0.1101  0.2689  0.2353
  846POPE   PO411286  12.923   3.749   5.885  0.0047  0.0961 -0.0288
  846POPE   GL111287  12.973   3.950   6.366 -0.3794 -0.2476  0.0919
  846POPE   GL211288  13.271   4.072   6.377  0.2742  0.0202 -0.2363
  846POPE   C1A11289  12.772   4.061   6.777  0.0615  0.1891  0.0397
  846POPE   D2A11290  12.614   3.950   7.199  0.3344  0.0126 -0.1922
  846POPE   C3A11291  12.402   4.273   7.445  0.1291 -0.0697  0.4091
  846POPE   C4A11292  12.220   4.390   7.771  0.0028  0.1813 -0.2406
  846POPE   C1B11293  13.308   4.153   6.777  0.4642 -0.0037 -0.3514
  846POPE   C2B11294  13.132   4.163   7.154  0.5306  0.1142  0.0824
  846POPE   C3B11295  13.147   4.354   7.506  0.2025 -0.3794  0.0157
  846POPE   C4B11296  13.195   4.704   7.737  0.1209  0.0646 -0.1558
  847POPE   NH311297  15.714   8.629   6.133  0.3391 -0.0385  0.0215
  847POPE   PO411298  15.402   8.417   6.131  0.0910 -0.1666  0.0070
  847POPE   GL111299  15.478   8.312   6.555  0.1357  0.3018  0.0216
  847POPE   GL211300  15.652   8.456   6.693  0.0040 -0.2487 -0.0875
  847POPE   C1A11301  15.374   7.896   6.702 -0.0280  0.3274 -0.4669
  847POPE   D2A11302  15.278   7.983   7.090  0.0607 -0.1952  0.0378
  847POPE   C3A11303  15.075   7.927   7.447 -0.1744 -0.0942  0.2090
  847POPE   C4A11304  14.825   7.921   7.700 -0.2032 -0.2722  0.1015
  847POPE   C1B11305  15.521   8.468   7.070  0.0248  0.1529  0.0875
  847POPE   C2B11306  15.499   8.615   7.541  0.0647 -0.1490 -0.0150
  847POPE   C3B11307  15.587   8.595   7.971 -0.2628  0.1100 -0.3357
  847POPE   C4B11308  15.588   8.712   8.407  0.0589  0.2374 -0.0797
  848POPE   NH311309   7.871   5.933   5.481 -0.0704  0.0412  0.1349
  848POPE   PO411310   7.775   5.460   5.506 -0.0651 -0.3711 -0.2129
  848POPE   GL111311   7.664   5.607   5.829  0.1499  0.1317 -0.1650
  848POPE   GL211312   7.834   5.464   6.019 -0.0157  0.0169  0.1106
  848POPE   C1A11313   7.420   5.870   6.197 -0.0875 -0.0117  0.0271
  848POPE   D2A11314   7.189   6.036   6.583  0.0183  0.2175 -0.1910
  848POPE   C3A11315   7.436   5.990   6.960  0.1643 -0.1108  0.1265
  848POPE   C4A11316   7.726   5.907   7.278 -0.1217 -0.2584 -0.0195
  848POPE   C1B11317   7.893   5.365   6.411 -0.0389  0.1715  0.3378
  848POPE   C2B11318   7.996   5.433   6.782 -0.2289  0.2974  0.0850
  848POPE   C3B11319   8.226   5.221   6.970  0.0364 -0.0509 -0.0492
  848POPE   C4B11320   8.602   5.087   7.128  0.1219 -0.3285 -0.2080
  849POPE   NH311321   0.364   0.689   6.387  0.1789 -0.3960 -0.0290
  849POPE   PO411322   0.621   0.420   6.204  0.2462 -0.2577  0.0956
  849POPE   GL111323   0.794   0.228   6.487 -0.2933  0.1626 -0.2272
  849POPE   GL211324   0.551   0.322   6.712  0.0277  0.1924 -0.1532
  849POPE   C1A11325   1.107   0.297   6.798 -0.3331 -0.0103  0.1947
  849POPE   D2A11326   1.060   0.338   7.141  0.4221 -0.1071 -0.0886
  849POPE   C3A11327   1.091   0.751   7.316  0.0084 -0.3946  0.3266
  849POPE   C4A11328   1.051   0.835   7.793 -0.1460 -0.2053 -0.1234
  849POPE   C1B11329   0.673   0.035   7.026 -0.0360 -0.1025  0.1602
  849POPE   C2B11330   0.613  -0.231   7.319 -0.0603 -0.2907  0.3673
  849POPE   C3B11331   0.472  -0.396   7.606  0.0183 -0.0247  0.1420
  849POPE   C4B11332   0.217  -0.703   7.918 -0.1253 -0.4419  0.1622
  850POPE   NH311333   7.267   1.942   6.289  0.2157 -0.1255 -0.0614
  850POPE   PO411334   7.313   2.388   6.021  0.0180  0.0439  0.0078
  850POPE   GL111335   7.378   2.366   6.513 -0.3070  0.0464 -0.3555
  850POPE   GL211336   7.394   2.013   6.824  0.3049  0.1808 -0.0983
  850POPE   C1A11337   7.502   2.487   6.994  0.0221 -0.2878  0.1308
  850POPE   D2A11338   7.403   2.454   7.392  0.2793 -0.2633  0.0026
  850POPE   C3A11339   7.401   2.893   7.580 -0.1470 -0.0165 -0.1841
  850POPE   C4A11340   7.374   3.324   7.398  0.1820 -0.2640  0.0245
  850POPE   C1B11341   7.595   1.993   7.277 -0.2339  0.1047 -0.0765
  850POPE   C2B11342   7.534   2.086   7.678 -0.2831 -0.1076  0.2478
  850POPE   C3B11343   7.443   1.962   8.044 -0.2398 -0.1362 -0.1097
  850POPE   C4B11344   7.133   2.054   8.297  0.0098 -0.0142 -0.0163
  851POPE   NH311345  10.467   6.950   5.915 -0.0294  0.1166 -0.0492
  851POPE   PO411346  10.898   6.727   5.857  0.2044  0.0384  0.2837
  851POPE   GL111347  10.807   6.750   6.231 -0.3292 -0.1023  0.0166
  851POPE   GL211348  10.566   6.809   6.365  0.0250  0.3457 -0.2468
  851POPE   C1A11349  10.940   6.515   6.597  0.1646 -0.1058  0.0143
  851POPE   D2A11350  11.203   6.427   6.819  0.0483  0.2732  0.4723
  851POPE   C3A11351  11.396   6.461   7.223 -0.1291  0.2281 -0.0118
  851POPE   C4A11352  11.231   6.424   7.623 -0.2767  0.3445  0.1679
  851POPE   C1B11353  10.596   6.709   6.917 -0.1166  0.2837 -0.3657
  851POPE   C2B11354  10.764   6.688   7.304 -0.3179  0.0705 -0.2379
  851POPE   C3B11355  10.789   7.029   7.662  0.0344 -0.0029 -0.1607
  851POPE   C4B11356  10.708   7.025   8.126  0.2045 -0.0410  0.0682
  852POPE   NH311357   2.598   9.102   5.374  0.0073  0.2524  0.1167
  852POPE   PO411358   2.603   8.649   5.555  0.3266  0.0571 -0.0736
  852POPE   GL111359   2.671   8.803   5.909 -0.2242 -0.1615  0.1337
  852POPE   GL211360   2.727   8.552   6.058  0.2940 -0.3922  0.0001
  852POPE   C1A11361   2.734   8.966   6.427 -0.0171  0.3849 -0.0528
  852POPE   D2A11362   3.117   8.903   6.735 -0.2492 -0.0889  0.0645
  852POPE   C3A11363   3.210   9.198   7.078 -0.0058 -0.0803  0.0015
  852POPE   C4A11364   3.412   9.211   7.459  0.1573  0.1434 -0.2065
  852POPE   C1B11365   2.757   8.418   6.500 -0.3027 -0.0529 -0.0842
  852POPE   C2B11366   2.725   8.560   6.954  0.0030 -0.3365 -0.2012
  852POPE   C3B11367   2.766   8.814   7.397 -0.2752 -0.1912  0.0387
  852POPE   C4B11368   2.477   9.111   7.601  0.3220 -0.0517  0.4094
  853POPE   NH311369  15.442  11.920   6.226  0.1485 -0.3253 -0.0850
  853POPE   PO411370  15.493  12.345   6.222  0.1426 -0.1567 -0.4333
  853POPE   GL111371  15.789  12.259   6.530 -0.0950 -0.1651  0.0820
  853POPE   GL211372  15.863  12.534   6.642  0.1048  0.0277  0.0447
  853POPE   C1A11373  16.126  12.105   6.829 -0.1003  0.1006 -0.2471
  853POPE   D2A11374  16.238  12.040   7.232 -0.1624  0.0789  0.0875
  853POPE   C3A11375  16.578  11.827   7.151 -0.0728  0.0002  0.1000
  853POPE   C4A11376  16.946  11.804   6.924 -0.0797  0.1026 -0.1668
  853POPE   C1B11377  15.689  12.728   7.012  0.0343  0.0416 -0.0167
  853POPE   C2B11378  15.798  12.849   7.379 -0.1590  0.1191  0.1219
  853POPE   C3B11379  16.056  12.829   7.735 -0.0560  0.0421 -0.1298
  853POPE   C4B11380  16.384  12.651   7.907  0.1417  0.0465 -0.0159
  854POPE   NH311381   3.597   2.882   5.728 -0.0047 -0.1129 -0.3217
  854POPE   PO411382   3.288   3.169   6.005  0.3414  0.1943 -0.2478
  854POPE   GL111383   3.441   3.378   6.251  0.0520  0.0250  0.2245
  854POPE   GL211384   3.283   3.581   6.402 -0.0885 -0.4095  0.2440
  854POPE   C1A11385   3.733   3.403   6.558  0.4541 -0.3191 -0.1886
  854POPE   D2A11386   4.025   3.589   6.790 -0.1933  0.0939 -0.0851
  854POPE   C3A11387   4.111   3.982   6.920 -0.0806 -0.1569 -0.0429
  854POPE   C4A11388   3.821   4.301   6.860  0.0947 -0.0587  0.1966
  854POPE   C1B11389   3.093   3.795   6.831  0.1183 -0.1773  0.0193
  854POPE   C2B11390   3.130   3.959   7.297  0.3560 -0.3883  0.0654
  854POPE   C3B11391   2.905   4.160   7.607  0.4228 -0.0901  0.1531
  854POPE   C4B11392   2.651   4.318   7.890  0.0268 -0.2121 -0.0008
  855POPE   NH311393   7.172  11.101   5.795 -0.0598  0.1089  0.0168
  855POPE   PO411394   7.595  11.443   5.935  0.0669  0.0646  0.2474
  855POPE   GL111395   7.421  11.431   6.389 -0.1935 -0.2992 -0.0690
  855POPE   GL211396   7.301  11.184   6.498  0.0972 -0.0578 -0.1649
  855POPE   C1A11397   7.525  11.476   6.808  0.1609 -0.1188  0.0350
  855POPE   D2A11398   7.375  11.534   7.154 -0.1090  0.0098 -0.1199
  855POPE   C3A11399   7.642  11.732   7.410  0.1774  0.2552 -0.1010
  855POPE   C4A11400   7.791  12.064   7.703 -0.2250 -0.0821 -0.3965
  855POPE   C1B11401   7.323  11.067   6.927 -0.0345 -0.2646 -0.2195
  855POPE   C2B11402   7.230  10.960   7.288  0.3316 -0.3173  0.0271
  855POPE   C3B11403   7.199  10.828   7.660 -0.0018 -0.3023  0.0449
  855POPE   C4B11404   6.939  11.005   8.061  0.1180  0.2031  0.2204
  856POPE   NH311405  14.376   3.811   6.092  0.2296 -0.0459 -0.3673
  856POPE   PO411406  14.259   4.163   6.160 -0.0312 -0.0615 -0.1454
  856POPE   GL111407  14.317   3.986   6.534  0.0348  0.2580 -0.0040
  856POPE   GL211408  14.721   4.069   6.651  0.0591 -0.0972 -0.2342
  856POPE   C1A11409  14.416   3.998   6.995  0.3094  0.0161 -0.0233
  856POPE   D2A11410  14.503   4.173   7.340  0.0923  0.1056  0.0737
  856POPE   C3A11411  14.437   3.918   7.579  0.0822 -0.3636  0.2627
  856POPE   C4A11412  14.370   3.653   7.935 -0.1827 -0.0746 -0.1484
  856POPE   C1B11413  14.885   3.985   7.067 -0.0359  0.1643 -0.2350
  856POPE   C2B11414  14.986   4.006   7.503  0.0357  0.2279  0.3305
  856POPE   C3B11415  14.875   4.055   7.940 -0.0734 -0.1350  0.1338
  856POPE   C4B11416  15.087   3.874   8.297  0.0533  0.1570  0.0923
  857POPE   NH311417  10.884   7.813   6.012 -0.0518  0.2759 -0.1442
  857POPE   PO411418  10.625   8.052   5.859  0.1091 -0.1654  0.0669
  857POPE   GL111419  10.768   8.193   6.289  0.1339 -0.2476  0.1578
  857POPE   GL211420  10.847   7.891   6.543 -0.0859 -0.0484  0.0377
  857POPE   C1A11421  10.612   8.287   6.716  0.0544 -0.5288 -0.0727
  857POPE   D2A11422  10.521   8.342   7.182  0.2279 -0.1929 -0.2757
  857POPE   C3A11423  10.466   8.272   7.557  0.0451  0.0207 -0.0154
  857POPE   C4A11424  10.134   8.255   7.809 -0.1165 -0.0551 -0.0138
  857POPE   C1B11425  10.752   7.687   6.885  0.1932  0.0621  0.1093
  857POPE   C2B11426  10.418   7.849   7.114 -0.0259  0.1991  0.0202
  857POPE   C3B11427  10.119   7.853   7.453  0.4157  0.0856  0.1405
  857POPE   C4B11428   9.853   7.885   7.585 -0.0543  0.0879 -0.1304
  858POPE   NH311429  11.498  11.731   6.372  0.0917 -0.0353  0.1067
  858POPE   PO411430  11.855  11.483   6.275  0.6368 -0.1483  0.0592
  858POPE   GL111431  11.925  11.511   6.673 -0.0195 -0.1747  0.1888
  858POPE   GL211432  11.799  11.616   6.859  0.2038 -0.2921  0.1123
  858POPE   C1A11433  12.355  11.415   6.688  0.0222  0.3077  0.1463
  858POPE   D2A11434  12.675  11.078   6.711  0.1894 -0.1673  0.1919
  858POPE   C3A11435  12.928  11.001   7.073  0.0982 -0.1226  0.0084
  858POPE   C4A11436  13.068  11.334   7.327  0.2442  0.0035 -0.2658
  858POPE   C1B11437  12.182  11.714   7.079 -0.0796  0.1048 -0.2686
  858POPE   C2B11438  12.203  11.795   7.504  0.3425 -0.1656 -0.4423
  858POPE   C3B11439  12.018  11.754   7.946 -0.0499  0.1134 -0.2298
  858POPE   C4B11440  11.883  11.533   8.290  0.2376  0.1767 -0.0266
  859POPE   NH311441   9.660  17.632   5.663  0.1116  0.0582 -0.0909
  859POPE   PO411442  10.057  17.905   5.857 -0.0767 -0.0774  0.1036
  859POPE   GL111443  10.155  18.051   6.260  0.0274 -0.2987  0.2920
  859POPE   GL211444   9.762  18.112   6.284 -0.1142  0.1418  0.1680
  859POPE   C1A11445  10.139  17.999   6.617  0.0249  0.3571 -0.0323
  859POPE   D2A11446  10.115  18.024   6.978  0.0419 -0.1505 -0.3635
  859POPE   C3A11447  10.409  17.918   7.375  0.0735 -0.1572 -0.1234
  859POPE   C4A11448  10.581  18.252   7.688 -0.2297  0.1447 -0.0484
  859POPE   C1B11449   9.706  18.240   6.749  0.0747  0.1748 -0.1751
  859POPE   C2B11450   9.775  18.479   7.099 -0.1149 -0.1802  0.1841
  859POPE   C3B11451   9.794  18.904   7.146 -0.1613  0.2637 -0.1299
  859POPE   C4B11452   9.639  19.269   7.193 -0.0084  0.4720  0.1768
  860POPE   NH311453  17.705   1.197   6.179 -0.0476 -0.1160  0.2307
  860POPE   PO411454  17.257   1.424   6.179  0.2640 -0.0659 -0.0654
  860POPE   GL111455  17.358   1.380   6.619 -0.0263 -0.1935 -0.2627
  860POPE   GL211456  17.720   1.332   6.689  0.1100 -0.1671 -0.0067
  860POPE   C1A11457  17.319   1.286   7.012 -0.1553  0.1001  0.0373
  860POPE   D2A11458  17.270   1.448   7.365  0.0022  0.0799  0.2810
  860POPE   C3A11459  17.538   1.373   7.627  0.1935 -0.1371 -0.0166
  860POPE   C4A11460  17.592   1.423   8.080 -0.1486 -0.1064 -0.0369
  860POPE   C1B11461  17.747   1.461   7.137 -0.1501  0.2453  0.1653
  860POPE   C2B11462  17.979   1.507   7.472 -0.1044  0.1059  0.0302
  860POPE   C3B11463  18.248   1.286   7.579 -0.1366 -0.1304 -0.0638
  860POPE   C4B11464  18.276   1.171   8.107  0.0176  0.0349  0.0664
  861POPE   NH311465  17.269  12.116   6.145 -0.0769  0.1480  0.2639
  861POPE   PO411466  17.393  11.618   6.154 -0.0025  0.0825  0.0040
  861POPE   GL111467  17.479  11.737   6.478 -0.1002 -0.1420 -0.1503
  861POPE   GL211468  17.681  12.011   6.564  0.2862  0.1279  0.1907
  861POPE   C1A11469  17.629  11.565   6.877  0.1043 -0.0057 -0.1551
  861POPE   D2A11470  17.384  11.805   7.268 -0.1383 -0.1267 -0.1333
  861POPE   C3A11471  17.479  11.716   7.716 -0.0266 -0.0808  0.0759
  861POPE   C4A11472  17.648  11.767   8.163 -0.1951 -0.2550 -0.1707
  861POPE   C1B11473  17.779  12.045   6.990  0.0431 -0.2222  0.0112
  861POPE   C2B11474  17.678  12.161   7.512  0.0162  0.3785  0.3200
  861POPE   C3B11475  17.461  12.114   7.921  0.1178 -0.1578  0.0511
  861POPE   C4B11476  17.125  12.114   8.245  0.2325 -0.0667  0.0653
  862POPE   NH311477  13.814   7.858   6.230  0.3501 -0.1037 -0.0690
  862POPE   PO411478  13.485   8.160   6.098 -0.2071 -0.0748 -0.1013
  862POPE   GL111479  13.484   8.265   6.566 -0.4045 -0.2718  0.0301
  862POPE   GL211480  13.622   7.999   6.671  0.2413 -0.1847 -0.0354
  862POPE   C1A11481  13.773   8.572   6.904  0.4589 -0.0571 -0.1017
  862POPE   D2A11482  14.066   8.609   7.178 -0.0261  0.2239  0.0528
  862POPE   C3A11483  13.914   8.773   7.530  0.0296  0.0506 -0.0468
  862POPE   C4A11484  13.969   8.978   7.884 -0.2917 -0.1198 -0.1510
  862POPE   C1B11485  13.635   8.131   7.021  0.1966  0.1891  0.0134
  862POPE   C2B11486  13.724   8.285   7.417 -0.2264 -0.1642  0.0089
  862POPE   C3B11487  14.010   8.359   7.819  0.2859  0.0278 -0.3219
  862POPE   C4B11488  14.276   8.302   8.210 -0.1576  0.0105  0.0483
  863POPE   NH311489   9.097  17.191   6.338 -0.1061 -0.1073 -0.0669
  863POPE   PO411490   8.645  17.208   6.196 -0.1944  0.3473  0.0541
  863POPE   GL111491   8.649  17.004   6.628  0.2748 -0.1661  0.4617
  863POPE   GL211492   8.937  17.030   6.747  0.0635  0.0896 -0.0738
  863POPE   C1A11493   8.495  16.960   7.028 -0.0088 -0.3012 -0.1870
  863POPE   D2A11494   8.490  17.062   7.432  0.0816 -0.0733 -0.0106
  863POPE   C3A11495   8.361  16.932   7.804  0.0359 -0.0247 -0.4039
  863POPE   C4A11496   8.183  16.605   8.185 -0.0571  0.0431  0.3064
  863POPE   C1B11497   8.950  17.115   7.162  0.2168  0.0463  0.1059
  863POPE   C2B11498   9.007  17.100   7.550 -0.2717 -0.1094  0.2647
  863POPE   C3B11499   9.077  17.243   7.945 -0.0657  0.1335 -0.1569
  863POPE   C4B11500   9.223  16.957   8.301 -0.0865 -0.0247  0.1657
  864POPE   NH311501   2.511  13.989   6.121  0.0775 -0.0557 -0.4275
  864POPE   PO411502   2.538  13.573   6.135 -0.1224  0.1646  0.0705
  864POPE   GL111503   2.272  13.382   6.433  0.0062  0.0013  0.3119
  864POPE   GL211504   2.218  13.061   6.308 -0.1473 -0.0987  0.0405
  864POPE   C1A11505   2.017  13.138   6.744  0.1723 -0.1279 -0.0950
  864POPE   D2A11506   1.813  13.183   7.135 -0.0564  0.1084 -0.1728
  864POPE   C3A11507   1.569  13.002   7.381 -0.0469  0.0312  0.0789
  864POPE   C4A11508   1.504  12.559   7.461  0.0984 -0.1989  0.0263
  864POPE   C1B11509   2.478  12.870   6.576  0.3287  0.0506 -0.0556
  864POPE   C2B11510   2.659  12.525   6.764  0.0537 -0.2657 -0.1838
  864POPE   C3B11511   2.585  12.282   7.102 -0.0044 -0.3465  0.0267
  864POPE   C4B11512   2.255  12.292   7.380  0.1344  0.0481 -0.0811
  865POPE   NH311513  11.886  14.284   6.200 -0.3121 -0.1028 -0.0563
  865POPE   PO411514  11.958  14.727   6.242  0.1134  0.1415 -0.0195
  865POPE   GL111515  12.001  14.526   6.697  0.0736  0.2315 -0.0544
  865POPE   GL211516  12.269  14.447   6.708  0.3721 -0.1506  0.0525
  865POPE   C1A11517  11.972  14.516   7.112 -0.0290 -0.2100 -0.5145
  865POPE   D2A11518  12.037  14.487   7.660 -0.1370  0.1089  0.0101
  865POPE   C3A11519  11.886  14.639   8.008 -0.0941  0.3676 -0.2487
  865POPE   C4A11520  11.578  14.952   8.220 -0.3507  0.3539  0.1540
  865POPE   C1B11521  12.550  14.768   6.924 -0.3148  0.1595 -0.0481
  865POPE   C2B11522  12.665  14.775   7.377 -0.2100  0.0844 -0.0285
  865POPE   C3B11523  12.803  15.035   7.603  0.0790  0.2270 -0.0157
  865POPE   C4B11524  12.692  15.445   7.629 -0.0119  0.0724 -0.4268
  866POPE   NH311525  11.717  13.781   6.326  0.1463 -0.2478 -0.2142
  866POPE   PO411526  11.426  14.140   6.230  0.2483  0.1229  0.0047
  866POPE   GL111527  11.314  13.882   6.598  0.0594  0.0310  0.2029
  866POPE   GL211528  11.240  14.170   6.692 -0.0799 -0.2412  0.0391
  866POPE   C1A11529  11.326  13.668   6.983  0.4118 -0.0497  0.3094
  866POPE   D2A11530  11.443  13.353   7.250  0.2948 -0.2415  0.1799
  866POPE   C3A11531  11.689  13.488   7.645 -0.0514 -0.2862 -0.1216
  866POPE   C4A11532  11.849  13.642   7.959 -0.0103  0.1510  0.1455
  866POPE   C1B11533  11.118  14.368   7.075 -0.0847  0.1698  0.0035
  866POPE   C2B11534  10.898  14.715   7.427 -0.1522 -0.0545  0.1601
  866POPE   C3B11535  11.103  15.013   7.773  0.0656 -0.1524  0.1181
  866POPE   C4B11536  11.271  15.288   8.043  0.2040 -0.3667 -0.2823
  867POPE   NH311537   7.216  17.268   6.271  0.0091  0.0598  0.1527
  867POPE   PO411538   6.957  16.945   6.197 -0.0101  0.2760  0.3523
  867POPE   GL111539   6.892  16.893   6.647 -0.0484 -0.0716  0.1710
  867POPE   GL211540   6.686  17.182   6.625  0.2516 -0.0553 -0.1478
  867POPE   C1A11541   7.075  16.870   7.007  0.0370 -0.0326  0.1955
  867POPE   D2A11542   7.107  16.827   7.461 -0.2131 -0.0887  0.3528
  867POPE   C3A11543   7.302  16.958   7.793 -0.2325 -0.1337  0.2264
  867POPE   C4A11544   7.681  17.224   7.975  0.0773  0.0816 -0.1538
  867POPE   C1B11545   6.589  16.972   7.013 -0.1248 -0.1013 -0.0021
  867POPE   C2B11546   6.614  16.909   7.382  0.1087 -0.0988  0.2226
  867POPE   C3B11547   6.698  16.840   7.794 -0.1032  0.0206  0.0289
  867POPE   C4B11548   6.905  16.871   8.238  0.0433  0.0480 -0.1225
  868POPE   NH311549  11.347  17.278   5.722 -0.1109 -0.2110 -0.0324
  868POPE   PO411550  10.947  17.131   5.625  0.0611  0.1266  0.0567
  868POPE   GL111551  10.956  17.294   6.051  0.0546  0.2766 -0.1492
  868POPE   GL211552  11.189  17.159   6.283  0.0432 -0.0530  0.3646
  868POPE   C1A11553  10.730  17.317   6.483  0.1778  0.0257  0.5111
  868POPE   D2A11554  10.747  17.101   6.920  0.3059 -0.1858 -0.0652
  868POPE   C3A11555  10.963  17.123   7.264  0.1052 -0.0233 -0.3232
  868POPE   C4A11556  11.134  16.895   7.600 -0.0370 -0.2452  0.0649
  868POPE   C1B11557  11.281  17.162   6.662  0.0226 -0.2743  0.0091
  868POPE   C2B11558  11.427  17.161   7.141  0.1676 -0.1637 -0.1427
  868POPE   C3B11559  11.339  17.479   7.489 -0.0109  0.1060 -0.0114
  868POPE   C4B11560  11.296  17.326   7.799  0.1773  0.1774 -0.0936
  869POPE   NH311561  15.826   4.358   5.896 -0.1425 -0.3501  0.0080
  869POPE   PO411562  15.776   3.871   6.092 -0.1185  0.2334 -0.2079
  869POPE   GL111563  15.931   3.803   6.422 -0.0068  0.1677 -0.1222
  869POPE   GL211564  15.634   3.812   6.685 -0.2489  0.1125  0.1299
  869POPE   C1A11565  16.127   3.890   6.850  0.0124  0.0284  0.0638
  869POPE   D2A11566  16.246   3.786   7.254  0.1615  0.0374  0.0990
  869POPE   C3A11567  16.427   3.818   7.538  0.0409  0.0533 -0.1876
  869POPE   C4A11568  16.717   3.737   7.983  0.3100  0.3222  0.0194
  869POPE   C1B11569  15.640   3.380   6.626  0.0561  0.2474 -0.0338
  869POPE   C2B11570  15.497   3.063   6.937  0.2190 -0.0030 -0.1062
  869POPE   C3B11571  15.361   3.048   7.273  0.1501  0.0095 -0.0931
  869POPE   C4B11572  14.974   3.134   7.354  0.0510 -0.2093 -0.0489
  870POPE   NH311573   3.163   0.257   6.056 -0.0147 -0.3279  0.2372
  870POPE   PO411574   2.926  -0.100   5.903 -0.2478 -0.0130  0.1730
  870POPE   GL111575   3.165  -0.160   6.286  0.1010 -0.0308  0.0549
  870POPE   GL211576   3.432  -0.315   6.410 -0.0943  0.0563 -0.4216
  870POPE   C1A11577   3.187   0.046   6.694 -0.4450  0.0207  0.0383
  870POPE   D2A11578   3.174  -0.026   7.104  0.0647  0.0607 -0.2372
  870POPE   C3A11579   2.861   0.063   7.305 -0.0041 -0.1117  0.1694
  870POPE   C4A11580   2.440   0.057   7.565 -0.1720 -0.2631  0.1826
  870POPE   C1B11581   3.448  -0.364   6.855  0.1702  0.0293 -0.1957
  870POPE   C2B11582   3.455  -0.442   7.283 -0.3561 -0.1498  0.4251
  870POPE   C3B11583   3.220  -0.360   7.668  0.0180  0.0434 -0.1411
  870POPE   C4B11584   2.923  -0.134   7.808 -0.0046 -0.2137 -0.0830
  871POPE   NH311585   2.396   5.555   5.659  0.2186  0.0581 -0.1420
  871POPE   PO411586   1.917   5.757   5.604 -0.1905 -0.2348  0.0357
  871POPE   GL111587   1.980   5.726   6.039  0.0399  0.0977 -0.0311
  871POPE   GL211588   1.936   5.993   6.176 -0.1445 -0.1178  0.3205
  871POPE   C1A11589   2.244   5.526   6.439  0.0416  0.1299 -0.0835
  871POPE   D2A11590   2.298   5.264   6.851  0.0676 -0.2848 -0.2244
  871POPE   C3A11591   1.960   5.162   7.159  0.2838  0.3301  0.1405
  871POPE   C4A11592   1.927   5.184   7.592  0.0746  0.0004  0.1050
  871POPE   C1B11593   2.214   6.023   6.518  0.0065  0.4134  0.1485
  871POPE   C2B11594   2.358   5.763   6.848  0.2895  0.0929 -0.0151
  871POPE   C3B11595   2.207   5.552   7.350  0.0700 -0.4021 -0.2218
  871POPE   C4B11596   2.073   5.679   7.659 -0.2580 -0.0269  0.0448
  872YOPE   NH311597   8.817   2.347   5.710  0.0897  0.0924  0.2713
  872YOPE   PO411598   9.251   2.442   5.944  0.1648  0.0381  0.2061
  872YOPE   GL111599   9.314   2.297   6.318  0.0340  0.1159  0.0828
  872YOPE   GL211600   9.602   2.145   6.354 -0.0251 -0.2197  0.2299
  872YOPE   C1A11601   9.252   2.432   6.703  0.3099  0.1455 -0.3380
  872YOPE   D2A11602   9.375   2.431   7.230  0.3893  0.0123 -0.0644
  872YOPE   C3A11603   9.540   2.763   7.519  0.3027  0.2707 -0.0415
  872YOPE   C4A11604   9.708   2.986   7.725  0.0564 -0.0971  0.0229
  872YOPE   C1B11605   9.679   2.251   6.811  0.0021  0.2889 -0.1235
  872YOPE   C2B11606   9.895   2.229   7.226  0.0108  0.0412  0.2427
  872YOPE   D3B11607   9.926   2.456   7.610  0.0319  0.2099  0.1249
  872YOPE   C4B11608  10.039   2.697   8.003 -0.1297 -0.1807  0.0119
  873YOPE   NH311609  15.986   2.554   6.286 -0.4428 -0.2985 -0.1688
  873YOPE   PO411610  15.607   2.561   6.160  0.0518  0.3815 -0.2891
  873YOPE   GL111611  15.525   2.478   6.569  0.3992  0.3543  0.1379
  873YOPE   GL211612  15.585   2.199   6.589 -0.1405  0.0968 -0.1708
  873YOPE   C1A11613  15.558   2.447   7.037 -0.2615  0.1895 -0.1239
  873YOPE   D2A11614  15.523   2.280   7.565  0.3076  0.2423  0.1157
  873YOPE   C3A11615  15.195   2.520   7.854  0.2037 -0.2594 -0.0181
  873YOPE   C4A11616  14.818   2.533   8.144  0.2626  0.0951  0.1651
  873YOPE   C1B11617  15.689   1.991   6.871  0.0893  0.1667  0.0808
  873YOPE   C2B11618  15.547   1.923   7.248  0.2688 -0.1282  0.0741
  873YOPE   D3B11619  15.353   1.799   7.610  0.1290  0.0175  0.0148
  873YOPE   C4B11620  15.148   1.968   8.005  0.2148 -0.0073 -0.1718
  874YOPE   NH311621   3.874   0.584   6.449  0.1501  0.1603  0.2298
  874YOPE   PO411622   4.241   0.710   6.379 -0.1097 -0.2064  0.1551
  874YOPE   GL111623   4.276   0.661   6.835 -0.0534  0.2951  0.0260
  874YOPE   GL211624   3.945   0.531   6.920  0.0766  0.1975  0.2152
  874YOPE   C1A11625   4.297   0.748   7.229  0.0016  0.0073 -0.4565
  874YOPE   D2A11626   4.224   0.718   7.608  0.2198  0.0919 -0.1777
  874YOPE   C3A11627   4.408   0.744   7.956  0.0517  0.5393 -0.4041
  874YOPE   C4A11628   4.662   0.709   8.259 -0.0203  0.0051 -0.0654
  874YOPE   C1B11629   3.694   0.926   7.027 -0.0093 -0.1138  0.2899
  874YOPE   C2B11630   3.616   1.486   7.270  0.0735  0.0375  0.1198
  874YOPE   D3B11631   3.498   1.613   7.678  0.1763  0.2908  0.1515
  874YOPE   C4B11632   3.493   1.914   7.963  0.0178  0.2580  0.2884
  875YOPE   NH311633   4.177  16.281   6.309  0.1851  0.0009  0.0633
  875YOPE   PO411634   4.492  16.615   6.358  0.1572  0.3015  0.2150
  875YOPE   GL111635   4.466  16.831   6.758 -0.1305 -0.2782  0.3836
  875YOPE   GL211636   4.722  16.864   6.965  0.2454 -0.2293  0.0370
  875YOPE   C1A11637   4.164  16.857   7.079 -0.2954 -0.0733  0.2739
  875YOPE   D2A11638   3.835  16.950   7.410 -0.1885  0.1952 -0.1911
  875YOPE   C3A11639   3.918  17.056   7.814  0.1953  0.0062  0.0528
  875YOPE   C4A11640   4.092  17.185   8.201 -0.2625  0.0404 -0.2047
  875YOPE   C1B11641   4.626  16.613   7.316 -0.1654  0.0766  0.1965
  875YOPE   C2B11642   4.621  16.494   7.782 -0.0954 -0.0425  0.0482
  875YOPE   D3B11643   4.999  16.524   8.107  0.3289 -0.1957 -0.0609
  875YOPE   C4B11644   5.480  16.646   8.316  0.0936  0.2512 -0.1573
  876YOPE   NH311645   4.049   2.538   6.159  0.2093  0.0332 -0.2242
  876YOPE   PO411646   4.461   2.826   6.178  0.3256 -0.0402  0.1163
  876YOPE   GL111647   4.613   2.895   6.587  0.2445  0.2955 -0.1736
  876YOPE   GL211648   4.791   3.199   6.628  0.1955 -0.2762 -0.1679
  876YOPE   C1A11649   4.661   2.992   7.007 -0.0177 -0.0861  0.1596
  876YOPE   D2A11650   4.749   3.169   7.331  0.0234  0.2549  0.1021
  876YOPE   C3A11651   4.772   2.933   7.697  0.1861  0.0885 -0.2888
  876YOPE   C4A11652   4.651   2.834   8.123 -0.0762  0.4330 -0.0289
  876YOPE   C1B11653   5.128   3.174   6.991 -0.1845 -0.1026  0.0192
  876YOPE   C2B11654   5.311   3.159   7.432 -0.0150 -0.1566 -0.1349
  876YOPE   D3B11655   5.448   3.021   7.834 -0.3958 -0.0011  0.0607
  876YOPE   C4B11656   5.937   2.921   7.934  0.0012 -0.1189 -0.1487
  877YOPE   NH311657   2.659   6.424   5.814 -0.1430 -0.3630  0.1684
  877YOPE   PO411658   2.438   6.849   5.915 -0.1520  0.6840  0.0520
  877YOPE   GL111659   2.073   6.911   6.238 -0.1148  0.0154 -0.2222
  877YOPE   GL211660   2.270   7.109   6.524  0.0924  0.0537  0.4077
  877YOPE   C1A11661   1.839   6.949   6.529  0.0781 -0.0423  0.0984
  877YOPE   D2A11662   1.691   7.064   6.948 -0.0964  0.0249  0.1802
  877YOPE   C3A11663   1.743   6.812   7.318 -0.1330 -0.3168  0.0838
  877YOPE   C4A11664   1.580   6.503   7.438 -0.2104  0.0953 -0.1583
  877YOPE   C1B11665   2.175   7.195   7.003 -0.0091  0.0507 -0.1116
  877YOPE   C2B11666   2.024   7.457   7.458  0.2020 -0.1864 -0.0811
  877YOPE   D3B11667   1.761   7.592   7.733 -0.2358 -0.3021  0.1887
  877YOPE   C4B11668   1.669   7.664   8.115 -0.0277 -0.0317 -0.0562
  878YOPE   NH311669   9.579   7.349   5.537  0.1579 -0.0385  0.1735
  878YOPE   PO411670   9.566   7.011   5.357  0.2632 -0.1136  0.1445
  878YOPE   GL111671   9.450   6.943   5.845 -0.0612  0.5047  0.1380
  878YOPE   GL211672   9.160   6.862   5.914 -0.1420 -0.1687  0.0391
  878YOPE   C1A11673   9.545   6.910   6.301 -0.1257  0.0654 -0.2251
  878YOPE   D2A11674   9.551   7.321   6.479 -0.1450 -0.0797  0.0434
  878YOPE   C3A11675   9.805   7.289   6.718 -0.1038 -0.2860 -0.0751
  878YOPE   C4A11676   9.542   7.055   6.939 -0.3665  0.0670 -0.0189
  878YOPE   C1B11677   9.062   6.757   6.456  0.0484  0.0075 -0.4833
  878YOPE   C2B11678   8.913   6.953   6.834  0.0660  0.3803 -0.1118
  878YOPE   D3B11679   9.024   7.130   7.188 -0.1443  0.1374  0.1472
  878YOPE   C4B11680   9.283   7.075   7.513 -0.0700 -0.2533  0.1460
  879YOPE   NH311681  16.791  17.607   5.893 -0.0262  0.0046  0.0300
  879YOPE   PO411682  16.947  17.269   5.749 -0.1802  0.2619  0.0927
  879YOPE   GL111683  16.937  17.178   6.274 -0.1582 -0.0013  0.0969
  879YOPE   GL211684  17.206  17.023   6.368  0.0276 -0.1169 -0.0397
  879YOPE   C1A11685  16.946  17.400   6.634  0.0744  0.1015  0.0127
  879YOPE   D2A11686  16.893  17.774   6.871  0.0607 -0.0965 -0.2049
  879YOPE   C3A11687  16.986  17.727   7.281 -0.0040 -0.0213 -0.1769
  879YOPE   C4A11688  17.184  17.755   7.740 -0.1883  0.4739 -0.0180
  879YOPE   C1B11689  17.153  16.868   6.788  0.1036 -0.0063  0.3124
  879YOPE   C2B11690  17.356  16.748   7.033 -0.2104 -0.1236  0.3006
  879YOPE   D3B11691  17.119  16.739   7.386  0.0416  0.2262  0.1382
  879YOPE   C4B11692  16.882  16.633   7.708  0.2681 -0.0694  0.0896
  880YOPE   NH311693   7.752  10.581   6.001 -0.0803 -0.0262  0.0235
  880YOPE   PO411694   7.474  10.954   6.117 -0.1531 -0.0662  0.1006
  880YOPE   GL111695   7.744  11.005   6.374  0.3003  0.0540 -0.0968
  880YOPE   GL211696   8.059  11.101   6.291  0.1363 -0.0645 -0.0267
  880YOPE   C1A11697   7.863  10.961   6.827  0.2358 -0.1132  0.2434
  880YOPE   D2A11698   7.750  10.923   7.195 -0.0611 -0.3149 -0.0502
  880YOPE   C3A11699   7.706  11.243   7.512  0.0815 -0.2285  0.2588
  880YOPE   C4A11700   7.316  11.354   7.681 -0.2236 -0.3628  0.0461
  880YOPE   C1B11701   8.350  10.958   6.672  0.2122 -0.2395 -0.2067
  880YOPE   C2B11702   8.315  10.920   7.171 -0.0207 -0.2646 -0.2632
  880YOPE   D3B11703   8.187  11.021   7.489  0.1448 -0.1236 -0.1075
  880YOPE   C4B11704   8.120  11.260   7.839 -0.2040  0.1435  0.0908
  881YOPE   NH311705  14.276  11.906   6.089  0.0375 -0.2099 -0.3568
  881YOPE   PO411706  14.070  12.232   6.185 -0.1060  0.1080  0.0008
  881YOPE   GL111707  13.921  12.275   6.561 -0.0727  0.0890 -0.0142
  881YOPE   GL211708  14.100  12.573   6.644 -0.1197 -0.1567  0.0242
  881YOPE   C1A11709  13.829  12.043   6.939  0.0335  0.0498 -0.0136
  881YOPE   D2A11710  13.801  11.943   7.325  0.2003  0.0872 -0.0412
  881YOPE   C3A11711  13.906  12.198   7.660 -0.1824 -0.4328 -0.0548
  881YOPE   C4A11712  14.141  12.352   8.000  0.0827 -0.0129  0.1053
  881YOPE   C1B11713  14.175  12.749   6.998 -0.3505  0.0941  0.0304
  881YOPE   C2B11714  14.013  13.024   7.273  0.0772 -0.4088  0.4755
  881YOPE   D3B11715  14.118  13.114   7.727 -0.1011 -0.0077 -0.0729
  881YOPE   C4B11716  14.107  13.168   8.130  0.5126  0.1222  0.1375
  882YOPE   NH311717  17.005   5.690   6.262  0.0058  0.1352  0.0499
  882YOPE   PO411718  16.713   5.447   6.187  0.4100  0.3211 -0.2054
  882YOPE   GL111719  16.840   5.441   6.647  0.2925 -0.3049  0.0851
  882YOPE   GL211720  16.959   5.034   6.697  0.0418  0.1614 -0.0334
  882YOPE   C1A11721  16.812   5.406   7.125  0.1385 -0.1498  0.0213
  882YOPE   D2A11722  16.955   5.428   7.571  0.0497  0.3652 -0.2572
  882YOPE   C3A11723  17.027   5.897   7.739 -0.1226  0.0059 -0.0780
  882YOPE   C4A11724  17.040   6.004   8.191 -0.2672 -0.3849  0.2423
  882YOPE   C1B11725  17.085   5.004   7.125  0.2523  0.0450 -0.0838
  882YOPE   C2B11726  17.379   5.170   7.518 -0.0252  0.0559  0.2598
  882YOPE   D3B11727  17.608   5.056   7.822 -0.1659 -0.1881 -0.0094
  882YOPE   C4B11728  17.525   5.045   8.279 -0.2138  0.2213  0.3965
  883YOPE   NH311729  12.033   8.756   5.824 -0.1518 -0.1609 -0.2678
  883YOPE   PO411730  12.298   8.494   6.099 -0.1130  0.1839  0.3065
  883YOPE   GL111731  12.266   8.404   6.522  0.0080  0.0134 -0.1243
  883YOPE   GL211732  12.557   8.442   6.621 -0.2474  0.0265 -0.4052
  883YOPE   C1A11733  12.122   8.432   6.888  0.2714 -0.2462  0.2663
  883YOPE   D2A11734  11.975   8.481   7.308  0.0211 -0.0250  0.0149
  883YOPE   C3A11735  12.307   8.381   7.738 -0.1175  0.0176 -0.0763
  883YOPE   C4A11736  12.119   8.315   8.092  0.0396 -0.1350 -0.0786
  883YOPE   C1B11737  12.614   8.329   7.024  0.1755 -0.0624 -0.4473
  883YOPE   C2B11738  12.742   8.215   7.451  0.1888  0.1308 -0.1892
  883YOPE   D3B11739  13.040   8.340   7.785  0.0764 -0.0552  0.3913
  883YOPE   C4B11740  13.277   8.461   8.215 -0.2196 -0.3519  0.1274
  884YOPE   NH311741   5.623   3.629   5.607 -0.1172 -0.0702 -0.3659
  884YOPE   PO411742   5.404   4.007   5.677  0.2352  0.4153 -0.0629
  884YOPE   GL111743   5.331   3.835   6.116  0.0789 -0.0729 -0.3361
  884YOPE   GL211744   5.081   3.681   6.030 -0.1288 -0.1021  0.0503
  884YOPE   C1A11745   5.349   3.971   6.607 -0.1866 -0.0259 -0.2242
  884YOPE   D2A11746   5.461   4.176   7.047  0.1090  0.0041 -0.2267
  884YOPE   C3A11747   5.782   4.011   7.290 -0.1001 -0.0592 -0.0835
  884YOPE   C4A11748   5.897   3.919   7.779  0.0155 -0.1919 -0.1341
  884YOPE   C1B11749   4.964   3.626   6.517  0.1583 -0.0447 -0.1619
  884YOPE   C2B11750   5.001   3.650   6.918 -0.1570 -0.0650 -0.1484
  884YOPE   D3B11751   5.111   3.606   7.336 -0.2948 -0.0576 -0.1120
  884YOPE   C4B11752   4.950   3.450   7.691 -0.1763  0.1611  0.0695
  885YOPE   NH311753  13.452  14.863   5.808  0.1738  0.3370 -0.1663
  885YOPE   PO411754  13.399  14.558   6.146  0.0179  0.1260 -0.2066
  885YOPE   GL111755  13.530  14.554   6.546 -0.1706 -0.1931  0.2366
  885YOPE   GL211756  13.921  14.407   6.673  0.2605 -0.0070  0.0222
  885YOPE   C1A11757  13.697  14.815   6.962 -0.0949  0.0099 -0.0000
  885YOPE   D2A11758  13.955  14.995   7.237  0.0932 -0.0563  0.1693
  885YOPE   C3A11759  13.938  14.872   7.643  0.0105 -0.3188  0.1493
  885YOPE   C4A11760  14.013  14.596   8.060  0.4447  0.0819  0.0730
  885YOPE   C1B11761  13.955  14.431   7.180  0.0799  0.2902  0.0231
  885YOPE   C2B11762  14.226  14.430   7.598  0.2292  0.1338  0.1439
  885YOPE   D3B11763  14.383  14.678   7.785 -0.2685  0.2000 -0.2402
  885YOPE   C4B11764  14.750  14.975   7.955  0.2225  0.1075  0.2392
  886YOPE   NH311765   7.640  14.145   6.139 -0.0400 -0.2010 -0.1835
  886YOPE   PO411766   7.994  14.433   6.051  0.0293 -0.0074  0.0143
  886YOPE   GL111767   8.001  14.472   6.550 -0.1689 -0.0598  0.1695
  886YOPE   GL211768   7.640  14.455   6.600  0.1279  0.0983  0.0681
  886YOPE   C1A11769   8.058  14.566   6.993 -0.2440  0.2801  0.1445
  886YOPE   D2A11770   8.065  14.496   7.359 -0.1796 -0.0199 -0.2507
  886YOPE   C3A11771   7.978  14.090   7.650 -0.0159 -0.0361 -0.1953
  886YOPE   C4A11772   8.179  13.890   8.044 -0.1696 -0.0689  0.1676
  886YOPE   C1B11773   7.290  14.310   6.740  0.0099  0.0494  0.1206
  886YOPE   C2B11774   7.124  14.273   7.107  0.2357  0.0172  0.0453
  886YOPE   D3B11775   7.106  14.248   7.609  0.0936  0.0349  0.1914
  886YOPE   C4B11776   7.088  14.008   8.012 -0.1303 -0.0199  0.2296
  887YOPE   NH311777  15.692   7.990   6.115 -0.0365  0.0827 -0.1116
  887YOPE   PO411778  15.330   7.657   6.011 -0.1407 -0.1047  0.1396
  887YOPE   GL111779  15.614   7.592   6.405 -0.2634 -0.0795 -0.1393
  887YOPE   GL211780  15.901   7.451   6.459  0.0547  0.0517 -0.2166
  887YOPE   C1A11781  15.390   7.370   6.790 -0.0958 -0.0206 -0.0746
  887YOPE   D2A11782  15.334   7.538   7.176 -0.2498 -0.0071  0.2815
  887YOPE   C3A11783  15.027   7.288   7.489  0.3267  0.2149 -0.1216
  887YOPE   C4A11784  14.880   7.333   8.006  0.2268  0.1019 -0.1250
  887YOPE   C1B11785  15.857   7.572   6.970 -0.1003 -0.0398  0.0485
  887YOPE   C2B11786  15.832   7.640   7.347 -0.2364 -0.1358 -0.0498
  887YOPE   D3B11787  16.064   7.640   7.688  0.0931  0.1826  0.1129
  887YOPE   C4B11788  16.382   7.396   7.991  0.0784 -0.5457  0.3009
  888YOPE   NH311789  11.764   9.677   5.470 -0.2446  0.0770 -0.1344
  888YOPE   PO411790  11.729   9.835   5.938 -0.0807  0.1373  0.0382
  888YOPE   GL111791  11.597   9.867   6.347  0.1589  0.0019  0.2936
  888YOPE   GL211792  11.379  10.247   6.428  0.2138 -0.1318  0.0994
  888YOPE   C1A11793  11.626   9.648   6.839 -0.0894 -0.1517  0.0588
  888YOPE   D2A11794  11.495   9.586   7.131  0.0606 -0.0414 -0.0737
  888YOPE   C3A11795  11.747   9.836   7.391  0.1829 -0.0046  0.1677
  888YOPE   C4A11796  12.059  10.056   7.478  0.0642 -0.0436  0.2118
  888YOPE   C1B11797  11.491  10.281   6.867  0.1231  0.2990  0.1611
  888YOPE   C2B11798  11.728  10.158   7.096 -0.3025 -0.1155 -0.0083
  888YOPE   D3B11799  12.012  10.469   7.113  0.0688 -0.0109 -0.0152
  888YOPE   C4B11800  12.217  10.647   7.529  0.0049 -0.1731  0.0158
  889YOPE   NH311801   6.734  10.298   5.903  0.0916  0.1734 -0.0325
  889YOPE   PO411802   6.813   9.832   5.728  0.1575 -0.1047 -0.0190
  889YOPE   GL111803   6.845   9.741   6.217  0.3442 -0.1066  0.1065
  889YOPE   GL211804   7.152   9.956   6.384 -0.0402  0.0367 -0.0771
  889YOPE   C1A11805   6.759   9.682   6.592  0.0574 -0.0338  0.0596
  889YOPE   D2A11806   6.812   9.561   7.021 -0.1528 -0.3898 -0.0028
  889YOPE   C3A11807   6.544   9.442   7.371 -0.0360  0.3118 -0.0553
  889YOPE   C4A11808   6.547   9.473   7.828  0.2237  0.0347  0.0065
  889YOPE   C1B11809   7.393  10.018   6.711 -0.2093 -0.0144  0.1573
  889YOPE   C2B11810   7.290  10.011   7.145 -0.0778 -0.1077  0.2613
  889YOPE   D3B11811   7.447   9.844   7.456 -0.3244  0.1091 -0.0844
  889YOPE   C4B11812   7.615   9.734   7.833 -0.2179 -0.1432  0.3578
  890YOPE   NH311813  13.622   0.845   5.625 -0.0002  0.2453 -0.0659
  890YOPE   PO411814  13.417   0.745   5.881 -0.2261  0.0595 -0.0160
  890YOPE   GL111815  13.404   0.715   6.269 -0.1766  0.3061  0.1319
  890YOPE   GL211816  13.222   0.919   6.402 -0.0503 -0.2059 -0.0106
  890YOPE   C1A11817  13.512   0.530   6.659 -0.1656  0.1042 -0.0036
  890YOPE   D2A11818  13.408   0.231   7.127  0.1592 -0.3586 -0.1292
  890YOPE   C3A11819  13.749   0.101   7.364  0.1009  0.0938 -0.1240
  890YOPE   C4A11820  14.083  -0.043   7.673  0.0080 -0.3954  0.1917
  890YOPE   C1B11821  13.033   0.754   6.739 -0.0065 -0.4169 -0.5438
  890YOPE   C2B11822  13.122   0.736   7.231  0.1628 -0.0385  0.1707
  890YOPE   D3B11823  13.261   0.920   7.612  0.2031 -0.2184 -0.1578
  890YOPE   C4B11824  13.201   1.336   8.014  0.1501  0.1530 -0.0182
  891YOPE   NH311825   5.514  16.500   6.425  0.1189 -0.1308 -0.0417
  891YOPE   PO411826   5.738  16.135   6.439  0.1741 -0.1329  0.1563
  891YOPE   GL111827   5.591  16.105   6.842 -0.0379  0.0390 -0.1199
  891YOPE   GL211828   5.299  16.332   6.877 -0.2660 -0.2864  0.1157
  891YOPE   C1A11829   5.737  15.651   7.040 -0.2970  0.1778  0.0498
  891YOPE   D2A11830   5.634  15.336   7.331  0.0729  0.0838  0.0737
  891YOPE   C3A11831   6.039  15.015   7.530  0.0951 -0.3240 -0.1227
  891YOPE   C4A11832   6.417  15.030   7.567  0.5303 -0.1505  0.2979
  891YOPE   C1B11833   5.425  16.254   7.279  0.1869 -0.0033  0.0264
  891YOPE   C2B11834   5.669  15.983   7.530  0.1098 -0.2650 -0.2487
  891YOPE   D3B11835   5.686  15.572   7.786  0.1867 -0.1018  0.3440
  891YOPE   C4B11836   5.742  15.112   7.906  0.2895  0.0129  0.1304
  892YOPE   NH311837   1.571  13.914   6.173 -0.1385  0.2977 -0.3397
  892YOPE   PO411838   2.035  13.815   6.100  0.0014  0.0710  0.1065
  892YOPE   GL111839   2.121  14.043   6.491 -0.1204 -0.1791 -0.3294
  892YOPE   GL211840   2.455  13.838   6.577  0.1067 -0.2072  0.0088
  892YOPE   C1A11841   2.163  14.271   6.870  0.1456  0.0723  0.0446
  892YOPE   D2A11842   2.268  14.131   7.310 -0.1107 -0.1295 -0.3489
  892YOPE   C3A11843   2.097  14.225   7.759  0.1429 -0.2068  0.0605
  892YOPE   C4A11844   1.856  14.386   8.008  0.0152 -0.0675  0.1447
  892YOPE   C1B11845   2.379  13.670   7.124  0.0531 -0.2550 -0.0899
  892YOPE   C2B11846   2.530  13.715   7.547  0.1669  0.1992  0.2424
  892YOPE   D3B11847   2.777  13.862   7.886  0.0856 -0.2037  0.1549
  892YOPE   C4B11848   2.878  13.960   8.259  0.2670  0.1139  0.2614
  893YOPE   NH311849  10.112  13.386   6.195 -0.4339  0.0131  0.1066
  893YOPE   PO411850  10.514  13.624   6.215  0.3717  0.3667  0.1027
  893YOPE   GL111851  10.498  13.336   6.537 -0.0447 -0.1165 -0.1774
  893YOPE   GL211852  10.479  13.030   6.429 -0.0966 -0.0452 -0.1000
  893YOPE   C1A11853  10.338  13.243   6.896  0.0566  0.2636  0.0419
  893YOPE   D2A11854  10.367  13.068   7.313  0.2099  0.2090 -0.0648
  893YOPE   C3A11855  10.194  13.251   7.607 -0.5338 -0.1148  0.1353
  893YOPE   C4A11856   9.960  13.350   7.947 -0.0674  0.1948 -0.2268
  893YOPE   C1B11857  10.700  12.788   6.786 -0.1437  0.1727  0.0529
  893YOPE   C2B11858  10.980  12.615   7.094  0.0318  0.0738  0.0801
  893YOPE   D3B11859  11.015  12.488   7.471  0.0622 -0.2483  0.0046
  893YOPE   C4B11860  11.068  12.675   7.856 -0.1106 -0.0872 -0.0154
  894YOPE   NH311861   7.899  17.646   6.344 -0.0112 -0.1844 -0.2638
  894YOPE   PO411862   7.509  17.670   6.419 -0.0852  0.0344  0.0878
  894YOPE   GL111863   7.531  17.811   6.829  0.1700 -0.0343  0.1390
  894YOPE   GL211864   7.852  17.684   6.817 -0.0999  0.0258 -0.1699
  894YOPE   C1A11865   7.602  17.936   7.252  0.2241 -0.0961  0.0092
  894YOPE   D2A11866   7.492  18.060   7.650  0.1352  0.2970 -0.0709
  894YOPE   C3A11867   7.604  18.498   7.898  0.2194  0.0061  0.0476
  894YOPE   C4A11868   7.515  18.589   8.303 -0.1041 -0.3342 -0.0757
  894YOPE   C1B11869   8.063  17.719   7.174  0.1146 -0.0804 -0.0636
  894YOPE   C2B11870   8.118  17.907   7.529  0.0127 -0.1478 -0.2848
  894YOPE   D3B11871   8.031  18.189   7.752  0.0035  0.0165 -0.0297
  894YOPE   C4B11872   7.976  18.349   8.141 -0.0030  0.2849  0.3165
  895YOPE   NH311873   9.632  12.592   6.029 -0.1662 -0.1262  0.0916
  895YOPE   PO411874   9.521  13.039   6.058 -0.0889 -0.0599  0.1337
  895YOPE   GL111875   9.706  13.129   6.457 -0.1510  0.0277  0.1005
  895YOPE   GL211876   9.942  12.948   6.472 -0.0745 -0.0028  0.0281
  895YOPE   C1A11877   9.699  12.934   6.912 -0.0318 -0.0544 -0.0848
  895YOPE   D2A11878   9.900  12.857   7.310  0.0662 -0.3563  0.0949
  895YOPE   C3A11879   9.715  12.873   7.689 -0.0501 -0.0409  0.1924
  895YOPE   C4A11880   9.813  12.676   8.116  0.1369  0.1036 -0.2073
  895YOPE   C1B11881  10.147  12.774   6.899  0.2627  0.1126  0.2446
  895YOPE   C2B11882  10.341  12.573   7.236  0.0617  0.1217 -0.1757
  895YOPE   D3B11883  10.556  12.455   7.607  0.1612 -0.1469  0.1407
  895YOPE   C4B11884  10.663  12.409   8.077 -0.0137  0.1755 -0.0381
  896YOPE   NH311885  14.731   8.913   6.287 -0.2480 -0.1617  0.2217
  896YOPE   PO411886  14.890   9.256   6.452 -0.0592  0.3769  0.0110
  896YOPE   GL111887  14.833   9.091   6.829  0.2331 -0.0729 -0.3441
  896YOPE   GL211888  14.718   8.839   6.840  0.3063 -0.0466  0.1272
  896YOPE   C1A11889  15.036   8.967   7.162  0.1282  0.1737 -0.0886
  896YOPE   D2A11890  14.898   9.050   7.538 -0.2181  0.0003 -0.0094
  896YOPE   C3A11891  15.243   8.947   7.897  0.0606 -0.0431  0.2243
  896YOPE   C4A11892  15.519   9.290   8.070  0.0086 -0.2236  0.1536
  896YOPE   C1B11893  14.568   8.732   7.229  0.1924 -0.0117 -0.0863
  896YOPE   C2B11894  14.482   8.759   7.656  0.0771 -0.0682  0.0965
  896YOPE   D3B11895  14.751   8.822   8.080 -0.0153 -0.3908 -0.0703
  896YOPE   C4B11896  15.103   8.688   8.257  0.2830  0.1481 -0.3198
  897YOPE   NH311897  16.179   8.362   5.488 -0.2192  0.0465 -0.1000
  897YOPE   PO411898  16.066   8.307   5.946 -0.0344  0.0227 -0.1849
  897YOPE   GL111899  16.004   8.286   6.410  0.0156 -0.1251 -0.0718
  897YOPE   GL211900  15.911   8.006   6.616  0.3705 -0.0728  0.1675
  897YOPE   C1A11901  16.110   8.468   6.779 -0.3190  0.0311 -0.0246
  897YOPE   D2A11902  16.007   8.724   7.136 -0.2700  0.2410  0.3299
  897YOPE   C3A11903  16.028   8.537   7.508  0.1579  0.1531  0.0526
  897YOPE   C4A11904  16.130   8.714   7.874 -0.3299  0.4026  0.1656
  897YOPE   C1B11905  15.814   8.053   7.037  0.1669  0.0558  0.0964
  897YOPE   C2B11906  15.681   8.108   7.476 -0.1553  0.0333  0.3136
  897YOPE   D3B11907  15.497   7.794   7.724  0.1073  0.3562  0.0178
  897YOPE   C4B11908  15.170   7.772   8.104  0.3160 -0.1963  0.2643
  898YOPE   NH311909  15.311   3.741   6.258  0.0812 -0.3152 -0.1714
  898YOPE   PO411910  14.886   3.734   6.331 -0.1502  0.1692 -0.1118
  898YOPE   GL111911  14.743   3.433   6.567  0.0497 -0.1447 -0.4539
  898YOPE   GL211912  14.579   3.553   6.805 -0.1531 -0.4251 -0.0947
  898YOPE   C1A11913  14.959   3.156   6.855  0.1445  0.0251 -0.2691
  898YOPE   D2A11914  15.139   2.718   7.015  0.2136  0.0194  0.0828
  898YOPE   C3A11915  14.841   2.626   7.327 -0.0054  0.3197 -0.1708
  898YOPE   C4A11916  14.664   2.469   7.676 -0.1484 -0.0409 -0.0892
  898YOPE   C1B11917  14.694   3.607   7.238 -0.0097  0.1725 -0.0625
  898YOPE   C2B11918  14.807   3.576   7.655  0.0204  0.3533 -0.0770
  898YOPE   D3B11919  14.789   3.399   8.016 -0.3204  0.0893  0.0792
  898YOPE   C4B11920  14.581   3.485   8.381 -0.1460  0.1610 -0.0855
  899YOPE   NH311921   1.209   7.350   5.688  0.2218 -0.1089 -0.0324
  899YOPE   PO411922   1.606   7.300   5.853  0.1264 -0.0824 -0.3028
  899YOPE   GL111923   1.619   7.308   6.208  0.0242 -0.0027 -0.1605
  899YOPE   GL211924   1.887   7.409   6.291 -0.4382 -0.3676 -0.1034
  899YOPE   C1A11925   1.344   7.245   6.626 -0.1017 -0.2693 -0.4165
  899YOPE   D2A11926   1.082   7.221   6.987 -0.2989  0.3387  0.1674
  899YOPE   C3A11927   0.819   6.892   7.174 -0.0531  0.0862  0.1219
  899YOPE   C4A11928   0.575   6.693   7.469 -0.1244 -0.1115  0.0576
  899YOPE   C1B11929   2.158   7.630   6.605  0.2044  0.0872  0.0656
  899YOPE   C2B11930   2.202   7.726   7.078 -0.0053  0.0303 -0.0563
  899YOPE   D3B11931   2.079   8.069   7.353 -0.1414 -0.0770 -0.0736
  899YOPE   C4B11932   1.697   8.145   7.258 -0.2325 -0.1339 -0.0268
  900YOPE   NH311933  17.400  14.475   6.396 -0.3727 -0.1317 -0.1060
  900YOPE   PO411934  17.002  14.265   6.137 -0.1598  0.0176  0.0793
  900YOPE   GL111935  16.960  14.109   6.592 -0.0657  0.1682 -0.0376
  900YOPE   GL211936  17.139  14.386   6.788 -0.0343 -0.1387  0.0117
  900YOPE   C1A11937  16.758  14.126   6.939  0.5527 -0.2902  0.0802
  900YOPE   D2A11938  16.969  14.194   7.373 -0.0717 -0.2305 -0.0608
  900YOPE   C3A11939  16.781  14.421   7.616  0.1817 -0.1943  0.0876
  900YOPE   C4A11940  16.969  14.589   7.927 -0.3331  0.2178 -0.0826
  900YOPE   C1B11941  16.954  14.631   7.030  0.2398  0.0938  0.2971
  900YOPE   C2B11942  17.039  14.851   7.418  0.2918 -0.2361  0.1662
  900YOPE   D3B11943  17.008  15.090   7.774  0.0704  0.0851 -0.0709
  900YOPE   C4B11944  16.804  15.028   8.112  0.1305  0.1268  0.0067
  901YOPE   NH311945  11.397  10.713   6.217 -0.2277  0.0695 -0.0934
  901YOPE   PO411946  11.777  10.395   6.139  0.2004 -0.1030 -0.2042
  901YOPE   GL111947  11.828  10.469   6.572  0.3372 -0.1779 -0.2380
  901YOPE   GL211948  12.020  10.193   6.689  0.1163 -0.0471  0.0735
  901YOPE   C1A11949  11.724  10.759   6.855 -0.1813 -0.2805 -0.1372
  901YOPE   D2A11950  12.029  11.040   6.687  0.2007  0.0575 -0.0951
  901YOPE   C3A11951  12.201  11.229   7.110  0.1468 -0.0034  0.1717
  901YOPE   C4A11952  12.043  11.325   7.528 -0.1630  0.3481 -0.2932
  901YOPE   C1B11953  12.118   9.864   7.013 -0.0808  0.2187 -0.2799
  901YOPE   C2B11954  12.027   9.409   7.118  0.0173 -0.0359 -0.4806
  901YOPE   D3B11955  11.848   9.367   7.588 -0.1940 -0.3762  0.3152
  901YOPE   C4B11956  11.455   9.262   7.690  0.1389 -0.1235 -0.1541
  902YOPE   NH311957   4.196  10.102   5.547  0.2154 -0.1856  0.0099
  902YOPE   PO411958   4.641  10.142   5.589  0.4467  0.0197 -0.1291
  902YOPE   GL111959   4.684  10.256   5.948 -0.1490 -0.0261 -0.0441
  902YOPE   GL211960   4.713  10.568   6.041  0.1218  0.1191  0.2879
  902YOPE   C1A11961   4.801  10.032   6.330  0.1998 -0.0534  0.1366
  902YOPE   D2A11962   4.659  10.074   6.718 -0.0690  0.3782  0.1961
  902YOPE   C3A11963   4.873   9.780   6.979 -0.0181  0.0665 -0.1477
  902YOPE   C4A11964   5.290   9.680   6.809  0.1898  0.2172 -0.1629
  902YOPE   C1B11965   4.409  10.788   6.352  0.0005 -0.1683 -0.2174
  902YOPE   C2B11966   4.311  11.084   6.673  0.3644 -0.0221 -0.0356
  902YOPE   D3B11967   4.213  11.153   7.045 -0.1039 -0.1129 -0.0062
  902YOPE   C4B11968   4.183  11.074   7.454  0.0823 -0.0839 -0.0503
  903YOPE   NH311969  10.119   3.980   5.513  0.1729 -0.0465  0.2034
  903YOPE   PO411970  10.510   4.025   5.704 -0.0874 -0.0946  0.1908
  903YOPE   GL111971  10.579   4.066   6.190  0.1739  0.0537  0.0754
  903YOPE   GL211972  10.668   4.350   6.128 -0.1750 -0.1181 -0.0628
  903YOPE   C1A11973  10.572   3.919   6.620 -0.0265 -0.1155  0.0827
  903YOPE   D2A11974  10.518   3.713   6.999  0.0912  0.0107  0.0323
  903YOPE   C3A11975  10.133   3.699   7.304  0.0821 -0.3286 -0.1880
  903YOPE   C4A11976   9.732   3.739   7.431  0.0013 -0.1684  0.1842
  903YOPE   C1B11977  10.872   4.341   6.577  0.0898  0.1712 -0.0962
  903YOPE   C2B11978  10.962   4.149   6.934  0.2116 -0.1272 -0.0536
  903YOPE   D3B11979  11.015   3.898   7.293 -0.2320 -0.0710 -0.0698
  903YOPE   C4B11980  10.931   3.886   7.670  0.0592 -0.0760 -0.2240
  904YOPE   NH311981   8.939   9.672   5.680  0.1087  0.1325  0.0202
  904YOPE   PO411982   8.693  10.141   5.796  0.1760 -0.0435 -0.1173
  904YOPE   GL111983   8.416  10.127   6.124  0.1263  0.0036  0.2055
  904YOPE   GL211984   8.080  10.157   6.061  0.2696 -0.0116 -0.0464
  904YOPE   C1A11985   8.513  10.047   6.547  0.1061 -0.2677  0.2081
  904YOPE   D2A11986   8.491  10.066   6.927  0.0500  0.0808 -0.1491
  904YOPE   C3A11987   8.403  10.260   7.306 -0.1014  0.2799 -0.0387
  904YOPE   C4A11988   8.356  10.543   7.650  0.0989 -0.1581  0.0586
  904YOPE   C1B11989   7.970  10.130   6.577 -0.0766 -0.2859  0.0835
  904YOPE   C2B11990   8.023  10.422   6.889 -0.1206  0.1794  0.1754
  904YOPE   D3B11991   8.005  10.568   7.318 -0.2320  0.1039 -0.3539
  904YOPE   C4B11992   7.789  10.659   7.729 -0.0507 -0.0948 -0.0689
  905YOPE   NH311993  16.809   7.227   5.959  0.2606 -0.1104 -0.1683
  905YOPE   PO411994  16.887   7.579   6.165 -0.1563  0.3287  0.0084
  905YOPE   GL111995  16.715   7.753   6.487  0.2179  0.1995  0.0290
  905YOPE   GL211996  16.341   7.710   6.664 -0.2244  0.0265 -0.0786
  905YOPE   C1A11997  16.821   7.776   6.979 -0.1507 -0.0080  0.1311
  905YOPE   D2A11998  16.849   7.854   7.358  0.0824 -0.1215  0.2293
  905YOPE   C3A11999  16.815   7.661   7.859 -0.2308  0.1409  0.0012
  905YOPE   C4A12000  16.827   7.536   8.322 -0.0693  0.1452 -0.0259
  905YOPE   C1B12001  16.304   7.930   6.988  0.0758  0.0794 -0.0980
  905YOPE   C2B12002  16.229   7.955   7.396  0.1100  0.0784  0.4447
  905YOPE   D3B12003  16.430   7.935   7.737 -0.2452  0.0667 -0.2228
  905YOPE   C4B12004  16.478   7.926   8.139 -0.0240  0.0266  0.1604
  906YOPE   NH312005  10.286   5.074   5.454  0.0254 -0.0281 -0.4650
  906YOPE   PO412006  10.208   5.556   5.406 -0.0044  0.0082  0.1524
  906YOPE   GL112007  10.099   5.452   5.775  0.0506 -0.2393 -0.3743
  906YOPE   GL212008   9.805   5.413   5.905  0.1258 -0.2954  0.1551
  906YOPE   C1A12009  10.368   5.432   6.174 -0.3183  0.0210  0.1672
  906YOPE   D2A12010  10.393   5.187   6.581 -0.2534  0.0185 -0.0469
  906YOPE   C3A12011  10.496   5.119   6.997 -0.2098  0.1111  0.1786
  906YOPE   C4A12012  10.384   5.266   7.413  0.2734  0.0341  0.4069
  906YOPE   C1B12013   9.906   5.373   6.319  0.0199  0.0049 -0.3559
  906YOPE   C2B12014   9.953   5.233   6.810  0.0687 -0.1441 -0.2803
  906YOPE   D3B12015   9.992   5.539   7.114 -0.1997 -0.2670 -0.2652
  906YOPE   C4B12016   9.983   5.997   7.381 -0.0244 -0.0906  0.0796
  907YOPE   NH312017   6.730   4.759   5.737  0.0566 -0.1145 -0.1745
  907YOPE   PO412018   6.721   5.206   5.638 -0.4186  0.2557  0.0915
  907YOPE   GL112019   6.987   5.154   5.989 -0.0877 -0.0166 -0.1353
  907YOPE   GL212020   7.109   4.937   6.163 -0.0383  0.1188  0.0730
  907YOPE   C1A12021   7.309   5.397   6.238  0.0759  0.3051  0.0162
  907YOPE   D2A12022   7.518   5.551   6.619  0.0592 -0.1663 -0.0130
  907YOPE   C3A12023   7.589   5.474   7.003  0.1000 -0.0495  0.2503
  907YOPE   C4A12024   7.533   5.439   7.387 -0.3640 -0.2473 -0.3551
  907YOPE   C1B12025   7.122   5.061   6.593  0.2979 -0.1090 -0.3431
  907YOPE   C2B12026   7.295   5.073   7.030 -0.0125 -0.0592  0.1680
  907YOPE   D3B12027   7.062   5.285   7.386 -0.1658 -0.2325  0.1663
  907YOPE   C4B12028   7.136   5.516   7.789 -0.0390  0.2694  0.1239
  908YOPE   NH312029  15.949  10.951   6.159  0.1915 -0.0266  0.6191
  908YOPE   PO412030  15.730  10.579   6.388 -0.0336  0.1716  0.2292
  908YOPE   GL112031  15.896  10.771   6.722  0.0659 -0.0552  0.2121
  908YOPE   GL212032  15.867  11.071   6.631 -0.1513 -0.0260  0.3194
  908YOPE   C1A12033  15.892  10.816   7.151  0.1001 -0.0545 -0.4004
  908YOPE   D2A12034  15.946  10.812   7.507 -0.0005 -0.0222 -0.1802
  908YOPE   C3A12035  16.208  10.971   7.691  0.0787 -0.0787 -0.2932
  908YOPE   C4A12036  16.217  11.024   8.134  0.1717  0.0429 -0.4537
  908YOPE   C1B12037  15.591  11.278   7.023 -0.0381  0.3604 -0.1155
  908YOPE   C2B12038  15.529  11.155   7.441  0.1218  0.1591 -0.0571
  908YOPE   D3B12039  15.692  11.138   7.792 -0.2772 -0.0964 -0.1179
  908YOPE   C4B12040  15.774  11.302   8.144  0.3008 -0.3698  0.0838
  909YOPE   NH312041   4.717   5.613   5.859  0.0948 -0.3333  0.4160
  909YOPE   PO412042   4.828   5.246   6.071 -0.2240  0.1785  0.0365
  909YOPE   GL112043   5.144   5.112   6.402  0.0621  0.0017 -0.1800
  909YOPE   GL212044   5.421   5.373   6.312 -0.3857  0.0439 -0.1076
  909YOPE   C1A12045   5.278   5.093   6.772  0.1756 -0.1503 -0.1158
  909YOPE   D2A12046   5.057   5.322   7.096  0.0381 -0.0851 -0.1220
  909YOPE   C3A12047   5.086   5.172   7.481  0.0900  0.0520  0.0092
  909YOPE   C4A12048   5.088   4.708   7.523 -0.1596 -0.1108  0.1162
  909YOPE   C1B12049   5.478   5.704   6.517 -0.0240 -0.1156 -0.0460
  909YOPE   C2B12050   5.553   5.691   6.991 -0.1683  0.3247  0.1253
  909YOPE   D3B12051   5.525   5.446   7.372 -0.2493 -0.1470 -0.0463
  909YOPE   C4B12052   5.731   5.088   7.440  0.1000 -0.3355 -0.0732
  910YOPE   NH312053   8.816   3.659   5.076  0.1749 -0.0470  0.1386
  910YOPE   PO412054   8.587   4.052   5.216  0.2388 -0.1166  0.2424
  910YOPE   GL112055   8.504   3.866   5.661  0.2795 -0.1861  0.3369
  910YOPE   GL212056   8.257   4.156   5.854  0.0428 -0.1327  0.0763
  910YOPE   C1A12057   8.791   3.793   6.018  0.2397  0.0824 -0.0871
  910YOPE   D2A12058   9.192   3.660   6.192  0.1736  0.0067  0.1309
  910YOPE   C3A12059   9.118   3.612   6.635 -0.1934 -0.0739 -0.2433
  910YOPE   C4A12060   8.978   3.379   6.981 -0.1522  0.0739 -0.3976
  910YOPE   C1B12061   8.247   3.780   6.040  0.1133 -0.2283  0.0981
  910YOPE   C2B12062   8.354   3.478   6.295  0.1606  0.3086 -0.0935
  910YOPE   D3B12063   8.773   3.284   6.509  0.0884 -0.1708 -0.0874
  910YOPE   C4B12064   8.936   2.907   6.787 -0.0452  0.4039 -0.1363
  911YOPE   NH312065   5.720   5.458   5.864 -0.0847  0.3424 -0.0781
  911YOPE   PO412066   6.159   5.270   5.712 -0.0914  0.0084  0.1773
  911YOPE   GL112067   6.439   5.097   6.047 -0.2619 -0.0948  0.2246
  911YOPE   GL212068   6.425   4.832   6.172 -0.0435  0.0480 -0.0416
  911YOPE   C1A12069   6.679   5.202   6.416  0.1127  0.1931  0.0293
  911YOPE   D2A12070   6.942   5.530   6.556  0.0297  0.1281  0.0704
  911YOPE   C3A12071   7.023   5.666   6.935 -0.0256  0.0966 -0.0917
  911YOPE   C4A12072   7.161   5.804   7.366 -0.1023 -0.0316 -0.0588
  911YOPE   C1B12073   6.788   4.672   6.404 -0.2270 -0.3275 -0.3729
  911YOPE   C2B12074   6.902   4.674   6.853 -0.0074 -0.2492  0.2799
  911YOPE   D3B12075   6.978   4.620   7.229  0.2032 -0.0339  0.0656
  911YOPE   C4B12076   7.011   4.802   7.625 -0.0229  0.0397 -0.3053
  912YOPE   NH312077   9.369   6.517   5.496 -0.2653  0.0400  0.0497
  912YOPE   PO412078   9.458   6.146   5.479 -0.1333 -0.0690  0.0516
  912YOPE   GL112079   9.381   6.258   5.915 -0.0601 -0.0154 -0.2162
  912YOPE   GL212080   9.481   5.955   6.092  0.0920 -0.0264  0.0461
  912YOPE   C1A12081   9.351   6.399   6.375 -0.0297  0.2086 -0.0209
  912YOPE   D2A12082   9.567   6.558   6.694  0.1094  0.2226 -0.0319
  912YOPE   C3A12083   9.251   6.550   6.962 -0.1737  0.0801 -0.0731
  912YOPE   C4A12084   9.104   6.582   7.317  0.1339  0.2864  0.1291
  912YOPE   C1B12085   9.615   5.895   6.426 -0.2752 -0.2955 -0.0065
  912YOPE   C2B12086   9.562   5.578   6.878 -0.4359  0.1650  0.3669
  912YOPE   D3B12087   9.439   5.546   7.283 -0.1147 -0.0782  0.1588
  912YOPE   C4B12088   9.484   5.207   7.598  0.0069 -0.0258  0.1465
  913YOPE   NH312089   1.984   6.721   5.721 -0.0466 -0.0386  0.1129
  913YOPE   PO412090   2.166   6.417   5.935 -0.4217  0.2361 -0.0910
  913YOPE   GL112091   2.472   6.412   6.307  0.0230  0.0019  0.1235
  913YOPE   GL212092   2.741   6.614   6.346  0.4597  0.2448 -0.0432
  913YOPE   C1A12093   2.578   6.261   6.728 -0.0876 -0.0113 -0.1031
  913YOPE   D2A12094   2.836   6.406   7.076 -0.0006  0.1892  0.0445
  913YOPE   C3A12095   2.918   6.133   7.439 -0.0394  0.0668  0.2615
  913YOPE   C4A12096   2.694   5.772   7.584 -0.1964  0.3742 -0.1465
  913YOPE   C1B12097   2.575   6.764   6.673 -0.0737 -0.1114 -0.3397
  913YOPE   C2B12098   2.611   6.864   7.103  0.0738 -0.0835 -0.0548
  913YOPE   D3B12099   2.694   6.796   7.504 -0.0911 -0.2140  0.0511
  913YOPE   C4B12100   2.637   6.848   7.842 -0.1485  0.3729  0.0008
  914YOPE   NH312101  15.578   5.010   6.353 -0.1856  0.0206  0.0969
  914YOPE   PO412102  15.468   4.630   6.166  0.1189 -0.2636 -0.1617
  914YOPE   GL112103  15.128   4.427   6.435 -0.1222 -0.2091 -0.0294
  914YOPE   GL212104  15.226   4.131   6.543 -0.0170  0.0172 -0.0154
  914YOPE   C1A12105  14.983   4.482   6.830 -0.1270 -0.0323 -0.2717
  914YOPE   D2A12106  15.055   4.450   7.252  0.0563  0.0634 -0.0244
  914YOPE   C3A12107  14.762   4.439   7.588 -0.1352 -0.0915 -0.0747
  914YOPE   C4A12108  14.426   4.446   7.813  0.2917 -0.2742 -0.0451
  914YOPE   C1B12109  15.377   4.107   6.983  0.0972  0.3681  0.4526
  914YOPE   C2B12110  15.439   4.110   7.416 -0.2083  0.1637 -0.0245
  914YOPE   D3B12111  15.370   4.179   7.841 -0.0333  0.0668  0.0827
  914YOPE   C4B12112  15.245   4.410   8.193 -0.0958 -0.2527  0.0390
  915YOPE   NH312113  12.133  10.004   6.202 -0.0765  0.1267  0.0391
  915YOPE   PO412114  12.609  10.183   6.156 -0.1909  0.0763 -0.1719
  915YOPE   GL112115  12.641  10.473   6.524 -0.2481  0.0907 -0.3468
  915YOPE   GL212116  12.280  10.597   6.707 -0.0893  0.3004  0.1342
  915YOPE   C1A12117  12.862  10.576   6.834 -0.0492 -0.0563 -0.0183
  915YOPE   D2A12118  12.968  10.496   7.226  0.0404  0.0630  0.0918
  915YOPE   C3A12119  12.707  10.609   7.651  0.0015  0.0084 -0.5144
  915YOPE   C4A12120  12.356  10.804   7.959  0.0141  0.1205  0.1686
  915YOPE   C1B12121  12.470  10.731   7.123 -0.0019  0.1176  0.1538
  915YOPE   C2B12122  12.506  11.033   7.446 -0.0925  0.0594  0.1967
  915YOPE   D3B12123  12.762  11.139   7.670 -0.0091  0.2349 -0.1062
  915YOPE   C4B12124  13.062  11.221   7.894 -0.0307  0.4227 -0.3201
  916YOPE   NH312125   7.168   6.634   5.630  0.1254  0.3371  0.1016
  916YOPE   PO412126   7.555   6.773   5.570  0.0373  0.0577 -0.0933
  916YOPE   GL112127   7.575   6.693   5.987  0.1040 -0.0899 -0.0001
  916YOPE   GL212128   7.334   6.414   6.169  0.0757 -0.0141 -0.0015
  916YOPE   C1A12129   7.795   6.630   6.284 -0.3110 -0.0445  0.0019
  916YOPE   D2A12130   8.108   6.425   6.699  0.0429  0.0675 -0.1311
  916YOPE   C3A12131   8.048   6.306   7.137  0.0525 -0.1045 -0.4272
  916YOPE   C4A12132   8.354   6.175   7.463 -0.1487  0.1378  0.2921
  916YOPE   C1B12133   7.491   6.436   6.607 -0.0144  0.3259  0.0782
  916YOPE   C2B12134   7.615   6.478   7.027 -0.0526 -0.2876  0.0933
  916YOPE   D3B12135   7.525   6.419   7.393  0.1319 -0.1450 -0.0319
  916YOPE   C4B12136   7.654   6.241   7.774 -0.0113 -0.2936  0.2556
  917YOPE   NH312137   2.248   7.959   5.290  0.3401  0.0613 -0.1724
  917YOPE   PO412138   2.459   7.800   5.634  0.1930  0.2685  0.0296
  917YOPE   GL112139   2.695   7.746   5.893 -0.0413  0.2871  0.1147
  917YOPE   GL212140   2.936   7.649   6.051 -0.0464  0.0664 -0.2958
  917YOPE   C1A12141   2.491   7.846   6.291 -0.0410 -0.1308  0.0653
  917YOPE   D2A12142   2.529   7.974   6.727  0.0489  0.1721  0.1500
  917YOPE   C3A12143   2.576   8.036   7.138  0.0004  0.0739 -0.0732
  917YOPE   C4A12144   2.495   8.388   7.467  0.2089  0.0626  0.1030
  917YOPE   C1B12145   3.007   7.819   6.501  0.0539  0.0708  0.1497
  917YOPE   C2B12146   2.987   7.871   6.906  0.1551  0.0311 -0.1296
  917YOPE   D3B12147   2.967   7.752   7.281  0.0373 -0.3033 -0.1182
  917YOPE   C4B12148   2.773   7.906   7.612 -0.3499 -0.1124  0.1820
  918YOPE   NH312149  14.848   9.687   6.216  0.3667  0.2952  0.1214
  918YOPE   PO412150  14.427   9.601   6.266  0.0089 -0.0720  0.0584
  918YOPE   GL112151  14.514   9.745   6.623 -0.1153  0.0566  0.1738
  918YOPE   GL212152  14.771   9.641   6.714  0.2258  0.1337 -0.0997
  918YOPE   C1A12153  14.291   9.745   7.073 -0.2296 -0.1607 -0.1699
  918YOPE   D2A12154  14.360   9.791   7.563  0.0487  0.0805  0.1236
  918YOPE   C3A12155  14.398  10.083   7.852 -0.0697 -0.0605  0.0509
  918YOPE   C4A12156  14.607  10.355   8.128  0.2055  0.2307 -0.1801
  918YOPE   C1B12157  14.813   9.554   7.100 -0.1582  0.1652 -0.1294
  918YOPE   C2B12158  14.770   9.518   7.500  0.0123 -0.0688 -0.0869
  918YOPE   D3B12159  14.763   9.750   7.971 -0.1366  0.1443 -0.1075
  918YOPE   C4B12160  15.077   9.710   8.274  0.1184 -0.0029  0.0151
  919YOPE   NH312161  17.347   9.986   5.817  0.0245 -0.2081 -0.2944
  919YOPE   PO412162  17.521  10.486   5.857  0.0517 -0.1570 -0.1123
  919YOPE   GL112163  17.691  10.619   6.203 -0.2142  0.2195 -0.2133
  919YOPE   GL212164  17.567  10.757   6.583  0.1615 -0.3303 -0.1700
  919YOPE   C1A12165  18.118  10.527   6.316  0.3174  0.0810  0.1570
  919YOPE   D2A12166  18.304  10.251   6.691  0.0588 -0.4021  0.2622
  919YOPE   C3A12167  18.403  10.195   7.070 -0.1325  0.3052 -0.0012
  919YOPE   C4A12168  18.545  10.248   7.490  0.2497  0.2783 -0.1658
  919YOPE   C1B12169  17.277  10.785   6.874 -0.1541 -0.1257 -0.0383
  919YOPE   C2B12170  17.191  10.886   7.295  0.1345 -0.3200 -0.1652
  919YOPE   D3B12171  17.224  11.102   7.715 -0.1553 -0.5263 -0.0856
  919YOPE   C4B12172  17.338  11.335   8.042 -0.1989 -0.0179  0.1622
  920YOPE   NH312173   3.176  13.452   5.983 -0.0580  0.0848  0.1165
  920YOPE   PO412174   3.147  12.965   5.909  0.0895 -0.0184  0.1480
  920YOPE   GL112175   3.041  13.001   6.348  0.1949 -0.0289  0.2391
  920YOPE   GL212176   2.778  13.177   6.331 -0.1664  0.0548  0.1710
  920YOPE   C1A12177   2.960  12.940   6.840 -0.0297  0.0680  0.1955
  920YOPE   D2A12178   2.760  12.777   7.206 -0.2791 -0.0232 -0.0668
  920YOPE   C3A12179   2.923  12.828   7.607  0.0558 -0.0650 -0.0987
  920YOPE   C4A12180   3.129  12.650   7.912  0.0789 -0.1865 -0.3051
  920YOPE   C1B12181   2.665  13.342   6.698 -0.0503  0.2017  0.1630
  920YOPE   C2B12182   2.767  13.259   7.128  0.1945 -0.1665  0.2575
  920YOPE   D3B12183   2.604  13.228   7.508 -0.0861  0.0297  0.0377
  920YOPE   C4B12184   2.352  13.379   7.857  0.3071  0.0198 -0.2873
  921YOPE   NH312185   0.948   2.339   5.933  0.3139  0.0304 -0.0151
  921YOPE   PO412186   0.693   2.028   6.270  0.2504  0.0276  0.0046
  921YOPE   GL112187   0.730   2.237   6.655 -0.0069  0.1343 -0.0926
  921YOPE   GL212188   1.021   2.411   6.536  0.0772 -0.1009 -0.0354
  921YOPE   C1A12189   0.826   2.509   6.976  0.1117 -0.2701 -0.1902
  921YOPE   D2A12190   0.920   2.774   7.276 -0.0245  0.2397 -0.0040
  921YOPE   C3A12191   0.779   2.847   7.627  0.1044 -0.0503  0.0935
  921YOPE   C4A12192   0.632   3.184   7.895 -0.3941  0.0180 -0.1465
  921YOPE   C1B12193   1.256   2.235   6.880 -0.2076  0.0507  0.2067
  921YOPE   C2B12194   1.246   2.185   7.294 -0.0504  0.0607  0.0676
  921YOPE   D3B12195   0.990   2.346   7.905  0.2991 -0.1505  0.0896
  921YOPE   C4B12196   0.826   2.771   8.180 -0.1221 -0.3427  0.0819
  922YOPE   NH312197   7.283  10.013   5.847 -0.0315  0.0603  0.2082
  922YOPE   PO412198   7.192  10.508   5.836  0.0743 -0.3234 -0.0961
  922YOPE   GL112199   7.070  10.628   6.225 -0.4830  0.0730  0.0537
  922YOPE   GL212200   6.970  10.921   6.275  0.2150 -0.3994 -0.2453
  922YOPE   C1A12201   6.990  10.401   6.559 -0.0548 -0.2570  0.1266
  922YOPE   D2A12202   6.792  10.069   6.860 -0.1733 -0.2180 -0.0559
  922YOPE   C3A12203   6.403   9.923   6.866  0.0186 -0.1778 -0.0207
  922YOPE   C4A12204   6.262   9.739   6.468 -0.1033  0.0835  0.2941
  922YOPE   C1B12205   6.977  10.895   6.673  0.3548  0.2695  0.0709
  922YOPE   C2B12206   6.839  10.678   7.026  0.0051 -0.1356  0.3482
  922YOPE   D3B12207   6.755  10.840   7.438  0.0711  0.1807  0.0085
  922YOPE   C4B12208   6.732  10.588   7.933 -0.0851  0.0428 -0.0442
  923YOPE   NH312209   6.540  12.633   5.777  0.0005 -0.1158  0.1782
  923YOPE   PO412210   6.576  13.103   5.695  0.1081 -0.1517 -0.5188
  923YOPE   GL112211   6.418  13.075   6.116  0.1582  0.0049  0.3118
  923YOPE   GL212212   6.469  13.379   6.192 -0.2166  0.0645  0.1443
  923YOPE   C1A12213   6.335  13.175   6.608 -0.0583  0.2610  0.0671
  923YOPE   D2A12214   6.312  13.028   7.083  0.1171  0.0034  0.0884
  923YOPE   C3A12215   5.911  12.825   7.286 -0.3404 -0.0199 -0.2979
  923YOPE   C4A12216   6.028  12.651   7.764 -0.1897  0.2105 -0.1359
  923YOPE   C1B12217   6.788  13.374   6.467 -0.2068 -0.0536  0.4507
  923YOPE   C2B12218   7.014  13.408   6.736  0.1007 -0.2043  0.1343
  923YOPE   D3B12219   7.071  13.378   7.145 -0.2506 -0.0919  0.0689
  923YOPE   C4B12220   7.215  13.112   7.463  0.0370 -0.0762 -0.1166
  924YOPE   NH312221  16.688   4.269   6.152  0.2664  0.0469 -0.0172
  924YOPE   PO412222  17.085   4.175   6.063 -0.1259  0.0886 -0.1070
  924YOPE   GL112223  17.365   4.084   6.406  0.1049 -0.3672  0.1302
  924YOPE   GL212224  17.601   3.939   6.425 -0.0065 -0.0586  0.0998
  924YOPE   C1A12225  17.386   4.076   6.864 -0.0173 -0.1948  0.4022
  924YOPE   D2A12226  17.139   4.143   7.250  0.3424 -0.0395 -0.2401
  924YOPE   C3A12227  16.946   3.893   7.529  0.0165  0.0851  0.1474
  924YOPE   C4A12228  17.267   3.757   7.762  0.0848  0.1386 -0.0030
  924YOPE   C1B12229  17.597   3.630   6.850 -0.1913 -0.0734  0.1367
  924YOPE   C2B12230  17.433   3.570   7.332 -0.0684  0.2044  0.1998
  924YOPE   D3B12231  17.000   3.424   7.441 -0.0528 -0.3878 -0.0662
  924YOPE   C4B12232  16.727   3.500   7.164 -0.2540 -0.1453 -0.2004
  925YOPE   NH312233   4.706   0.207   6.437  0.1110 -0.1717  0.0022
  925YOPE   PO412234   5.110   0.075   6.561 -0.1496  0.0088 -0.0930
  925YOPE   GL112235   5.340   0.174   6.905 -0.2968  0.1867 -0.2117
  925YOPE   GL212236   5.303  -0.158   7.000  0.1272 -0.2172 -0.2444
  925YOPE   C1A12237   5.348   0.270   7.295 -0.3090  0.1157  0.0238
  925YOPE   D2A12238   5.408   0.392   7.650  0.0918  0.0126  0.0062
  925YOPE   C3A12239   5.472   0.170   8.038 -0.0275  0.1647 -0.2039
  925YOPE   C4A12240   5.408  -0.167   8.321  0.2963 -0.2070 -0.1583
  925YOPE   C1B12241   5.627  -0.087   7.279 -0.2567 -0.0432  0.0308
  925YOPE   C2B12242   5.776   0.106   7.459  0.1490  0.0748 -0.1250
  925YOPE   D3B12243   5.917   0.313   7.856  0.1209  0.1004  0.0968
  925YOPE   C4B12244   5.764   0.469   8.267 -0.2659 -0.1711 -0.1909
  926YOPE   NH312245   3.166   9.562   5.351 -0.0022 -0.2730  0.1761
  926YOPE   PO412246   2.637   9.579   5.396 -0.2558  0.5411 -0.0124
  926YOPE   GL112247   2.874   9.555   5.880  0.2715 -0.3684  0.2232
  926YOPE   GL212248   2.936   9.768   6.066 -0.2378 -0.3070  0.0617
  926YOPE   C1A12249   2.681   9.416   6.244  0.2152 -0.0032  0.1649
  926YOPE   D2A12250   2.524   9.323   6.709  0.0686  0.1659  0.3806
  926YOPE   C3A12251   2.728   9.475   6.943 -0.1563  0.0449  0.0753
  926YOPE   C4A12252   2.481   9.557   7.315  0.0532 -0.0196 -0.1204
  926YOPE   C1B12253   2.706   9.851   6.535 -0.0801  0.0146  0.0591
  926YOPE   C2B12254   2.578  10.072   6.870  0.1830 -0.3575 -0.2589
  926YOPE   D3B12255   2.776   9.967   7.138  0.0137  0.1078  0.0482
  926YOPE   C4B12256   2.829   9.890   7.530 -0.2119 -0.1104  0.0780
  927YOPE   NH312257  13.881   4.584   6.123 -0.0702 -0.0829 -0.0760
  927YOPE   PO412258  14.148   4.965   6.150  0.0292  0.0888 -0.1857
  927YOPE   GL112259  13.896   4.953   6.474  0.0039 -0.1813 -0.1840
  927YOPE   GL212260  13.869   5.282   6.577 -0.0882  0.1017  0.0602
  927YOPE   C1A12261  13.836   4.789   6.937  0.0369 -0.3197 -0.2955
  927YOPE   D2A12262  13.959   5.011   7.334  0.0554 -0.1243  0.4277
  927YOPE   C3A12263  13.849   4.849   7.782 -0.0987 -0.1109  0.1193
  927YOPE   C4A12264  14.032   4.661   8.145  0.3149  0.1558  0.1319
  927YOPE   C1B12265  14.136   5.267   6.882 -0.1057  0.1670  0.1395
  927YOPE   C2B12266  14.492   5.275   7.212  0.0819  0.0651 -0.1640
  927YOPE   D3B12267  14.906   5.478   7.470  0.2192 -0.1612 -0.0870
  927YOPE   C4B12268  14.943   5.843   7.691 -0.0994 -0.2506  0.2238
  928YOPE   NH312269   2.344   2.421   5.760 -0.0361 -0.0414  0.0068
  928YOPE   PO412270   2.373   2.130   6.155 -0.1858 -0.0669 -0.0073
  928YOPE   GL112271   2.519   2.115   6.549  0.0222  0.1261  0.2337
  928YOPE   GL212272   2.524   2.447   6.708 -0.0192 -0.2075 -0.1951
  928YOPE   C1A12273   2.637   1.830   6.753 -0.0622  0.0328 -0.0234
  928YOPE   D2A12274   2.914   1.373   6.828 -0.0845  0.1445 -0.0947
  928YOPE   C3A12275   3.441   1.375   6.853 -0.0445 -0.0096  0.4139
  928YOPE   C4A12276   3.789   1.504   6.828 -0.1067 -0.1165  0.1157
  928YOPE   C1B12277   2.226   2.195   6.934 -0.2385  0.0491 -0.0701
  928YOPE   C2B12278   2.037   2.270   7.372  0.4218 -0.3374 -0.0345
  928YOPE   D3B12279   2.055   1.936   7.713 -0.0278 -0.1859  0.3200
  928YOPE   C4B12280   1.824   1.794   8.078  0.0575 -0.1500 -0.1054
  929YOPE   NH312281  13.861   3.034   6.189 -0.1085 -0.2095 -0.0023
  929YOPE   PO412282  13.617   3.334   6.022 -0.2731 -0.2203  0.2315
  929YOPE   GL112283  13.310   3.262   6.241  0.0916  0.1744 -0.0575
  929YOPE   GL212284  13.205   3.533   6.315 -0.0912  0.1537 -0.1271
  929YOPE   C1A12285  13.279   3.226   6.700  0.0502  0.1180 -0.3776
  929YOPE   D2A12286  13.119   3.346   7.151  0.0531  0.2270  0.0742
  929YOPE   C3A12287  12.809   3.512   7.255 -0.0847  0.0882 -0.1925
  929YOPE   C4A12288  12.356   3.455   7.383  0.1239 -0.0877 -0.0760
  929YOPE   C1B12289  12.955   3.553   6.694 -0.0754  0.1183  0.3238
  929YOPE   C2B12290  12.777   3.105   6.897 -0.3202  0.0421  0.1061
  929YOPE   D3B12291  13.034   2.856   7.027  0.0271 -0.1566 -0.1252
  929YOPE   C4B12292  13.019   2.691   7.446 -0.3519 -0.2039  0.2240
  930YOPE   NH312293   7.619   4.976   5.484  0.1236  0.0367 -0.2178
  930YOPE   PO412294   7.201   4.922   5.542  0.0330 -0.0101 -0.0747
  930YOPE   GL112295   7.316   4.615   5.725 -0.1883  0.2143 -0.0065
  930YOPE   GL212296   7.125   4.362   5.773 -0.0816 -0.1162 -0.0518
  930YOPE   C1A12297   7.620   4.415   6.088 -0.3951  0.0138 -0.2467
  930YOPE   D2A12298   7.817   4.059   6.118 -0.6006 -0.1113  0.0083
  930YOPE   C3A12299   8.143   3.901   6.530  0.1825  0.0681  0.0781
  930YOPE   C4A12300   8.591   3.847   6.750 -0.1277  0.0207 -0.1768
  930YOPE   C1B12301   7.157   4.442   6.195 -0.0732  0.1766 -0.2025
  930YOPE   C2B12302   7.394   4.525   6.563  0.3548  0.2094 -0.0673
  930YOPE   D3B12303   7.483   4.561   7.085 -0.1264 -0.2479  0.2333
  930YOPE   C4B12304   7.501   4.885   7.435  0.0726 -0.0173 -0.0892
  931YOPE   NH312305  16.647  10.120   6.207  0.1240  0.3266 -0.2210
  931YOPE   PO412306  16.225   9.887   6.031 -0.2037 -0.0473  0.2617
  931YOPE   GL112307  16.152  10.221   6.472  0.1998  0.1693 -0.1210
  931YOPE   GL212308  16.521  10.138   6.690  0.0491 -0.3160 -0.1067
  931YOPE   C1A12309  16.129  10.397   6.924 -0.1996  0.0909  0.0060
  931YOPE   D2A12310  16.376  10.561   7.376  0.2562 -0.2155  0.0485
  931YOPE   C3A12311  16.173  10.488   7.836 -0.1570 -0.0730  0.0204
  931YOPE   C4A12312  16.301  10.507   8.195  0.5650  0.2199 -0.1604
  931YOPE   C1B12313  16.504  10.120   7.229 -0.0326  0.1314 -0.1638
  931YOPE   C2B12314  16.289  10.023   7.635 -0.1755 -0.1776  0.3048
  931YOPE   D3B12315  16.423   9.970   8.118  0.0844 -0.1894  0.3268
  931YOPE   C4B12316  16.730   9.840   8.278  0.2449  0.1843  0.3436
  932YOPE   NH312317   5.942   5.055   5.088  0.0522 -0.3676 -0.2891
  932YOPE   PO412318   5.774   4.948   5.469  0.1072  0.1535 -0.1550
  932YOPE   GL112319   5.840   4.991   5.980  0.2351  0.0010 -0.0885
  932YOPE   GL212320   5.964   4.646   6.184  0.1465  0.1913  0.0292
  932YOPE   C1A12321   5.668   4.978   6.364 -0.2563  0.1526 -0.0470
  932YOPE   D2A12322   5.705   5.186   6.711  0.2085 -0.2432  0.2568
  932YOPE   C3A12323   5.700   4.921   6.993 -0.2306 -0.1841 -0.2662
  932YOPE   C4A12324   5.740   4.607   6.802 -0.0532 -0.1800  0.0418
  932YOPE   C1B12325   6.224   4.440   6.480 -0.2584  0.2427 -0.1037
  932YOPE   C2B12326   6.523   4.347   6.816  0.1076 -0.0121  0.0927
  932YOPE   D3B12327   6.749   4.128   7.155 -0.1993 -0.2674 -0.1256
  932YOPE   C4B12328   6.953   4.189   7.447 -0.1613  0.0309 -0.2150
  933YOPE   NH312329   5.330   7.781   6.156 -0.0666  0.0401 -0.2612
  933YOPE   PO412330   5.101   7.699   5.823  0.0244 -0.2992 -0.0909
  933YOPE   GL112331   4.822   7.758   6.136  0.0755  0.1512  0.0440
  933YOPE   GL212332   4.910   7.486   6.304  0.0022 -0.1777  0.1445
  933YOPE   C1A12333   4.379   7.486   6.230 -0.0781 -0.0035 -0.1136
  933YOPE   D2A12334   3.996   7.315   6.551  0.0943 -0.3027 -0.0188
  933YOPE   C3A12335   3.737   7.620   6.644 -0.1798  0.2618  0.1806
  933YOPE   C4A12336   3.483   7.841   6.677 -0.2176  0.2084 -0.0032
  933YOPE   C1B12337   4.950   7.572   6.709  0.2246 -0.2218 -0.1252
  933YOPE   C2B12338   4.831   7.673   7.085  0.0490  0.2109  0.2028
  933YOPE   D3B12339   4.806   7.593   7.559  0.1800 -0.0345 -0.0928
  933YOPE   C4B12340   4.902   7.753   7.986  0.0304  0.1269  0.1069
  934YOPE   NH312341  12.420   0.810   5.824 -0.1285 -0.0594 -0.2160
  934YOPE   PO412342  12.248   0.994   5.592 -0.2298  0.0334  0.3390
  934YOPE   GL112343  11.901   1.134   5.918 -0.1902 -0.5547  0.0037
  934YOPE   GL212344  11.987   0.920   6.197  0.0904 -0.1513 -0.0574
  934YOPE   C1A12345  11.565   1.209   6.150 -0.0084  0.0766  0.0448
  934YOPE   D2A12346  11.186   1.240   6.177 -0.2630 -0.0808 -0.1772
  934YOPE   C3A12347  10.958   1.623   6.411 -0.2950 -0.1774  0.1178
  934YOPE   C4A12348  10.736   2.015   6.596 -0.1720 -0.1900 -0.2261
  934YOPE   C1B12349  12.099   0.967   6.549  0.0314 -0.0866  0.0236
  934YOPE   C2B12350  12.162   0.952   6.998  0.0419  0.1978  0.0006
  934YOPE   D3B12351  12.229   0.960   7.473  0.0307  0.4216  0.1869
  934YOPE   C4B12352  12.359   0.919   7.968  0.0774  0.2126 -0.0866
  935YOPE   NH312353   3.657   7.320   6.006 -0.0403  0.1436  0.1894
  935YOPE   PO412354   3.274   7.304   5.874 -0.0296  0.1584  0.1031
  935YOPE   GL112355   3.227   7.243   6.258  0.1386  0.1025 -0.2221
  935YOPE   GL212356   3.282   7.393   6.653  0.2609  0.0090  0.0345
  935YOPE   C1A12357   3.195   6.960   6.500 -0.2223  0.0650 -0.0720
  935YOPE   D2A12358   3.083   6.900   6.929  0.1937 -0.1005  0.0184
  935YOPE   C3A12359   3.106   7.113   7.357 -0.0889  0.2738 -0.1716
  935YOPE   C4A12360   3.219   6.933   7.848 -0.0192  0.3524 -0.0421
  935YOPE   C1B12361   3.305   7.515   7.028  0.1299  0.1072 -0.1685
  935YOPE   C2B12362   3.360   7.540   7.486 -0.5847 -0.1437  0.2906
  935YOPE   D3B12363   3.236   7.734   7.882 -0.1327  0.2119 -0.1467
  935YOPE   C4B12364   2.964   7.658   8.275 -0.1162  0.2220 -0.2291
  936YOPE   NH312365  12.713  11.193   5.946 -0.4285 -0.2294 -0.0572
  936YOPE   PO412366  12.898  11.472   6.300  0.0152 -0.2220 -0.0533
  936YOPE   GL112367  12.791  11.666   6.721  0.0234  0.1552 -0.2139
  936YOPE   GL212368  12.560  11.837   6.677 -0.1706  0.0865 -0.0806
  936YOPE   C1A12369  12.699  11.444   7.014 -0.0641 -0.1300  0.1223
  936YOPE   D2A12370  12.608  11.543   7.262 -0.0207  0.1095 -0.0943
  936YOPE   C3A12371  12.793  11.649   7.648  0.0053 -0.0966 -0.1676
  936YOPE   C4A12372  12.988  12.074   7.844 -0.3130  0.1477  0.0799
  936YOPE   C1B12373  12.709  12.015   7.083  0.2468  0.2733  0.2838
  936YOPE   C2B12374  12.663  12.068   7.407  0.0416  0.2086 -0.1871
  936YOPE   D3B12375  12.466  12.067   7.797 -0.0561 -0.2465 -0.0990
  936YOPE   C4B12376  12.189  12.184   8.217  0.1128 -0.1390 -0.1517
  937YOPE   NH312377   9.711  14.838   6.205 -0.0095 -0.1095 -0.1396
  937YOPE   PO412378   9.295  14.689   6.140  0.0908 -0.1014  0.1121
  937YOPE   GL112379   9.303  14.532   6.544  0.2502  0.0059  0.3775
  937YOPE   GL212380   9.619  14.438   6.659  0.2321  0.2238 -0.0655
  937YOPE   C1A12381   9.346  14.734   7.014 -0.1126  0.0037  0.3458
  937YOPE   D2A12382   9.303  14.931   7.435 -0.2759  0.0414  0.2444
  937YOPE   C3A12383   9.502  15.041   7.824 -0.2906  0.0158 -0.2107
  937YOPE   C4A12384   9.713  14.958   8.320 -0.0389 -0.3479 -0.1935
  937YOPE   C1B12385   9.798  14.336   7.075 -0.0905  0.1924  0.1255
  937YOPE   C2B12386   9.869  14.135   7.403  0.2556  0.1163 -0.2334
  937YOPE   D3B12387  10.110  14.269   7.757 -0.1716  0.1100 -0.1028
  937YOPE   C4B12388  10.481  14.279   8.011 -0.3759 -0.1243 -0.0070
  938YOPE   NH312389   6.505   5.679   5.641 -0.2746  0.1283  0.0128
  938YOPE   PO412390   6.132   5.689   5.962  0.2926 -0.1095  0.3240
  938YOPE   GL112391   6.174   5.802   6.368 -0.4132  0.3309  0.5857
  938YOPE   GL212392   6.064   6.108   6.477 -0.1532  0.1788  0.0693
  938YOPE   C1A12393   5.965   5.648   6.768 -0.0611 -0.0448 -0.2109
  938YOPE   D2A12394   6.004   5.400   7.121 -0.0339  0.0123 -0.1707
  938YOPE   C3A12395   6.321   5.316   7.301  0.1393  0.1053 -0.0175
  938YOPE   C4A12396   6.616   5.485   7.476  0.2140  0.0899 -0.1471
  938YOPE   C1B12397   6.016   6.109   6.941  0.2675 -0.2914 -0.1824
  938YOPE   C2B12398   5.833   5.948   7.340  0.0843  0.0425  0.2729
  938YOPE   D3B12399   5.582   6.090   7.667  0.2152 -0.3524  0.1227
  938YOPE   C4B12400   5.197   6.490   7.640 -0.3409  0.0645 -0.0285
  939YOPE   NH312401  14.957  18.092   5.664  0.0319 -0.0875  0.1666
  939YOPE   PO412402  14.557  17.841   5.606  0.3482 -0.3100  0.1036
  939YOPE   GL112403  14.448  17.838   6.048  0.1781  0.0468  0.2594
  939YOPE   GL212404  14.183  17.665   6.184  0.0898 -0.0933  0.6431
  939YOPE   C1A12405  14.378  18.071   6.424  0.0090 -0.3403  0.0829
  939YOPE   D2A12406  14.416  18.003   6.866 -0.2539  0.0530  0.2802
  939YOPE   C3A12407  14.619  18.233   7.181  0.2161  0.0133 -0.4993
  939YOPE   C4A12408  14.475  18.424   7.631 -0.1655 -0.1334  0.0959
  939YOPE   C1B12409  14.273  17.502   6.611 -0.4133 -0.2056 -0.0061
  939YOPE   C2B12410  14.574  17.513   6.946  0.0356  0.1268  0.1551
  939YOPE   D3B12411  14.551  17.654   7.308 -0.3827  0.1494 -0.4106
  939YOPE   C4B12412  14.719  17.995   7.662 -0.0866 -0.1015 -0.0637
  940YOPE   NH312413  16.137  13.810   6.190  0.0120  0.1745  0.2329
  940YOPE   PO412414  15.859  13.551   6.137  0.0143  0.0422  0.1452
  940YOPE   GL112415  15.778  13.799   6.517  0.1050  0.2127 -0.2260
  940YOPE   GL212416  15.821  14.103   6.469 -0.1788 -0.0963 -0.1109
  940YOPE   C1A12417  15.803  13.809   6.967 -0.1159  0.0360  0.0312
  940YOPE   D2A12418  15.895  13.939   7.288  0.0635 -0.1970 -0.1032
  940YOPE   C3A12419  15.712  13.978   7.680  0.3543 -0.0983 -0.0611
  940YOPE   C4A12420  15.682  14.218   8.017  0.0751  0.0488  0.0057
  940YOPE   C1B12421  15.522  14.178   6.788  0.0430  0.2296  0.1322
  940YOPE   C2B12422  15.370  14.014   7.216  0.0696  0.2944  0.2006
  940YOPE   D3B12423  15.259  14.019   7.683  0.1131  0.0818  0.0192
  940YOPE   C4B12424  14.921  14.026   8.094 -0.2319 -0.2180 -0.0521
  941YOPE   NH312425   5.858  17.439   6.435 -0.1067 -0.0886 -0.2569
  941YOPE   PO412426   6.208  17.390   6.557  0.4071  0.0399 -0.1723
  941YOPE   GL112427   6.383  17.512   6.959 -0.1383 -0.2221  0.1595
  941YOPE   GL212428   6.715  17.571   6.898  0.1287 -0.2713 -0.3824
  941YOPE   C1A12429   6.452  17.362   7.485  0.1190  0.2098 -0.1758
  941YOPE   D2A12430   6.463  17.563   7.882  0.0955  0.0634  0.1385
  941YOPE   C3A12431   6.580  17.297   8.281  0.1928  0.1182 -0.2745
  941YOPE   C4A12432   6.543  17.324   8.732 -0.0501 -0.3862  0.0180
  941YOPE   C1B12433   6.904  17.321   7.280 -0.0766 -0.1172  0.2783
  941YOPE   C2B12434   6.917  17.333   7.773  0.0610 -0.4504 -0.0407
  941YOPE   D3B12435   7.148  17.269   8.157 -0.0946 -0.0842  0.0066
  941YOPE   C4B12436   7.194  17.298   8.615  0.0885 -0.1352 -0.0537
  942POPC   NC312437  17.062   9.439   6.301  0.0467  0.0052  0.2967
  942POPC   PO412438  17.017   9.772   6.100 -0.1796 -0.2784 -0.0323
  942POPC   GL112439  17.010   9.955   6.535  0.1863  0.0568 -0.1632
  942POPC   GL212440  16.835   9.677   6.692  0.2045 -0.0873 -0.2625
  942POPC   C1A12441  17.015   9.970   7.008 -0.4626 -0.1616  0.2633
  942POPC   D2A12442  16.883   9.812   7.391 -0.0345 -0.1276  0.1428
  942POPC   C3A12443  16.979   9.879   7.814  0.1941 -0.0905 -0.2924
  942POPC   C4A12444  17.196  10.047   8.121  0.0687 -0.0046  0.1200
  942POPC   C1B12445  16.628   9.656   6.958 -0.2379 -0.2940 -0.2341
  942POPC   C2B12446  16.432   9.659   7.335  0.1683  0.0346  0.0759
  942POPC   C3B12447  16.538   9.511   7.721  0.1723 -0.6110 -0.3028
  942POPC   C4B12448  16.881   9.453   7.986  0.2495 -0.1287 -0.2799
  943POPC   NC312449  11.058  13.515   6.315  0.3363 -0.1251 -0.1783
  943POPC   PO412450  10.923  13.950   6.276 -0.0662 -0.0698  0.5189
  943POPC   GL112451  10.824  13.818   6.686 -0.0233 -0.2189 -0.2016
  943POPC   GL212452  10.904  13.454   6.758  0.4578 -0.2526 -0.0288
  943POPC   C1A12453  10.946  13.939   7.182  0.0963 -0.2006  0.1234
  943POPC   D2A12454  11.162  13.763   7.485 -0.2217  0.0656 -0.2371
  943POPC   C3A12455  11.300  13.835   7.914  0.0210  0.1989 -0.1377
  943POPC   C4A12456  11.601  13.747   8.386 -0.0408 -0.0810 -0.1300
  943POPC   C1B12457  10.757  13.392   7.103 -0.0730 -0.1807 -0.2411
  943POPC   C2B12458  10.682  13.459   7.476  0.1743 -0.1537 -0.1168
  943POPC   C3B12459  10.604  13.653   7.838  0.1102 -0.3045 -0.0454
  943POPC   C4B12460  10.843  13.933   7.918  0.2221 -0.0443 -0.2634
  944POPC   NC312461   2.402   3.224   5.721  0.0882  0.1780 -0.0913
  944POPC   PO412462   2.362   3.647   5.961 -0.0380  0.0399  0.1600
  944POPC   GL112463   2.131   3.777   6.274 -0.3058 -0.2227  0.5279
  944POPC   GL212464   1.901   3.581   6.386  0.4640  0.2655 -0.3993
  944POPC   C1A12465   2.101   3.874   6.699  0.0113  0.0161  0.2144
  944POPC   D2A12466   2.185   3.910   7.186  0.1568 -0.1369 -0.1566
  944POPC   C3A12467   1.919   3.820   7.569 -0.4647 -0.0477 -0.2802
  944POPC   C4A12468   1.947   3.876   7.943  0.0580  0.2559  0.2499
  944POPC   C1B12469   1.647   3.752   6.711  0.1397 -0.0719 -0.0477
  944POPC   C2B12470   1.663   3.628   7.147  0.0850  0.0190  0.0649
  944POPC   C3B12471   1.614   3.432   7.559  0.2033 -0.0168  0.0482
  944POPC   C4B12472   1.763   3.272   7.952  0.0788  0.1319 -0.0388
  945POPC   NC312473   2.643   4.060   5.766 -0.1298  0.2226  0.2547
  945POPC   PO412474   2.906   4.424   5.909 -0.1564  0.0310 -0.0205
  945POPC   GL112475   3.016   4.398   6.263  0.0256  0.0130 -0.3082
  945POPC   GL212476   2.750   4.640   6.405 -0.2112 -0.2524  0.3114
  945POPC   C1A12477   3.269   4.298   6.629  0.3137  0.2915  0.1683
  945POPC   D2A12478   3.267   4.256   6.983 -0.2027  0.0200  0.0730
  945POPC   C3A12479   2.986   4.625   7.297  0.0805  0.2930  0.2626
  945POPC   C4A12480   2.713   4.794   7.547  0.2903  0.1375  0.0401
  945POPC   C1B12481   3.055   4.727   6.605  0.0047  0.0703  0.1412
  945POPC   C2B12482   3.336   4.728   6.917 -0.2953 -0.0550  0.2615
  945POPC   C3B12483   3.712   4.658   7.179 -0.2130 -0.1904 -0.2953
  945POPC   C4B12484   3.911   4.359   7.444  0.0150  0.1579 -0.1435
  946POPC   NC312485   6.543   1.192   6.154 -0.0322 -0.0564  0.3865
  946POPC   PO412486   6.459   1.123   6.609  0.1548  0.0202 -0.0685
  946POPC   GL112487   6.608   1.408   6.928 -0.3533  0.1124  0.1500
  946POPC   GL212488   6.658   1.203   7.123 -0.0516 -0.1995 -0.0374
  946POPC   C1A12489   6.648   1.674   7.355 -0.3514  0.2679 -0.3685
  946POPC   D2A12490   6.713   1.808   7.721  0.0512  0.2799 -0.3352
  946POPC   C3A12491   6.714   1.587   8.084 -0.1098 -0.1314 -0.0910
  946POPC   C4A12492   6.714   1.353   8.409 -0.1688  0.1420  0.0187
  946POPC   C1B12493   6.349   1.232   7.400  0.3373  0.0483  0.0760
  946POPC   C2B12494   6.240   1.343   7.790  0.3676 -0.3315 -0.4252
  946POPC   C3B12495   6.128   1.336   8.207 -0.0235 -0.1545 -0.3789
  946POPC   C4B12496   5.755   1.387   8.474  0.0452  0.0951 -0.0112
  947POPC   NC312497   9.444   3.980   5.474 -0.2379  0.0602 -0.1479
  947POPC   PO412498   9.644   3.687   5.669 -0.1239  0.4522 -0.4789
  947POPC   GL112499   9.640   3.959   6.030 -0.0120 -0.4326 -0.0563
  947POPC   GL212500   9.320   4.129   5.940 -0.1097  0.1009  0.1328
  947POPC   C1A12501   9.647   4.470   6.284  0.1429  0.1047  0.2270
  947POPC   D2A12502   9.286   4.643   6.489 -0.1907 -0.2389 -0.3655
  947POPC   C3A12503   9.037   5.020   6.359 -0.0345 -0.0884 -0.0694
  947POPC   C4A12504   8.736   5.181   6.683 -0.1637 -0.3190 -0.1042
  947POPC   C1B12505   9.209   4.158   6.338 -0.0741 -0.0358  0.0884
  947POPC   C2B12506   9.148   4.135   6.728  0.0550  0.3872  0.1519
  947POPC   C3B12507   8.822   4.258   7.023  0.1493  0.1174  0.1437
  947POPC   C4B12508   8.843   4.598   7.334 -0.3256  0.0045 -0.2109
  948POPC   NC312509  11.779  11.724   5.864  0.1273 -0.1975 -0.0282
  948POPC   PO412510  11.810  12.017   6.062  0.1997  0.2051  0.1334
  948POPC   GL112511  11.861  11.998   6.513  0.0075  0.2828  0.1835
  948POPC   GL212512  12.113  12.112   6.723 -0.1793  0.0005 -0.1092
  948POPC   C1A12513  11.841  12.060   7.055  0.2461 -0.0437 -0.1043
  948POPC   D2A12514  11.692  11.818   7.482 -0.1577 -0.2110  0.2162
  948POPC   C3A12515  11.613  11.990   7.932 -0.3351  0.0020 -0.0755
  948POPC   C4A12516  11.662  12.004   8.439 -0.0655 -0.1113  0.1959
  948POPC   C1B12517  12.279  12.274   7.098 -0.3134 -0.1985 -0.1651
  948POPC   C2B12518  12.410  12.579   7.505  0.0646 -0.1570 -0.0242
  948POPC   C3B12519  12.264  12.734   7.855  0.2230 -0.1772 -0.2396
  948POPC   C4B12520  12.211  12.751   8.320 -0.0933  0.0407 -0.0973
  949POPC   NC312521   9.688  11.086   5.690 -0.0471  0.0115  0.3423
  949POPC   PO412522   9.988  10.856   5.894  0.1265  0.0930 -0.1460
  949POPC   GL112523   9.951  11.025   6.263  0.1088  0.2160 -0.2027
  949POPC   GL212524  10.208  10.985   6.367 -0.1207 -0.0020 -0.1446
  949POPC   C1A12525   9.615  10.929   6.559  0.1301 -0.0147  0.0086
  949POPC   D2A12526   9.504  11.149   6.935  0.1068  0.0460  0.1047
  949POPC   C3A12527   9.139  11.068   7.302 -0.0945  0.2476 -0.1382
  949POPC   C4A12528   8.737  10.863   7.485 -0.1250 -0.2303  0.1997
  949POPC   C1B12529  10.073  10.948   6.804  0.1392  0.1286  0.1449
  949POPC   C2B12530   9.947  11.059   7.152  0.1325 -0.4384 -0.2185
  949POPC   C3B12531   9.810  11.001   7.581  0.0590 -0.3533 -0.1179
  949POPC   C4B12532  10.075  11.196   7.979 -0.0090  0.0795  0.2067
  950POPC   NC312533  12.486   4.287   5.567 -0.0044 -0.2356 -0.2278
  950POPC   PO412534  12.347   3.783   5.716  0.4481 -0.1841  0.1808
  950POPC   GL112535  12.327   3.760   6.174  0.3688 -0.0048 -0.0605
  950POPC   GL212536  12.606   3.671   6.365 -0.0124  0.1311  0.0749
  950POPC   C1A12537  12.282   3.919   6.608  0.1311 -0.0224  0.0573
  950POPC   D2A12538  12.108   4.135   7.104 -0.2489  0.2946  0.0874
  950POPC   C3A12539  11.905   3.930   7.464  0.0051  0.0572  0.0466
  950POPC   C4A12540  12.206   3.815   7.728  0.1055 -0.1963 -0.0350
  950POPC   C1B12541  12.416   3.433   6.787  0.0914 -0.2692 -0.0993
  950POPC   C2B12542  12.115   3.647   7.002 -0.1047 -0.2856 -0.1098
  950POPC   C3B12543  11.816   3.448   7.406 -0.1911  0.2179  0.0705
  950POPC   C4B12544  11.410   3.557   7.486 -0.2648 -0.0693  0.1103
  951POPC   NC312545  11.034  12.402   5.888 -0.0712 -0.0691 -0.1955
  951POPC   PO412546  10.654  12.591   5.938  0.3831 -0.0884  0.3455
  951POPC   GL112547  10.855  12.668   6.373  0.1154 -0.1190  0.3011
  951POPC   GL212548  11.015  13.021   6.467 -0.2300  0.0403  0.0038
  951POPC   C1A12549  10.921  12.312   6.712  0.1954 -0.1409  0.0126
  951POPC   D2A12550  11.117  12.158   7.052 -0.0183 -0.2788  0.2660
  951POPC   C3A12551  11.439  12.173   7.266  0.3694  0.2300 -0.0641
  951POPC   C4A12552  11.534  12.441   7.674  0.3333 -0.2555 -0.3213
  951POPC   C1B12553  11.126  13.087   6.947 -0.2886 -0.0435  0.2679
  951POPC   C2B12554  10.932  13.006   7.411 -0.0002  0.2839 -0.1853
  951POPC   C3B12555  10.641  12.949   7.691  0.1878 -0.4103  0.1577
  951POPC   C4B12556  10.299  12.835   7.941  0.0559  0.1965 -0.2208
  952POPC   NC312557  11.668  16.397   5.672  0.3390  0.0708 -0.0640
  952POPC   PO412558  11.466  16.630   6.106 -0.1887 -0.0102 -0.0153
  952POPC   GL112559  11.650  16.764   6.483 -0.1384 -0.2801 -0.1659
  952POPC   GL212560  11.992  16.871   6.386 -0.0001  0.2824  0.5708
  952POPC   C1A12561  11.596  16.760   6.847 -0.0374  0.0023  0.0966
  952POPC   D2A12562  11.729  16.677   7.253  0.1446 -0.3820 -0.0392
  952POPC   C3A12563  11.616  16.761   7.682  0.1438 -0.1739 -0.7242
  952POPC   C4A12564  11.496  16.776   8.137  0.0527  0.0440  0.0964
  952POPC   C1B12565  12.093  16.687   6.817 -0.1122  0.1058  0.0110
  952POPC   C2B12566  12.147  16.460   7.303 -0.1535  0.1329 -0.0925
  952POPC   C3B12567  11.917  16.293   7.749 -0.1970 -0.0830  0.0711
  952POPC   C4B12568  11.816  16.379   8.143 -0.0574 -0.1079  0.1961
  953POPC   NC312569  16.608  12.917   5.973  0.2076 -0.0872 -0.1316
  953POPC   PO412570  16.546  12.549   6.073 -0.0222 -0.0201  0.0850
  953POPC   GL112571  16.422  12.730   6.390  0.2222  0.2024 -0.0947
  953POPC   GL212572  16.157  12.965   6.618  0.0188 -0.1241 -0.1716
  953POPC   C1A12573  16.443  12.600   6.849  0.0892 -0.0971 -0.0011
  953POPC   D2A12574  16.200  12.553   7.264  0.0058  0.0674  0.0704
  953POPC   C3A12575  16.339  12.323   7.605  0.3050  0.3517  0.4111
  953POPC   C4A12576  16.543  11.852   7.660  0.1407  0.4290 -0.3978
  953POPC   C1B12577  16.203  13.030   6.990  0.1617 -0.0848 -0.0218
  953POPC   C2B12578  16.296  13.178   7.389 -0.0168 -0.4024  0.0297
  953POPC   C3B12579  16.497  13.147   7.721  0.1275 -0.1396  0.1831
  953POPC   C4B12580  16.799  13.231   8.076  0.1303 -0.0312 -0.0715
  954POPC   NC312581  15.442  14.767   5.592 -0.0675 -0.0259 -0.2712
  954POPC   PO412582  15.485  15.189   5.727  0.0210 -0.0706 -0.2355
  954POPC   GL112583  15.731  14.961   6.091 -0.0329 -0.1061 -0.0255
  954POPC   GL212584  15.881  15.134   6.077 -0.1375  0.0419 -0.1121
  954POPC   C1A12585  15.760  14.919   6.484 -0.0626 -0.0344 -0.1224
  954POPC   D2A12586  15.667  14.860   6.871  0.3690  0.1411 -0.0324
  954POPC   C3A12587  15.928  15.244   7.140 -0.1038  0.2435 -0.1573
  954POPC   C4A12588  15.990  15.286   7.626 -0.0307 -0.3268 -0.1975
  954POPC   C1B12589  16.058  15.391   6.439  0.0702  0.0224 -0.0648
  954POPC   C2B12590  16.273  15.530   6.844 -0.0025  0.1936  0.2123
  954POPC   C3B12591  16.492  15.737   7.186 -0.1716  0.1139 -0.1418
  954POPC   C4B12592  16.293  15.709   7.561  0.1960  0.0158  0.0556
  955POPC   NC312593  10.581   5.913   5.325  0.2408  0.0762  0.0981
  955POPC   PO412594  10.246   6.167   5.509  0.2936 -0.2484  0.2571
  955POPC   GL112595  10.341   5.911   5.870  0.0140 -0.0578 -0.2793
  955POPC   GL212596  10.616   5.902   6.043  0.1424  0.0594  0.0281
  955POPC   C1A12597  10.079   5.845   6.226  0.2298 -0.3012  0.2017
  955POPC   D2A12598  10.032   5.710   6.651 -0.1040 -0.0813 -0.1709
  955POPC   C3A12599   9.845   6.068   6.943  0.1977  0.1384 -0.2708
  955POPC   C4A12600   9.725   6.419   7.185 -0.1652  0.2410 -0.1912
  955POPC   C1B12601  10.560   5.834   6.515  0.0747  0.2411  0.3679
  955POPC   C2B12602  10.471   5.736   6.961  0.3397  0.1510  0.0201
  955POPC   C3B12603  10.557   5.745   7.392  0.3631  0.1892 -0.2269
  955POPC   C4B12604  10.313   6.013   7.744 -0.0716  0.0774  0.0679
  956POPC   NC312605   9.873   1.390   5.790 -0.1484  0.0459 -0.0494
  956POPC   PO412606   9.715   1.829   5.994  0.0454 -0.2508  0.4763
  956POPC   GL112607   9.994   1.850   6.284 -0.3752  0.0975  0.0040
  956POPC   GL212608  10.123   2.148   6.292  0.0391 -0.2199  0.0211
  956POPC   C1A12609   9.788   1.826   6.685 -0.0571 -0.1158  0.0898
  956POPC   D2A12610   9.546   1.632   7.004 -0.4288  0.1684 -0.2241
  956POPC   C3A12611   9.557   1.827   7.299  0.0439 -0.1891 -0.0168
  956POPC   C4A12612   9.468   2.161   7.627 -0.0387 -0.1901  0.0521
  956POPC   C1B12613  10.148   2.142   6.685 -0.3408  0.2503 -0.2317
  956POPC   C2B12614  10.453   2.100   7.027 -0.0181 -0.2377 -0.1953
  956POPC   C3B12615  10.384   2.359   7.374  0.0838 -0.1766 -0.4121
  956POPC   C4B12616  10.484   2.554   7.855  0.2271 -0.2976 -0.0643
  957POPC   NC312617   8.611   5.647   5.170 -0.0896  0.1796 -0.0009
  957POPC   PO412618   8.442   6.015   5.436  0.2501 -0.1689 -0.2707
  957POPC   GL112619   8.282   6.059   5.797  0.0277  0.2266  0.1378
  957POPC   GL212620   8.371   5.836   6.086 -0.1186 -0.0691  0.2903
  957POPC   C1A12621   8.336   6.399   6.101 -0.1704 -0.2207 -0.1819
  957POPC   D2A12622   8.338   6.771   6.269  0.3059 -0.4070  0.2531
  957POPC   C3A12623   8.391   6.935   6.636  0.0024  0.0750  0.2131
  957POPC   C4A12624   8.494   7.225   6.896 -0.1388  0.0634 -0.0539
  957POPC   C1B12625   8.428   6.031   6.448  0.0437 -0.0686  0.1146
  957POPC   C2B12626   8.491   6.059   6.848 -0.0924 -0.2652 -0.1504
  957POPC   C3B12627   8.801   6.119   7.164  0.0625 -0.2633 -0.1317
  957POPC   C4B12628   9.281   6.122   7.261  0.2254 -0.4139 -0.0432
  958POPC   NC312629   6.192  12.467   4.938 -0.0825 -0.2105 -0.0329
  958POPC   PO412630   6.195  12.579   5.362  0.0043 -0.3216 -0.0334
  958POPC   GL112631   6.014  12.519   5.780  0.1467 -0.1476  0.1086
  958POPC   GL212632   6.130  12.443   6.059 -0.0179 -0.0114  0.2031
  958POPC   C1A12633   5.945  12.882   6.156 -0.1421  0.1262 -0.4857
  958POPC   D2A12634   5.966  12.865   6.736  0.2585 -0.1677  0.1079
  958POPC   C3A12635   5.653  12.637   6.943  0.2593  0.1647  0.0176
  958POPC   C4A12636   5.510  12.254   6.778 -0.1774 -0.2443  0.3189
  958POPC   C1B12637   6.316  12.563   6.529 -0.0152  0.1297  0.2022
  958POPC   C2B12638   6.420  12.501   6.957 -0.3524  0.1540  0.3518
  958POPC   C3B12639   6.361  12.611   7.361 -0.2652 -0.0659 -0.3932
  958POPC   C4B12640   6.336  13.038   7.603 -0.1932 -0.3075 -0.1096
  959POPC   NC312641  15.758  16.967   5.777  0.0047 -0.1481 -0.1134
  959POPC   PO412642  15.791  16.510   5.813 -0.4952 -0.1167  0.1368
  959POPC   GL112643  15.764  16.634   6.208  0.1977 -0.0063 -0.2353
  959POPC   GL212644  15.989  16.809   6.265  0.1598 -0.0065 -0.0843
  959POPC   C1A12645  15.558  16.496   6.612 -0.1125 -0.2324 -0.0209
  959POPC   D2A12646  15.319  16.227   6.873 -0.1148 -0.2141  0.1211
  959POPC   C3A12647  15.454  16.071   7.227  0.1451  0.0977  0.1684
  959POPC   C4A12648  15.591  15.985   7.621  0.0763  0.1276 -0.0183
  959POPC   C1B12649  16.141  17.121   6.523 -0.0439 -0.0454  0.0240
  959POPC   C2B12650  16.573  17.023   6.724 -0.1439  0.1508  0.0294
  959POPC   C3B12651  16.645  16.814   7.046 -0.3040  0.0400 -0.2232
  959POPC   C4B12652  16.448  16.826   7.522  0.2740 -0.0477  0.1585
  960POPC   NC312653   1.024   6.419   5.921  0.0834  0.2095  0.2034
  960POPC   PO412654   0.753   6.752   6.114  0.2562  0.0123 -0.1601
  960POPC   GL112655   0.738   6.413   6.369  0.0438  0.0109  0.1283
  960POPC   GL212656   0.406   6.390   6.322  0.0868 -0.1861 -0.0288
  960POPC   C1A12657   0.952   6.277   6.707  0.1318 -0.1961 -0.0054
  960POPC   D2A12658   1.090   6.209   7.108 -0.1433 -0.2674  0.1383
  960POPC   C3A12659   1.040   6.493   7.409 -0.1890  0.2312 -0.0964
  960POPC   C4A12660   1.202   6.907   7.467 -0.1755 -0.2159  0.0652
  960POPC   C1B12661   0.508   6.048   6.659  0.0223 -0.0629 -0.0532
  960POPC   C2B12662   0.730   5.759   6.989  0.2181 -0.1917 -0.0235
  960POPC   C3B12663   1.059   5.668   7.246 -0.1850  0.2363 -0.2604
  960POPC   C4B12664   1.169   5.530   7.630 -0.2652  0.0425 -0.0514
  961POPC   NC312665   8.418   7.677   5.362  0.1896 -0.2619 -0.1852
  961POPC   PO412666   8.248   7.720   5.810 -0.0572 -0.4070 -0.4662
  961POPC   GL112667   8.121   7.895   6.165  0.2841 -0.1478  0.2353
  961POPC   GL212668   8.329   7.866   6.362 -0.1450  0.2892 -0.1039
  961POPC   C1A12669   7.826   7.702   6.473  0.0930 -0.2320  0.3286
  961POPC   D2A12670   7.430   7.862   6.549 -0.0492  0.1135 -0.0729
  961POPC   C3A12671   7.227   7.762   6.864 -0.1146 -0.1411  0.1190
  961POPC   C4A12672   6.944   7.536   7.110 -0.2285 -0.0681 -0.0244
  961POPC   C1B12673   8.472   8.143   6.633 -0.3662  0.0328 -0.0849
  961POPC   C2B12674   8.632   8.291   7.037 -0.0188  0.1917  0.0499
  961POPC   C3B12675   8.939   8.458   7.401 -0.0752 -0.2811 -0.3421
  961POPC   C4B12676   9.382   8.352   7.453  0.0635 -0.0653  0.2582
  962POPC   NC312677   8.354   9.794   5.721 -0.0552 -0.1066 -0.0235
  962POPC   PO412678   8.507   9.434   5.692  0.2991 -0.0928 -0.1173
  962POPC   GL112679   8.398   9.191   6.040 -0.1291 -0.3096 -0.3546
  962POPC   GL212680   8.096   9.023   6.093  0.1308  0.2507  0.0974
  962POPC   C1A12681   8.406   9.151   6.500  0.2855  0.0324  0.4084
  962POPC   D2A12682   8.409   9.312   6.987  0.2135  0.0783  0.0444
  962POPC   C3A12683   8.365   9.136   7.426  0.0024 -0.0601  0.1238
  962POPC   C4A12684   8.290   9.214   7.829  0.2744  0.2014  0.0305
  962POPC   C1B12685   7.906   9.236   6.489  0.1004  0.0724 -0.0256
  962POPC   C2B12686   7.560   9.148   6.816 -0.0298 -0.4933  0.1626
  962POPC   C3B12687   7.522   8.937   7.116  0.3587  0.1577  0.1177
  962POPC   C4B12688   7.576   8.484   7.286 -0.0395 -0.3894 -0.2808
  963POPC   NC312689  13.453  15.900   5.358 -0.4421 -0.2764 -0.2357
  963POPC   PO412690  13.400  15.960   5.808 -0.0959 -0.1703  0.2356
  963POPC   GL112691  13.330  16.081   6.280 -0.1420  0.1370  0.2772
  963POPC   GL212692  13.555  16.332   6.468 -0.0802 -0.0014  0.1558
  963POPC   C1A12693  13.104  16.008   6.677 -0.1449  0.2362 -0.1002
  963POPC   D2A12694  13.104  15.951   7.071 -0.2116 -0.1199 -0.1726
  963POPC   C3A12695  13.066  15.558   7.263 -0.1196  0.1330 -0.1022
  963POPC   C4A12696  13.187  15.429   7.674 -0.0366  0.0288 -0.0756
  963POPC   C1B12697  13.272  16.492   6.702  0.0312  0.3161 -0.2602
  963POPC   C2B12698  13.347  16.513   7.188  0.0012 -0.0792 -0.2810
  963POPC   C3B12699  13.241  16.475   7.627  0.3534  0.1134  0.0089
  963POPC   C4B12700  13.286  16.502   8.040  0.1191 -0.0133 -0.0835
  964POPC   NC312701   0.207   6.051   5.979  0.1876 -0.0923  0.2314
  964POPC   PO412702   0.642   6.034   5.998 -0.2341  0.0268  0.1885
  964POPC   GL112703   0.992   5.992   6.222  0.1932  0.2707 -0.1133
  964POPC   GL212704   1.239   5.689   6.266 -0.0747  0.2227 -0.0409
  964POPC   C1A12705   1.370   6.171   6.489 -0.2825 -0.0043  0.1907
  964POPC   D2A12706   1.772   6.024   6.707 -0.0449 -0.1194 -0.1308
  964POPC   C3A12707   2.066   6.187   7.025  0.2415  0.2907 -0.0754
  964POPC   C4A12708   2.358   6.038   7.276  0.0414  0.0565 -0.1948
  964POPC   C1B12709   1.232   5.806   6.784 -0.3535 -0.1469  0.1022
  964POPC   C2B12710   1.606   6.020   7.182 -0.1538 -0.0193  0.0842
  964POPC   C3B12711   1.960   6.125   7.499  0.1257  0.2450  0.2207
  964POPC   C4B12712   2.229   6.074   7.918 -0.1057 -0.1767  0.2263
  965POPC   NC312713   9.752   3.139   5.496 -0.0842 -0.1630 -0.0417
  965POPC   PO412714   9.946   2.868   5.789  0.1861 -0.2147 -0.0852
  965POPC   GL112715   9.957   2.791   6.217  0.1309  0.1659 -0.0542
  965POPC   GL212716  10.071   2.600   6.452 -0.1071  0.0271 -0.1714
  965POPC   C1A12717   9.625   2.706   6.609 -0.1974 -0.1921  0.0563
  965POPC   D2A12718   9.484   2.886   6.919 -0.1283 -0.1889 -0.0746
  965POPC   C3A12719   9.126   2.912   7.210  0.0738 -0.3616 -0.0988
  965POPC   C4A12720   8.652   2.971   7.244 -0.1653 -0.2492  0.3441
  965POPC   C1B12721  10.018   2.578   6.907  0.1406 -0.0595 -0.1664
  965POPC   C2B12722  10.095   2.837   7.315  0.0680  0.0125 -0.0954
  965POPC   C3B12723  10.258   2.949   7.659  0.1169 -0.1125  0.1488
  965POPC   C4B12724  10.266   3.252   8.069  0.0549 -0.2017  0.0155
  966POPC   NC312725   3.666  15.528   5.789  0.0342  0.3305  0.2347
  966POPC   PO412726   3.423  15.155   6.050 -0.0817 -0.0629 -0.1770
  966POPC   GL112727   3.776  15.215   6.343  0.2369  0.0841 -0.1616
  966POPC   GL212728   4.002  15.392   6.232  0.3369  0.0158 -0.2872
  966POPC   C1A12729   4.026  14.968   6.657 -0.2950 -0.0553 -0.1777
  966POPC   D2A12730   4.109  14.643   6.890 -0.1037 -0.0085  0.0203
  966POPC   C3A12731   4.055  14.631   7.305  0.0047 -0.2082 -0.2697
  966POPC   C4A12732   3.744  14.683   7.553  0.0229 -0.0897 -0.1942
  966POPC   C1B12733   4.070  15.512   6.596  0.0447 -0.0135 -0.0200
  966POPC   C2B12734   4.094  15.573   7.113 -0.1087 -0.2018 -0.1305
  966POPC   C3B12735   4.303  15.269   7.463 -0.1271  0.2358  0.1970
  966POPC   C4B12736   4.644  15.137   7.569  0.1521  0.0742  0.0162
  967POPC   NC312737  15.609   5.886   6.324 -0.0668  0.0333 -0.2476
  967POPC   PO412738  15.337   6.207   6.063  0.0654 -0.2627 -0.2168
  967POPC   GL112739  15.299   6.422   6.528  0.2493  0.2462  0.2036
  967POPC   GL212740  15.351   6.784   6.572 -0.0496 -0.0631  0.5626
  967POPC   C1A12741  15.230   6.430   6.899 -0.0793  0.4828  0.1313
  967POPC   D2A12742  15.538   6.420   7.319 -0.0858  0.1115 -0.4658
  967POPC   C3A12743  16.049   6.392   7.264 -0.0247  0.1439 -0.0720
  967POPC   C4A12744  16.378   6.207   7.083  0.1328  0.3074  0.2397
  967POPC   C1B12745  15.714   6.585   6.818  0.3424  0.4214  0.1056
  967POPC   C2B12746  15.770   6.209   6.815  0.2779 -0.0140  0.1559
  967POPC   C3B12747  15.959   5.798   6.836  0.0703  0.0045  0.0271
  967POPC   C4B12748  16.414   5.728   6.919 -0.2121 -0.0613 -0.0941
  968POPC   NC312749   1.845   0.328   5.798  0.1458 -0.0879 -0.3513
  968POPC   PO412750   1.514   0.411   6.008  0.1186  0.1249 -0.0662
  968POPC   GL112751   1.682   0.211   6.325  0.0080 -0.3272 -0.1443
  968POPC   GL212752   1.445  -0.077   6.385  0.1256  0.2034  0.0085
  968POPC   C1A12753   1.691   0.159   6.776 -0.2418  0.1331 -0.0141
  968POPC   D2A12754   1.460   0.138   7.086  0.0770 -0.1229  0.1588
  968POPC   C3A12755   1.617   0.071   7.489  0.0199 -0.1417  0.0653
  968POPC   C4A12756   1.652   0.110   7.954 -0.0112  0.3391 -0.1260
  968POPC   C1B12757   1.478  -0.282   6.726  0.0046  0.2368  0.1437
  968POPC   C2B12758   1.608  -0.411   7.198 -0.0099 -0.2845 -0.0052
  968POPC   C3B12759   1.544  -0.517   7.666  0.1605 -0.1108 -0.0203
  968POPC   C4B12760   1.281  -0.201   7.929 -0.2915 -0.2683  0.1321
  969POPC   NC312761  17.960  15.772   5.754 -0.3948 -0.1406 -0.2363
  969POPC   PO412762  17.787  15.431   5.962  0.1978 -0.2286  0.1551
  969POPC   GL112763  17.750  15.261   6.364 -0.1334 -0.1525 -0.0727
  969POPC   GL212764  18.039  15.075   6.372  0.2163  0.3301 -0.3020
  969POPC   C1A12765  17.624  15.304   6.755 -0.1255  0.3686  0.1734
  969POPC   D2A12766  17.662  15.474   7.078 -0.0302  0.0034  0.3358
  969POPC   C3A12767  17.890  15.885   6.940  0.0904  0.3361  0.0360
  969POPC   C4A12768  18.034  16.170   6.624  0.2678  0.1428  0.0768
  969POPC   C1B12769  18.111  15.331   6.757  0.1477 -0.0249 -0.0112
  969POPC   C2B12770  18.183  15.447   7.172  0.0896 -0.0021  0.0774
  969POPC   C3B12771  18.035  15.780   7.479  0.0794  0.1849 -0.1965
  969POPC   C4B12772  18.102  15.837   7.924  0.0549  0.1436  0.0190
  970POPC   NC312773  11.929   5.192   5.998  0.0441 -0.1921  0.1824
  970POPC   PO412774  11.721   5.281   5.582  0.0430  0.0859  0.1843
  970POPC   GL112775  11.500   5.492   5.945 -0.0747  0.0173  0.0656
  970POPC   GL212776  11.402   5.245   6.199  0.0174  0.0558  0.1203
  970POPC   C1A12777  11.457   5.766   6.258 -0.3354  0.2997 -0.0629
  970POPC   D2A12778  11.490   5.930   6.735  0.4003  0.1835 -0.0365
  970POPC   C3A12779  11.275   5.687   7.055  0.0795  0.0305  0.2483
  970POPC   C4A12780  11.159   5.850   7.474  0.1299 -0.0478  0.0701
  970POPC   C1B12781  11.470   5.388   6.637  0.3268 -0.0973  0.1755
  970POPC   C2B12782  11.643   5.387   6.959 -0.0374  0.0793  0.0856
  970POPC   C3B12783  12.048   5.423   7.175  0.1631 -0.1760  0.2397
  970POPC   C4B12784  12.360   5.357   7.425  0.0026  0.1083 -0.2951
  971POPC   NC312785   2.066  16.918   5.801 -0.1083 -0.2290 -0.2636
  971POPC   PO412786   1.925  16.555   6.002 -0.1487  0.2576 -0.1248
  971POPC   GL112787   1.941  16.627   6.358 -0.2182 -0.0469  0.3542
  971POPC   GL212788   1.707  16.405   6.452  0.1963  0.1777 -0.1944
  971POPC   C1A12789   1.887  16.679   6.800  0.2002 -0.0302 -0.2750
  971POPC   D2A12790   2.003  16.903   7.092  0.0360 -0.1889 -0.0454
  971POPC   C3A12791   1.954  16.781   7.584 -0.2779 -0.3529 -0.1513
  971POPC   C4A12792   2.021  16.857   8.031  0.0267  0.2460 -0.0927
  971POPC   C1B12793   1.913  16.127   6.720 -0.3054  0.1288 -0.0040
  971POPC   C2B12794   2.032  15.897   7.056 -0.1866 -0.0173  0.2778
  971POPC   C3B12795   1.912  15.653   7.467 -0.2169 -0.0937 -0.0897
  971POPC   C4B12796   1.516  15.432   7.618 -0.4460 -0.0255  0.2600
  972POPC   NC312797   6.360  11.064   6.030  0.2376 -0.3376  0.3337
  972POPC   PO412798   6.145  11.420   5.920  0.0446  0.3768 -0.0043
  972POPC   GL112799   5.948  11.159   6.248  0.3229  0.1344  0.0014
  972POPC   GL212800   5.979  10.898   6.215  0.0819  0.2997 -0.1339
  972POPC   C1A12801   5.761  11.162   6.639 -0.0116 -0.0367 -0.2066
  972POPC   D2A12802   5.664  11.020   7.101  0.0627  0.1380 -0.0212
  972POPC   C3A12803   5.823  11.274   7.499 -0.0341 -0.0663  0.1201
  972POPC   C4A12804   6.001  11.245   7.897 -0.2984  0.1296 -0.1329
  972POPC   C1B12805   5.919  10.682   6.538  0.1925  0.0993  0.0604
  972POPC   C2B12806   5.961  10.690   6.897 -0.0009 -0.2282 -0.0393
  972POPC   C3B12807   5.930  10.650   7.371  0.0064  0.1801 -0.1317
  972POPC   C4B12808   5.889  10.357   7.725  0.5068 -0.1989 -0.1741
  973POPC   NC312809  13.987  16.903   5.379  0.3556  0.0980  0.0165
  973POPC   PO412810  14.358  16.949   5.493  0.2276 -0.2369 -0.0990
  973POPC   GL112811  14.476  16.920   6.055  0.0233 -0.2700  0.0858
  973POPC   GL212812  14.628  17.249   6.161 -0.0501  0.1304  0.4859
  973POPC   C1A12813  14.501  17.024   6.540 -0.2408  0.0794 -0.0004
  973POPC   D2A12814  14.776  16.878   6.938 -0.1855  0.4019  0.2373
  973POPC   C3A12815  14.850  17.194   7.288 -0.2170  0.2021 -0.1265
  973POPC   C4A12816  14.846  17.490   7.670  0.1649  0.3302 -0.2144
  973POPC   C1B12817  15.019  17.122   6.407  0.1157 -0.0876  0.0060
  973POPC   C2B12818  15.215  16.822   6.664  0.1179  0.0264 -0.3007
  973POPC   C3B12819  15.239  16.719   7.046  0.1358 -0.0969  0.0540
  973POPC   C4B12820  15.157  16.825   7.497 -0.0889  0.1478 -0.0355
  974POPC   NC312821  12.319   2.186   5.375 -0.1746  0.0991 -0.1459
  974POPC   PO412822  12.710   2.530   5.555 -0.0599  0.2273  0.1365
  974POPC   GL112823  12.694   2.250   5.883  0.1349 -0.2825 -0.0113
  974POPC   GL212824  12.552   1.945   5.796 -0.2557  0.1994  0.0605
  974POPC   C1A12825  12.427   2.283   6.238 -0.1190 -0.0618  0.1534
  974POPC   D2A12826  12.226   2.206   6.660 -0.3995  0.2372  0.0503
  974POPC   C3A12827  11.977   1.745   6.702 -0.3444  0.1712  0.0861
  974POPC   C4A12828  11.692   1.454   6.716  0.2478 -0.2636  0.1563
  974POPC   C1B12829  12.444   1.749   6.295  0.0115 -0.1023 -0.0595
  974POPC   C2B12830  12.654   1.692   6.697 -0.3037  0.0808  0.2439
  974POPC   C3B12831  12.574   1.657   7.097  0.0860 -0.0324  0.2141
  974POPC   C4B12832  12.401   1.822   7.551  0.2816 -0.0912 -0.0329
  975POPC   NC312833  14.330  10.397   6.000  0.0957 -0.1666  0.3343
  975POPC   PO412834  14.282  10.095   6.340 -0.3706 -0.0605  0.1592
  975POPC   GL112835  14.145  10.194   6.811 -0.2655 -0.1349 -0.0225
  975POPC   GL212836  13.937  10.488   6.861 -0.0721 -0.1939 -0.1563
  975POPC   C1A12837  14.184  10.236   7.284 -0.0402 -0.0725 -0.1303
  975POPC   D2A12838  14.382  10.475   7.628 -0.0489 -0.1674  0.0243
  975POPC   C3A12839  14.148  10.677   7.960 -0.0426 -0.1375  0.0500
  975POPC   C4A12840  14.092  10.925   8.301 -0.2205  0.0386  0.0665
  975POPC   C1B12841  13.531  10.337   7.105 -0.0210 -0.0859  0.0434
  975POPC   C2B12842  13.509  10.090   7.472  0.1352  0.1361  0.1246
  975POPC   C3B12843  13.475   9.810   7.748  0.2754  0.0174 -0.2132
  975POPC   C4B12844  13.203   9.729   8.113 -0.0891  0.0919 -0.4570
  976POPC   NC312845   5.082   6.597   5.709 -0.0326 -0.1805  0.0847
  976POPC   PO412846   4.968   6.580   5.967  0.0552  0.1371  0.1543
  976POPC   GL112847   4.963   6.747   6.427 -0.1141 -0.2167 -0.1443
  976POPC   GL212848   4.651   6.716   6.545  0.2170  0.0188 -0.1520
  976POPC   C1A12849   5.009   7.063   6.782 -0.0831  0.0526  0.1451
  976POPC   D2A12850   5.268   7.305   7.117  0.0999 -0.1471  0.1163
  976POPC   C3A12851   5.265   7.456   7.579  0.3236  0.0590 -0.0321
  976POPC   C4A12852   5.236   7.278   7.983 -0.2306 -0.2535  0.3041
  976POPC   C1B12853   4.643   6.726   6.982 -0.1004  0.1733 -0.1010
  976POPC   C2B12854   4.509   6.650   7.373 -0.0473 -0.3085  0.0900
  976POPC   C3B12855   4.450   6.805   7.734  0.3012  0.2226  0.0657
  976POPC   C4B12856   4.546   6.940   8.151  0.0719  0.2350 -0.0092
  977POPC   NC312857   6.949   7.971   5.733  0.0799 -0.3061 -0.0746
  977POPC   PO412858   7.062   7.728   6.063 -0.2186 -0.2318 -0.2211
  977POPC   GL112859   7.183   8.196   6.209 -0.1482 -0.2008 -0.1112
  977POPC   GL212860   6.884   8.327   6.092  0.1331 -0.1066  0.0699
  977POPC   C1A12861   7.199   8.305   6.592  0.2952 -0.0752  0.0771
  977POPC   D2A12862   7.275   8.204   7.030  0.0600  0.2417 -0.0855
  977POPC   C3A12863   7.265   7.951   7.400  0.1280 -0.0980 -0.0457
  977POPC   C4A12864   6.973   7.628   7.606 -0.2162 -0.1517  0.2076
  977POPC   C1B12865   6.635   8.349   6.362 -0.0697  0.3622  0.2667
  977POPC   C2B12866   6.295   8.126   6.390 -0.1543 -0.0039 -0.1600
  977POPC   C3B12867   6.244   7.782   6.626 -0.4358  0.4346  0.1003
  977POPC   C4B12868   6.570   7.539   6.804 -0.1796 -0.1037  0.0712
  978POPC   NC312869  10.080  11.878   5.851  0.1117 -0.2805 -0.0316
  978POPC   PO412870  10.406  11.784   5.998 -0.0639  0.1036 -0.1099
  978POPC   GL112871  10.219  11.481   6.332 -0.2176 -0.3852  0.0270
  978POPC   GL212872  10.516  11.410   6.509 -0.2247 -0.0325 -0.0147
  978POPC   C1A12873  10.040  11.518   6.745  0.0565 -0.1896 -0.0328
  978POPC   D2A12874   9.980  11.572   7.164 -0.0043 -0.1379  0.0703
  978POPC   C3A12875   9.635  11.456   7.380 -0.1305  0.2668  0.0800
  978POPC   C4A12876   9.338  11.462   7.663 -0.1022  0.0013  0.1046
  978POPC   C1B12877  10.464  11.286   6.835 -0.4110 -0.0179  0.0972
  978POPC   C2B12878  10.438  11.067   7.188  0.0532 -0.0526 -0.0908
  978POPC   C3B12879  10.295  10.846   7.531 -0.2416  0.1203 -0.1332
  978POPC   C4B12880  10.124  10.675   7.873  0.0930  0.1084  0.0913
  979POPC   NC312881   9.709  10.078   5.644 -0.2201 -0.2557  0.1116
  979POPC   PO412882   9.265  10.099   5.672  0.2628 -0.0182 -0.1476
  979POPC   GL112883   9.084   9.975   6.051  0.1241 -0.1141  0.0753
  979POPC   GL212884   8.916  10.161   6.237 -0.1193 -0.0198  0.0926
  979POPC   C1A12885   9.375   9.947   6.519  0.5001  0.1029  0.3276
  979POPC   D2A12886   9.405  10.085   6.976 -0.0494  0.0818 -0.0560
  979POPC   C3A12887   9.485  10.262   7.403  0.0061 -0.1917  0.2166
  979POPC   C4A12888   9.629  10.449   7.827  0.0658  0.3446  0.2326
  979POPC   C1B12889   8.968  10.159   6.698  0.0470 -0.1258  0.1159
  979POPC   C2B12890   8.905  10.308   7.065 -0.1797 -0.3061  0.2871
  979POPC   C3B12891   8.980  10.217   7.495 -0.2688 -0.1159  0.1018
  979POPC   C4B12892   9.215  10.208   7.969 -0.1245  0.1750  0.1057
  980POPC   NC312893   2.360   8.262   5.743 -0.1648  0.1256  0.3095
  980POPC   PO412894   1.857   8.224   5.615 -0.2813 -0.2467  0.0546
  980POPC   GL112895   1.994   8.371   6.062  0.4161  0.1448 -0.0896
  980POPC   GL212896   1.766   8.711   6.202 -0.1935 -0.1118  0.1593
  980POPC   C1A12897   2.150   8.193   6.409  0.3950  0.2629  0.0080
  980POPC   D2A12898   2.082   8.146   6.841 -0.1698  0.2685 -0.0543
  980POPC   C3A12899   2.059   8.508   7.160  0.1778 -0.0525 -0.1262
  980POPC   C4A12900   2.045   8.526   7.600 -0.1945 -0.3292  0.3314
  980POPC   C1B12901   1.735   8.507   6.572  0.1677 -0.0656 -0.3523
  980POPC   C2B12902   1.574   8.539   6.977  0.0535 -0.1586  0.3064
  980POPC   C3B12903   1.547   8.655   7.444  0.0754 -0.2106 -0.1433
  980POPC   C4B12904   1.683   8.779   7.808 -0.0101 -0.2692  0.3984
  981POPC   NC312905  13.241  11.253   6.018  0.4023 -0.4646 -0.0739
  981POPC   PO412906  13.613  11.382   6.097 -0.0331  0.1205 -0.0774
  981POPC   GL112907  13.713  11.301   6.477  0.0900  0.0600 -0.2331
  981POPC   GL212908  13.794  11.065   6.614 -0.1291  0.2173 -0.3655
  981POPC   C1A12909  13.871  11.541   6.926  0.0519  0.0353 -0.0718
  981POPC   D2A12910  14.261  11.638   7.019  0.0715 -0.0610 -0.1938
  981POPC   C3A12911  14.307  11.862   7.289  0.2286  0.0893  0.0978
  981POPC   C4A12912  14.336  11.957   7.744 -0.0553  0.0877  0.0186
  981POPC   C1B12913  13.939  11.001   7.030  0.1279 -0.2136 -0.0832
  981POPC   C2B12914  13.951  10.775   7.418  0.3359 -0.1413 -0.1049
  981POPC   C3B12915  13.665  10.501   7.712 -0.0045 -0.1351 -0.2651
  981POPC   C4B12916  13.479  10.193   7.999  0.1810  0.0562 -0.2038
  982YOPC   NC312917   0.025  17.754   5.709 -0.1659 -0.1783 -0.2174
  982YOPC   PO412918  -0.247  18.099   5.748 -0.1208  0.1065 -0.1343
  982YOPC   GL112919  -0.237  18.021   6.126  0.3810 -0.1889 -0.2244
  982YOPC   GL212920  -0.511  17.949   6.233  0.0234  0.0422 -0.0477
  982YOPC   C1A12921  -0.330  18.112   6.612  0.0158  0.2594 -0.0531
  982YOPC   D2A12922  -0.292  18.128   6.949  0.0187  0.0201 -0.0834
  982YOPC   C3A12923   0.025  17.952   7.242  0.2435  0.1026  0.2553
  982YOPC   C4A12924   0.015  17.864   7.674 -0.2194  0.2331 -0.1158
  982YOPC   C1B12925  -0.889  18.099   6.401  0.0519 -0.3272  0.0118
  982YOPC   C2B12926  -1.033  18.517   6.306 -0.2453 -0.1573 -0.2746
  982YOPC   D3B12927  -1.056  18.752   6.586  0.1462  0.0841  0.1097
  982YOPC   C4B12928  -1.025  18.787   7.070 -0.2699  0.1522 -0.2119
  983YOPC   NC312929   7.617  15.437   5.827 -0.1401  0.0002  0.1926
  983YOPC   PO412930   8.041  15.505   6.040 -0.1990 -0.2430  0.2074
  983YOPC   GL112931   8.178  15.500   6.511  0.0993  0.1548  0.2218
  983YOPC   GL212932   8.290  15.795   6.645 -0.2289  0.0906  0.0956
  983YOPC   C1A12933   8.192  15.381   6.894 -0.0176 -0.0488  0.2181
  983YOPC   D2A12934   8.286  15.402   7.344 -0.0547  0.0855 -0.1560
  983YOPC   C3A12935   8.193  15.370   7.777 -0.2078 -0.0461  0.1110
  983YOPC   C4A12936   7.750  15.465   8.062  0.0685 -0.0119 -0.0793
  983YOPC   C1B12937   8.629  15.651   6.917 -0.1534 -0.3381  0.1016
  983YOPC   C2B12938   8.815  15.552   7.259 -0.2245  0.0238 -0.0830
  983YOPC   D3B12939   8.839  15.679   7.760  0.0964  0.2678  0.0242
  983YOPC   C4B12940   8.419  15.857   7.944  0.0093 -0.2128  0.0570
  984YOPC   NC312941  17.260  15.465   6.069 -0.1113 -0.2252  0.0800
  984YOPC   PO412942  17.324  15.003   6.238 -0.1147 -0.1187 -0.0548
  984YOPC   GL112943  17.343  14.901   6.741  0.1686 -0.0216  0.2798
  984YOPC   GL212944  17.681  14.845   6.646 -0.2946  0.4647  0.0346
  984YOPC   C1A12945  17.432  14.666   7.136  0.0064 -0.3354 -0.1889
  984YOPC   D2A12946  17.344  14.487   7.472  0.3002 -0.0136  0.0286
  984YOPC   C3A12947  17.617  14.353   7.824 -0.0390  0.2184 -0.0830
  984YOPC   C4A12948  17.905  14.421   8.204 -0.0370 -0.1718  0.0943
  984YOPC   C1B12949  17.867  14.892   6.962  0.1984  0.0094 -0.0583
  984YOPC   C2B12950  17.820  15.077   7.305  0.2088 -0.3484  0.0158
  984YOPC   D3B12951  17.488  14.992   7.641  0.1929 -0.1611  0.2126
  984YOPC   C4B12952  17.377  14.821   8.004  0.1415  0.2932  0.0221
  985YOPC   NC312953   5.573  10.753   5.825 -0.3769  0.0253  0.5817
  985YOPC   PO412954   5.564  11.253   5.932  0.0120  0.0398  0.0406
  985YOPC   GL112955   5.410  10.930   6.249  0.0802  0.1770 -0.1211
  985YOPC   GL212956   5.062  10.888   6.242 -0.3279  0.3360  0.0551
  985YOPC   C1A12957   5.327  10.732   6.667  0.1894 -0.2123  0.2667
  985YOPC   D2A12958   5.184  10.732   7.034 -0.4190 -0.1966 -0.2777
  985YOPC   C3A12959   5.011  10.582   7.423  0.0661 -0.0767  0.5593
  985YOPC   C4A12960   5.166  10.613   7.842 -0.2704  0.1200  0.0917
  985YOPC   C1B12961   4.874  10.543   6.522 -0.0585  0.0210 -0.1725
  985YOPC   C2B12962   4.774  10.503   6.946  0.0644 -0.1251 -0.1787
  985YOPC   D3B12963   4.522  10.719   7.250  0.2786  0.0025 -0.3665
  985YOPC   C4B12964   4.208  10.489   7.522  0.0721  0.0546  0.0343
  986YOPC   NC312965   8.738   8.864   5.810 -0.1680  0.2971 -0.2706
  986YOPC   PO412966   9.035   8.505   5.834 -0.0391 -0.2339  0.0605
  986YOPC   GL112967   9.183   8.518   6.242 -0.0789 -0.1610 -0.0720
  986YOPC   GL212968   9.380   8.622   6.391  0.1015 -0.1098  0.1032
  986YOPC   C1A12969   8.945   8.563   6.640  0.1912  0.0548 -0.2274
  986YOPC   D2A12970   9.245   8.710   7.026 -0.0416  0.3273 -0.1174
  986YOPC   C3A12971   9.611   8.520   7.007  0.2254  0.2395 -0.0224
  986YOPC   C4A12972   9.945   8.749   6.940  0.0276  0.3744  0.3437
  986YOPC   C1B12973   9.386   8.309   6.639  0.1598 -0.1987  0.0002
  986YOPC   C2B12974   9.107   8.229   7.012 -0.0323 -0.1079  0.4148
  986YOPC   D3B12975   9.162   7.930   7.316 -0.2275 -0.1700 -0.0140
  986YOPC   C4B12976   8.864   7.559   7.477  0.1638  0.3576 -0.1733
  987YOPC   NC312977  16.245   5.044   6.154 -0.0519  0.1666 -0.1582
  987YOPC   PO412978  16.447   5.139   6.564  0.1532 -0.1613  0.0037
  987YOPC   GL112979  16.376   5.108   6.982  0.0455  0.0752  0.1206
  987YOPC   GL212980  16.557   4.916   7.008  0.1333 -0.3710 -0.0148
  987YOPC   C1A12981  16.289   5.387   7.359  0.1034  0.0769 -0.0209
  987YOPC   D2A12982  16.106   5.821   7.346  0.0250  0.0867  0.2417
  987YOPC   C3A12983  16.067   6.018   7.747  0.1216 -0.1866 -0.2195
  987YOPC   C4A12984  15.672   6.332   7.788 -0.3218  0.0351  0.0931
  987YOPC   C1B12985  16.482   4.882   7.442  0.1480  0.3076 -0.0292
  987YOPC   C2B12986  16.425   4.678   7.849  0.0755 -0.2423 -0.3512
  987YOPC   D3B12987  16.278   4.556   8.210 -0.0000 -0.2953  0.1414
  987YOPC   C4B12988  16.055   4.204   8.432 -0.0547  0.2626  0.3763
  988YOPC   NC312989  16.660   2.835   6.286  0.0195  0.1033 -0.0700
  988YOPC   PO412990  16.223   2.974   6.375 -0.3767 -0.1467  0.0792
  988YOPC   GL112991  16.174   2.764   6.767  0.0690  0.0748  0.2632
  988YOPC   GL212992  15.916   2.697   6.773  0.4778  0.2835  0.0970
  988YOPC   C1A12993  16.486   2.488   7.102 -0.1488  0.0032 -0.2097
  988YOPC   D2A12994  16.700   2.522   7.594 -0.2150 -0.1561 -0.0152
  988YOPC   C3A12995  16.454   2.659   8.022 -0.3149 -0.1373 -0.0174
  988YOPC   C4A12996  16.195   2.196   8.139  0.3361  0.0464 -0.0242
  988YOPC   C1B12997  15.877   2.792   7.224  0.1262  0.0068 -0.0341
  988YOPC   C2B12998  15.604   2.764   7.626 -0.0449  0.1745  0.0434
  988YOPC   D3B12999  15.264   3.028   7.802 -0.1770 -0.2855  0.1438
  988YOPC   C4B13000  14.881   2.903   7.828 -0.2666  0.0485  0.1232
  989YOPC   NC313001   0.738  16.033   5.783 -0.2845  0.2888 -0.0365
  989YOPC   PO413002   1.129  16.242   5.789  0.0112  0.1094  0.1440
  989YOPC   GL113003   1.102  16.195   6.309 -0.0160  0.1678 -0.0984
  989YOPC   GL213004   1.169  16.408   6.553 -0.0381  0.0019  0.4673
  989YOPC   C1A13005   0.934  15.965   6.571 -0.0282  0.2386  0.1222
  989YOPC   D2A13006   0.899  16.073   6.998  0.2666 -0.0377 -0.1219
  989YOPC   C3A13007   0.740  15.859   7.313  0.0115  0.2650  0.1459
  989YOPC   C4A13008   0.405  15.807   7.618  0.1019  0.1699  0.1890
  989YOPC   C1B13009   1.507  16.352   6.916  0.0818  0.2621 -0.2598
  989YOPC   C2B13010   1.826  16.339   7.172  0.0523 -0.2005 -0.0391
  989YOPC   D3B13011   1.708  16.316   7.573 -0.5868 -0.1832 -0.0566
  989YOPC   C4B13012   1.864  16.369   7.931 -0.0851 -0.0268 -0.0343
  990YOPC   NC313013   9.480  13.503   6.201 -0.2076  0.0758  0.1056
  990YOPC   PO413014   9.038  13.719   6.307 -0.0080 -0.1592 -0.3591
  990YOPC   GL113015   9.003  13.916   6.746  0.1406 -0.2304  0.0242
  990YOPC   GL213016   8.749  13.898   7.003  0.1959  0.2331 -0.0025
  990YOPC   C1A13017   9.098  14.287   7.000  0.0698 -0.0058  0.0566
  990YOPC   D2A13018   9.348  14.308   7.404  0.0378 -0.2033 -0.1188
  990YOPC   C3A13019   9.163  14.317   7.809 -0.0295  0.0268  0.0624
  990YOPC   C4A13020   9.019  14.583   8.217  0.0897 -0.0785 -0.6648
  990YOPC   C1B13021   8.829  13.598   7.267 -0.1618  0.1011  0.0076
  990YOPC   C2B13022   8.744  13.142   7.382  0.2386 -0.0380  0.0140
  990YOPC   D3B13023   8.977  12.893   7.650  0.2360 -0.0603 -0.0617
  990YOPC   C4B13024   9.271  12.567   7.791  0.2166 -0.2255  0.1747
  991YOPC   NC313025  16.356  11.934   5.912 -0.0735  0.0859 -0.2521
  991YOPC   PO413026  15.955  11.934   6.097 -0.1406 -0.0937 -0.2223
  991YOPC   GL113027  16.030  11.728   6.525 -0.0114  0.3428  0.2051
  991YOPC   GL213028  15.723  11.591   6.526 -0.2238 -0.0509  0.1906
  991YOPC   C1A13029  16.083  11.480   6.847  0.1405  0.1784  0.0110
  991YOPC   D2A13030  16.098  11.551   7.211  0.1562  0.2103 -0.0159
  991YOPC   C3A13031  16.408  11.451   7.426  0.2050  0.2646 -0.3194
  991YOPC   C4A13032  16.515  11.322   7.885 -0.0345  0.0101 -0.1633
  991YOPC   C1B13033  15.646  11.768   6.904 -0.0575 -0.3572 -0.1306
  991YOPC   C2B13034  15.663  11.647   7.380  0.1123  0.1535  0.1606
  991YOPC   D3B13035  15.986  11.919   7.641  0.2164  0.2311 -0.0588
  991YOPC   C4B13036  16.058  12.214   7.989  0.1589  0.2702 -0.0965
  992YOPC   NC313037   4.118  14.925   5.396 -0.0209 -0.0934  0.1003
  992YOPC   PO413038   4.268  14.773   5.788 -0.1858  0.1128 -0.1625
  992YOPC   GL113039   4.045  14.758   6.169 -0.0083 -0.0024  0.0697
  992YOPC   GL213040   3.726  14.754   6.211  0.1762  0.0069  0.3112
  992YOPC   C1A13041   4.153  14.473   6.449 -0.0464 -0.1217 -0.0089
  992YOPC   D2A13042   4.467  14.452   6.486 -0.1359 -0.1717  0.1273
  992YOPC   C3A13043   4.546  14.350   6.813 -0.1488 -0.5120 -0.4356
  992YOPC   C4A13044   4.584  14.163   7.171 -0.2512 -0.2327 -0.3445
  992YOPC   C1B13045   3.511  14.968   6.710 -0.0551 -0.1432  0.3293
  992YOPC   C2B13046   3.257  15.080   7.018  0.0931  0.2035 -0.2708
  992YOPC   D3B13047   3.347  15.010   7.377  0.1033  0.0735 -0.0210
  992YOPC   C4B13048   3.358  15.108   7.792 -0.2043 -0.2203  0.0593
  993YOPC   NC313049   6.749  11.885   5.716  0.2101  0.0123 -0.1063
  993YOPC   PO413050   6.980  12.411   5.694  0.3031 -0.0779 -0.4277
  993YOPC   GL113051   6.932  12.245   6.074 -0.1528 -0.0401 -0.0529
  993YOPC   GL213052   6.613  12.288   6.143  0.0416 -0.3368 -0.0964
  993YOPC   C1A13053   7.260  11.919   6.112 -0.0789 -0.0631 -0.2799
  993YOPC   D2A13054   7.599  11.913   6.416 -0.2530 -0.1738  0.1612
  993YOPC   C3A13055   7.925  12.117   6.561 -0.0311 -0.0439 -0.2066
  993YOPC   C4A13056   7.855  12.507   6.673  0.3928 -0.0060 -0.0690
  993YOPC   C1B13057   6.692  12.311   6.590 -0.2420  0.0081 -0.1704
  993YOPC   C2B13058   6.830  12.259   7.047  0.2634 -0.0766  0.2820
  993YOPC   D3B13059   6.632  12.005   7.283  0.2514 -0.2497 -0.1881
  993YOPC   C4B13060   6.201  12.097   7.455  0.5081  0.4037  0.1659
  994YOPC   NC313061  14.586   0.885   5.672  0.0500  0.1645 -0.0666
  994YOPC   PO413062  14.640   0.423   5.608 -0.1081 -0.0326  0.3034
  994YOPC   GL113063  14.698   0.264   6.036 -0.1990  0.0629 -0.0163
  994YOPC   GL213064  14.728   0.615   6.156 -0.2625 -0.1265  0.1076
  994YOPC   C1A13065  14.911  -0.129   6.239  0.1591  0.0195  0.0187
  994YOPC   D2A13066  14.715  -0.426   6.455  0.2318 -0.2969  0.1281
  994YOPC   C3A13067  14.987  -0.639   6.705  0.2233  0.1212  0.0156
  994YOPC   C4A13068  15.230  -0.863   6.987 -0.3694 -0.1467 -0.0057
  994YOPC   C1B13069  15.078   0.533   6.402 -0.3109 -0.2186  0.1864
  994YOPC   C2B13070  15.318   0.258   6.743  0.1411 -0.0681 -0.1121
  994YOPC   D3B13071  15.332   0.228   7.210  0.3120 -0.0404  0.3142
  994YOPC   C4B13072  15.142  -0.069   7.449  0.2677  0.2328 -0.0907
  995YOPC   NC313073  17.879   9.421   6.048  0.0750 -0.2061 -0.0179
  995YOPC   PO413074  17.513   9.227   6.324  0.1646 -0.3460  0.2716
  995YOPC   GL113075  17.425   8.833   6.467  0.4276  0.3448 -0.0104
  995YOPC   GL213076  17.730   8.637   6.563 -0.1590  0.3959  0.3088
  995YOPC   C1A13077  17.076   8.789   6.769  0.0577  0.2168  0.1744
  995YOPC   D2A13078  16.815   9.123   6.874  0.0645 -0.2722 -0.0321
  995YOPC   C3A13079  16.481   9.097   7.199 -0.0187  0.0893  0.1540
  995YOPC   C4A13080  16.220   9.134   7.506 -0.5115  0.1027  0.2358
  995YOPC   C1B13081  17.790   9.002   6.840  0.1496  0.0966 -0.2416
  995YOPC   C2B13082  17.860   9.386   7.105 -0.1434  0.1631  0.0752
  995YOPC   D3B13083  17.790   9.465   7.525 -0.1121  0.0142 -0.1335
  995YOPC   C4B13084  18.057   9.382   7.858  0.3067  0.2096 -0.1764
  996YOPC   NC313085   5.953  16.178   5.979 -0.0559 -0.0314  0.1018
  996YOPC   PO413086   5.432  16.076   5.998 -0.2216 -0.4359 -0.2752
  996YOPC   GL113087   5.469  15.642   6.131 -0.0451  0.1252  0.1544
  996YOPC   GL213088   5.675  15.651   6.354  0.0903  0.0209 -0.1430
  996YOPC   C1A13089   5.510  15.197   6.296 -0.2387 -0.4020 -0.2426
  996YOPC   D2A13090   5.824  14.863   6.207  0.3135 -0.0469 -0.0250
  996YOPC   C3A13091   6.100  14.753   6.409  0.2883  0.1254 -0.1754
  996YOPC   C4A13092   6.595  14.715   6.431  0.0702 -0.0661  0.3238
  996YOPC   C1B13093   5.360  15.606   6.654 -0.3420 -0.2684 -0.1478
  996YOPC   C2B13094   5.158  15.781   6.898 -0.4132  0.1307 -0.0844
  996YOPC   D3B13095   5.325  15.750   7.330 -0.1684 -0.1201  0.2234
  996YOPC   C4B13096   5.223  15.798   7.756 -0.0416  0.3266 -0.3186
  997YOPC   NC313097   2.514  17.673   5.840  0.1354 -0.0166 -0.3117
  997YOPC   PO413098   2.550  17.245   5.842  0.0204 -0.2898  0.3186
  997YOPC   GL113099   2.300  17.112   6.251 -0.2319 -0.0331  0.3615
  997YOPC   GL213100   2.473  17.362   6.375  0.3514 -0.1015 -0.1627
  997YOPC   C1A13101   2.115  17.207   6.706  0.2155 -0.0214  0.0277
  997YOPC   D2A13102   2.151  17.381   7.136 -0.2105 -0.0022  0.0372
  997YOPC   C3A13103   2.452  17.636   7.281  0.1218 -0.2104  0.2782
  997YOPC   C4A13104   2.571  17.598   7.651  0.3067 -0.0236  0.0347
  997YOPC   C1B13105   2.465  17.689   6.671 -0.0874 -0.0071 -0.0678
  997YOPC   C2B13106   2.614  18.006   6.962  0.0505 -0.1152  0.0293
  997YOPC   D3B13107   2.361  18.322   7.078  0.0072  0.0256  0.4879
  997YOPC   C4B13108   1.998  18.430   7.251  0.2381 -0.2839  0.0955
  998YOPC   NC313109   8.888   4.781   5.558 -0.0575  0.0893  0.2721
  998YOPC   PO413110   8.999   4.338   5.502  0.4250  0.4655  0.2702
  998YOPC   GL113111   8.854   4.258   5.923  0.2281  0.0235  0.1834
  998YOPC   GL213112   8.642   4.533   5.919 -0.1794  0.1182 -0.3505
  998YOPC   C1A13113   8.493   4.136   6.281 -0.1770  0.2046 -0.0733
  998YOPC   D2A13114   8.377   4.360   6.685 -0.0513 -0.2555  0.0852
  998YOPC   C3A13115   8.302   4.089   7.015 -0.1668 -0.1413  0.1982
  998YOPC   C4A13116   8.232   3.934   7.325 -0.2907  0.0710  0.0773
  998YOPC   C1B13117   8.772   4.555   6.390 -0.2040 -0.2281 -0.1691
  998YOPC   C2B13118   8.958   4.761   6.808  0.1904  0.0467 -0.1093
  998YOPC   D3B13119   9.353   4.589   6.983 -0.0631 -0.0055 -0.0114
  998YOPC   C4B13120   9.436   4.639   7.499 -0.0028 -0.0930  0.1512
  999YOPC   NC313121   2.120   4.483   5.605  0.0444  0.0118  0.3221
  999YOPC   PO413122   2.332   4.441   5.979  0.0952  0.4119  0.3510
  999YOPC   GL113123   2.229   4.782   6.197  0.0949  0.1093  0.1908
  999YOPC   GL213124   1.901   4.712   6.359 -0.1026  0.0001 -0.1463
  999YOPC   C1A13125   2.363   4.860   6.629 -0.3774 -0.1388  0.0944
  999YOPC   D2A13126   2.360   4.826   7.064 -0.0149 -0.1695 -0.0496
  999YOPC   C3A13127   2.248   4.752   7.379  0.1864  0.2623 -0.2273
  999YOPC   C4A13128   2.245   4.654   7.905  0.0613 -0.3513  0.0327
  999YOPC   C1B13129   1.835   5.102   6.241 -0.3821  0.0297  0.0614
  999YOPC   C2B13130   1.551   5.339   6.226 -0.1454  0.2755  0.0826
  999YOPC   D3B13131   1.680   5.534   6.574  0.0868  0.0301 -0.2549
  999YOPC   C4B13132   1.918   5.630   6.989  0.2280 -0.1652  0.0615
 1000YOPC   NC313133  12.350   5.790   5.606  0.2160 -0.0879 -0.2060
 1000YOPC   PO413134  12.347   5.600   5.935  0.0381 -0.2320 -0.0622
 1000YOPC   GL113135  12.059   5.702   6.262  0.0390  0.1285 -0.1851
 1000YOPC   GL213136  11.869   5.525   6.415 -0.0958  0.3908 -0.6740
 1000YOPC   C1A13137  11.982   5.988   6.664 -0.0953  0.1774 -0.0177
 1000YOPC   D2A13138  12.140   5.957   7.027  0.0244  0.1605  0.0716
 1000YOPC   C3A13139  12.092   6.240   7.369  0.1284  0.0032  0.3018
 1000YOPC   C4A13140  12.020   6.163   7.800 -0.2805  0.1064  0.0626
 1000YOPC   C1B13141  12.252   5.551   6.725  0.1343 -0.1500  0.0438
 1000YOPC   C2B13142  12.593   5.658   7.001 -0.0485 -0.0153 -0.0837
 1000YOPC   D3B13143  12.469   5.839   7.383  0.0150  0.1947  0.0242
 1000YOPC   C4B13144  12.791   5.813   7.747  0.2262  0.1291  0.3240
 1001YOPC   NC313145  17.963  13.022   5.903  0.2553  0.0528 -0.0115
 1001YOPC   PO413146  17.756  13.255   5.946  0.1568  0.2308  0.1945
 1001YOPC   GL113147  17.796  13.100   6.405  0.0197 -0.2641 -0.0915
 1001YOPC   GL213148  17.894  12.892   6.556  0.1917  0.2033 -0.2457
 1001YOPC   C1A13149  17.791  13.259   6.818 -0.0192  0.4795 -0.1248
 1001YOPC   D2A13150  17.756  13.622   7.096  0.0331 -0.2369 -0.3073
 1001YOPC   C3A13151  17.925  13.631   7.549 -0.1026  0.3217  0.0496
 1001YOPC   C4A13152  17.833  13.454   8.014 -0.2733 -0.3746  0.0355
 1001YOPC   C1B13153  18.235  13.012   6.827  0.1810  0.0322 -0.3732
 1001YOPC   C2B13154  18.660  13.130   7.114 -0.0698  0.1597  0.0851
 1001YOPC   D3B13155  18.699  12.999   7.496 -0.1130 -0.4368  0.3380
 1001YOPC   C4B13156  18.823  12.730   7.834  0.2933  0.1713 -0.0788
 1002YOPC   NC313157   4.248  13.331   5.744  0.0647  0.1962 -0.0187
 1002YOPC   PO413158   4.741  13.398   5.494 -0.1242  0.1249  0.0723
 1002YOPC   GL113159   4.738  13.365   5.892  0.1693  0.0291  0.0120
 1002YOPC   GL213160   4.524  13.269   6.187  0.2352  0.1037 -0.0707
 1002YOPC   C1A13161   4.918  13.514   6.231  0.0087 -0.0098  0.0693
 1002YOPC   D2A13162   4.700  13.463   6.625  0.0407  0.1045  0.0919
 1002YOPC   C3A13163   4.820  13.433   7.132 -0.0024 -0.0897  0.1401
 1002YOPC   C4A13164   5.019  13.281   7.550  0.0644 -0.1445 -0.1791
 1002YOPC   C1B13165   4.305  13.040   6.405 -0.0336  0.2766  0.3164
 1002YOPC   C2B13166   4.102  12.620   6.480 -0.0180  0.0988  0.3508
 1002YOPC   D3B13167   3.856  12.541   6.830 -0.2186 -0.0596  0.1726
 1002YOPC   C4B13168   3.704  12.444   7.269 -0.0249 -0.0473 -0.2417
 1003YOPC   NC313169   0.098   5.335   6.245 -0.0909 -0.2376  0.0959
 1003YOPC   PO413170  -0.029   5.686   6.345  0.0978 -0.2892  0.1382
 1003YOPC   GL113171   0.131   5.715   6.691  0.1949 -0.0687  0.2256
 1003YOPC   GL213172   0.337   5.410   6.719  0.0551 -0.1765  0.0418
 1003YOPC   C1A13173   0.265   5.883   7.072  0.0128 -0.0937  0.1075
 1003YOPC   D2A13174   0.147   5.949   7.480 -0.2139  0.0627  0.1548
 1003YOPC   C3A13175   0.333   6.025   7.795  0.1482 -0.2655  0.0355
 1003YOPC   C4A13176   0.472   5.668   8.069  0.1379 -0.0353  0.0153
 1003YOPC   C1B13177   0.348   5.429   7.186  0.1321 -0.1680  0.1170
 1003YOPC   C2B13178   0.479   5.484   7.556 -0.0575 -0.0368  0.0911
 1003YOPC   D3B13179   0.703   5.279   7.918  0.1539 -0.2618  0.0287
 1003YOPC   C4B13180   1.108   5.293   8.085 -0.3397  0.2461  0.1824
 1004YOPC   NC313181  10.536   9.514   5.738 -0.1855  0.0728 -0.2258
 1004YOPC   PO413182  10.315   9.070   5.817 -0.2634 -0.1356 -0.3267
 1004YOPC   GL113183  10.364   9.048   6.294  0.2765 -0.1863 -0.0205
 1004YOPC   GL213184  10.382   8.776   6.385 -0.3006 -0.1759 -0.0068
 1004YOPC   C1A13185  10.152   9.165   6.712  0.3041 -0.0860  0.1200
 1004YOPC   D2A13186   9.898   9.262   6.966  0.1721  0.1896 -0.0579
 1004YOPC   C3A13187   9.957   9.650   7.178  0.1229 -0.0965  0.2848
 1004YOPC   C4A13188  10.016  10.029   7.249 -0.3605  0.0215  0.1626
 1004YOPC   C1B13189  10.435   8.748   6.919  0.1117 -0.0322  0.0272
 1004YOPC   C2B13190  10.246   8.745   7.304 -0.0226 -0.0662 -0.0879
 1004YOPC   D3B13191  10.062   9.009   7.378 -0.0770  0.4527  0.0272
 1004YOPC   C4B13192   9.577   8.906   7.335  0.0913  0.0514  0.4296
 1005YOPC   NC313193   0.146  10.206   5.117 -0.1329  0.1482 -0.3319
 1005YOPC   PO413194   0.115  10.256   5.574  0.0686 -0.2642  0.0785
 1005YOPC   GL113195   0.389  10.379   5.898  0.0580 -0.0908 -0.2073
 1005YOPC   GL213196   0.393  10.015   6.074  0.1209 -0.2175  0.1055
 1005YOPC   C1A13197   0.529  10.694   6.232  0.1330  0.2109  0.0596
 1005YOPC   D2A13198   0.560  10.656   6.686  0.4444  0.0443 -0.1346
 1005YOPC   C3A13199   0.261  10.670   6.991  0.0621  0.0985  0.2923
 1005YOPC   C4A13200  -0.109  10.685   6.938  0.2412  0.1040 -0.1021
 1005YOPC   C1B13201   0.203   9.856   6.422  0.0025 -0.1731  0.1994
 1005YOPC   C2B13202   0.194   9.729   6.863  0.1864  0.0418 -0.0805
 1005YOPC   D3B13203   0.224   9.360   7.156 -0.1409  0.0043 -0.2474
 1005YOPC   C4B13204   0.179   9.019   7.085 -0.0013  0.1954  0.0542
 1006YOPC   NC313205  14.802  17.110   5.690 -0.2641  0.0382  0.0302
 1006YOPC   PO413206  15.257  17.209   5.660 -0.0134  0.2333  0.4392
 1006YOPC   GL113207  15.496  17.269   6.072 -0.0671  0.0347 -0.3124
 1006YOPC   GL213208  15.723  17.529   6.131 -0.0493 -0.0394  0.1154
 1006YOPC   C1A13209  15.601  17.118   6.426  0.1828 -0.1108  0.3229
 1006YOPC   D2A13210  15.672  16.966   6.863 -0.0951 -0.0473 -0.0004
 1006YOPC   C3A13211  15.536  17.052   7.296  0.0311 -0.0913  0.0016
 1006YOPC   C4A13212  15.357  17.480   7.492  0.0733 -0.3744 -0.0648
 1006YOPC   C1B13213  15.386  17.673   6.446 -0.0519 -0.0448 -0.0667
 1006YOPC   C2B13214  15.423  17.894   6.703  0.2521  0.0138  0.0701
 1006YOPC   D3B13215  15.533  17.834   7.180  0.0227 -0.1005 -0.1793
 1006YOPC   C4B13216  15.627  17.903   7.617 -0.0464  0.0421  0.0203
 1007YOPC   NC313217  12.315   0.008   5.972 -0.0733 -0.1275 -0.1251
 1007YOPC   PO413218  12.713  -0.009   5.876 -0.3721 -0.0694  0.2184
 1007YOPC   GL113219  12.640  -0.340   6.143  0.1133  0.3063 -0.0900
 1007YOPC   GL213220  12.854  -0.620   6.271 -0.0203 -0.2505  0.1867
 1007YOPC   C1A13221  12.353  -0.480   6.459 -0.2092  0.0044 -0.1025
 1007YOPC   D2A13222  12.143  -0.933   6.791  0.0026 -0.0210  0.0216
 1007YOPC   C3A13223  11.922  -0.917   7.107  0.1655 -0.2906 -0.1032
 1007YOPC   C4A13224  11.802  -0.809   7.499 -0.1165  0.1748 -0.0874
 1007YOPC   C1B13225  12.856  -0.774   6.684  0.1524 -0.1747  0.2310
 1007YOPC   C2B13226  12.592  -0.761   7.000  0.2303 -0.0245  0.0022
 1007YOPC   D3B13227  12.702  -0.955   7.405 -0.3317  0.2410  0.0042
 1007YOPC   C4B13228  12.713  -0.805   7.894 -0.0097 -0.0282 -0.1345
 1008YOPC   NC313229  13.054   1.509   5.657  0.0452  0.0034 -0.2592
 1008YOPC   PO413230  13.084   1.889   5.869  0.0699 -0.2245 -0.0274
 1008YOPC   GL113231  12.977   1.853   6.316  0.2026 -0.3658  0.0756
 1008YOPC   GL213232  12.944   1.570   6.216  0.2481  0.0239  0.1911
 1008YOPC   C1A13233  12.825   2.206   6.621  0.3060  0.1156  0.0147
 1008YOPC   D2A13234  12.679   2.468   6.947 -0.1384 -0.2623  0.3157
 1008YOPC   C3A13235  12.580   2.591   7.309  0.1523  0.1934  0.3560
 1008YOPC   C4A13236  12.636   3.021   7.393 -0.1863 -0.1249 -0.2000
 1008YOPC   C1B13237  13.366   1.483   6.499 -0.2417 -0.1746  0.0797
 1008YOPC   C2B13238  13.559   1.511   6.890  0.0125  0.1890  0.0467
 1008YOPC   D3B13239  13.560   1.187   7.262  0.1967  0.1948  0.3819
 1008YOPC   C4B13240  13.734   1.126   7.703  0.1869  0.2239  0.2226
 1009YOPC   NC313241   8.280  15.950   6.082  0.1293 -0.0786  0.3005
 1009YOPC   PO413242   8.617  15.746   6.302  0.1683  0.2126 -0.4012
 1009YOPC   GL113243   8.710  15.484   6.453 -0.1829  0.2474  0.0293
 1009YOPC   GL213244   8.598  15.174   6.547 -0.1996 -0.2893  0.3302
 1009YOPC   C1A13245   9.051  15.481   6.800  0.0562 -0.1972 -0.2134
 1009YOPC   D2A13246   9.159  15.292   7.059 -0.1846 -0.0807  0.0030
 1009YOPC   C3A13247   9.188  15.406   7.467  0.1997 -0.2052 -0.0001
 1009YOPC   C4A13248   9.458  15.562   7.804 -0.0237  0.1361 -0.0102
 1009YOPC   C1B13249   8.655  15.166   6.956 -0.1964  0.0001 -0.3218
 1009YOPC   C2B13250   8.813  15.087   7.368 -0.2490  0.6274 -0.3166
 1009YOPC   D3B13251   8.697  15.239   7.755  0.1381 -0.1727 -0.0948
 1009YOPC   C4B13252   8.971  15.265   8.143 -0.3032 -0.0553  0.2752
 1010YOPC   NC313253  12.512  13.649   6.011 -0.2786  0.0630  0.1817
 1010YOPC   PO413254  12.129  13.873   6.090  0.3491 -0.0336 -0.0685
 1010YOPC   GL113255  12.162  14.001   6.589  0.0115 -0.3224 -0.2870
 1010YOPC   GL213256  12.490  13.956   6.542 -0.2194  0.2048 -0.0480
 1010YOPC   C1A13257  12.150  13.983   7.077  0.0537  0.2760 -0.3192
 1010YOPC   D2A13258  12.189  13.645   7.359  0.0040  0.0073  0.0599
 1010YOPC   C3A13259  11.948  13.273   7.338 -0.2711  0.1011 -0.0242
 1010YOPC   C4A13260  11.886  12.946   7.519 -0.2001 -0.2725 -0.1716
 1010YOPC   C1B13261  12.645  14.221   6.806 -0.3055 -0.0674  0.0913
 1010YOPC   C2B13262  12.473  14.340   7.129  0.0047 -0.0056 -0.0018
 1010YOPC   D3B13263  12.430  14.237   7.545  0.0655  0.0491 -0.2858
 1010YOPC   C4B13264  12.124  14.006   7.714 -0.2990  0.0025  0.1284
 1011YOPC   NC313265   8.416  17.689   6.231  0.0549  0.0111 -0.0128
 1011YOPC   PO413266   8.848  17.717   6.184  0.1557  0.1412 -0.1235
 1011YOPC   GL113267   8.835  17.895   6.505 -0.0025  0.2023  0.1227
 1011YOPC   GL213268   8.800  17.515   6.646  0.1988 -0.1355  0.1399
 1011YOPC   C1A13269   8.787  18.037   6.909 -0.0544 -0.1069 -0.2923
 1011YOPC   D2A13270   8.632  18.148   7.354 -0.0432 -0.2934 -0.1706
 1011YOPC   C3A13271   8.515  17.971   7.799 -0.1162 -0.0286 -0.1358
 1011YOPC   C4A13272   8.218  17.885   8.057 -0.0556  0.3961 -0.3952
 1011YOPC   C1B13273   8.943  17.612   7.089 -0.4897 -0.0719  0.1744
 1011YOPC   C2B13274   9.195  17.804   7.454 -0.0637  0.0074 -0.0642
 1011YOPC   D3B13275   9.299  17.746   7.916 -0.0447  0.2226 -0.0095
 1011YOPC   C4B13276   9.467  17.523   8.181  0.0997  0.1927 -0.0821
 1012YOPC   NC313277  13.616   9.612   5.981  0.1037  0.0280 -0.2649
 1012YOPC   PO413278  13.357  10.038   6.133  0.2048 -0.0290 -0.1498
 1012YOPC   GL113279  13.008   9.870   6.308  0.2028  0.1194 -0.0039
 1012YOPC   GL213280  12.997  10.063   6.527  0.0328  0.0305  0.3501
 1012YOPC   C1A13281  12.948   9.616   6.717  0.0653  0.0366  0.0415
 1012YOPC   D2A13282  13.022   9.309   7.030 -0.4469 -0.1421  0.4212
 1012YOPC   C3A13283  13.344   8.981   6.989  0.0643 -0.1223  0.0834
 1012YOPC   C4A13284  13.757   8.977   7.149  0.0753 -0.0154  0.2081
 1012YOPC   C1B13285  13.068   9.992   7.081  0.2776 -0.0408  0.0861
 1012YOPC   C2B13286  12.991   9.754   7.391 -0.1033  0.1184 -0.1554
 1012YOPC   D3B13287  12.828   9.753   7.763  0.0182 -0.0216 -0.0525
 1012YOPC   C4B13288  12.599   9.751   8.096  0.1271  0.1428  0.0786
 1013YOPC   NC313289   3.950   1.078   6.129  0.0892  0.0488 -0.3252
 1013YOPC   PO413290   3.520   0.972   6.160 -0.0303  0.1770 -0.0928
 1013YOPC   GL113291   3.425   0.875   6.579  0.0033 -0.1160 -0.2918
 1013YOPC   GL213292   3.396   0.508   6.496  0.6313 -0.2778 -0.3466
 1013YOPC   C1A13293   3.259   0.937   7.061  0.0500  0.0153 -0.1213
 1013YOPC   D2A13294   3.233   0.714   7.344  0.0581 -0.0399  0.0088
 1013YOPC   C3A13295   2.884   0.821   7.639 -0.1185  0.1439 -0.0669
 1013YOPC   C4A13296   2.748   1.158   8.015  0.1361 -0.3016  0.1690
 1013YOPC   C1B13297   3.431   0.411   6.938  0.0163 -0.1701 -0.2440
 1013YOPC   C2B13298   3.607   0.358   7.395  0.0033  0.1211 -0.2348
 1013YOPC   D3B13299   3.345   0.185   7.656 -0.0558  0.0597 -0.0449
 1013YOPC   C4B13300   3.241   0.178   8.083  0.3595  0.0437  0.0821
 1014YOPC   NC313301  17.769   0.863   5.631  0.4543 -0.0244 -0.0018
 1014YOPC   PO413302  17.510   0.727   5.958  0.0061  0.1318  0.2700
 1014YOPC   GL113303  17.606   0.653   6.378 -0.0267  0.3631 -0.1030
 1014YOPC   GL213304  17.542   0.376   6.396  0.0529  0.0354 -0.0119
 1014YOPC   C1A13305  17.933   0.496   6.753 -0.1699 -0.0962  0.1074
 1014YOPC   D2A13306  18.250   0.248   6.920  0.0096  0.1183 -0.3372
 1014YOPC   C3A13307  18.420   0.281   7.311  0.3201  0.1346  0.5631
 1014YOPC   C4A13308  18.485   0.142   7.651  0.0120 -0.2577  0.0527
 1014YOPC   C1B13309  17.447   0.355   6.865  0.0043  0.1973  0.0245
 1014YOPC   C2B13310  17.494   0.323   7.223  0.1309  0.1105 -0.3345
 1014YOPC   D3B13311  17.878   0.473   7.345 -0.1443 -0.1541  0.3028
 1014YOPC   C4B13312  18.066   0.289   7.713  0.1099 -0.0919 -0.0626
 1015YOPC   NC313313   8.527  13.899   6.012  0.2164  0.0868  0.4578
 1015YOPC   PO413314   8.530  13.803   6.459  0.1399 -0.1979  0.0737
 1015YOPC   GL113315   8.413  13.561   6.807  0.4110  0.2053  0.0134
 1015YOPC   GL213316   8.730  13.425   6.817  0.1305  0.1723 -0.1354
 1015YOPC   C1A13317   8.286  13.294   7.064 -0.0102  0.1443 -0.1324
 1015YOPC   D2A13318   8.090  13.100   7.387  0.2427  0.1510  0.1111
 1015YOPC   C3A13319   8.356  13.139   7.762  0.1550 -0.0799  0.3159
 1015YOPC   C4A13320   8.604  12.940   8.072 -0.0377  0.1940 -0.5086
 1015YOPC   C1B13321   8.880  13.072   6.896 -0.1456  0.3138  0.1180
 1015YOPC   C2B13322   9.058  12.803   7.122 -0.0548 -0.0984 -0.0071
 1015YOPC   D3B13323   8.990  12.529   7.320 -0.0179 -0.3596 -0.0986
 1015YOPC   C4B13324   8.853  12.264   7.688 -0.0013 -0.0844  0.1767
 1016YOPC   NC313325   5.194  16.502   5.790  0.0997  0.1440 -0.0247
 1016YOPC   PO413326   4.928  16.503   6.184  0.2024 -0.0261  0.1054
 1016YOPC   GL113327   4.905  16.486   6.644  0.1600 -0.2889 -0.3450
 1016YOPC   GL213328   5.110  16.763   6.693 -0.0434  0.3164 -0.0939
 1016YOPC   C1A13329   4.820  16.136   6.920 -0.1811 -0.0584  0.1570
 1016YOPC   D2A13330   4.892  16.176   7.271 -0.1143  0.2091 -0.1198
 1016YOPC   C3A13331   4.865  16.104   7.695 -0.1861  0.0799  0.1841
 1016YOPC   C4A13332   4.863  15.917   8.148  0.1949  0.1137  0.0378
 1016YOPC   C1B13333   5.103  16.675   7.176 -0.4923 -0.0784 -0.0253
 1016YOPC   C2B13334   5.059  16.590   7.652  0.0123 -0.1655 -0.0285
 1016YOPC   D3B13335   5.338  16.273   7.814  0.1201  0.0120 -0.2878
 1016YOPC   C4B13336   5.369  16.062   8.138  0.2950  0.0109 -0.1953
 1017YOPC   NC313337   6.774   6.368   5.814 -0.0381  0.2011 -0.3468
 1017YOPC   PO413338   6.382   6.586   5.836  0.0765 -0.1348  0.1794
 1017YOPC   GL113339   6.339   6.481   6.301 -0.1435  0.2612  0.4828
 1017YOPC   GL213340   6.175   6.685   6.326  0.2617 -0.2250 -0.3262
 1017YOPC   C1A13341   6.439   6.251   6.718  0.0926 -0.1877  0.1968
 1017YOPC   D2A13342   6.694   5.946   6.733 -0.3544  0.2027  0.2443
 1017YOPC   C3A13343   6.511   5.482   6.786  0.0148  0.2288  0.1318
 1017YOPC   C4A13344   6.695   5.116   6.883  0.2056 -0.2156  0.2843
 1017YOPC   C1B13345   5.959   6.555   6.666  0.1230  0.2365 -0.0705
 1017YOPC   C2B13346   5.836   6.579   7.059  0.1400  0.0048 -0.0296
 1017YOPC   D3B13347   5.662   6.541   7.517  0.1653  0.0759 -0.1690
 1017YOPC   C4B13348   5.827   6.832   7.951 -0.1431  0.0660  0.0721
 1018YOPC   NC313349   0.853   5.238   5.641  0.1028 -0.2435  0.2911
 1018YOPC   PO413350   0.853   5.389   6.020  0.0038 -0.1753  0.2455
 1018YOPC   GL113351   0.835   5.234   6.407 -0.1987  0.0497  0.0403
 1018YOPC   GL213352   0.985   5.416   6.623 -0.2059  0.0947 -0.0496
 1018YOPC   C1A13353   0.863   4.917   6.659  0.1541 -0.4533 -0.1852
 1018YOPC   D2A13354   0.845   4.762   7.135  0.1751 -0.0611  0.1063
 1018YOPC   C3A13355   1.221   4.809   7.377  0.3474  0.1380  0.0953
 1018YOPC   C4A13356   1.394   5.112   7.634  0.2425  0.2252 -0.2016
 1018YOPC   C1B13357   0.829   5.244   6.991 -0.3128 -0.0624  0.2200
 1018YOPC   C2B13358   0.887   5.201   7.448 -0.0513  0.1720 -0.1279
 1018YOPC   D3B13359   0.950   4.884   7.807 -0.0922 -0.0762  0.0056
 1018YOPC   C4B13360   0.864   4.463   8.026  0.0399  0.1137  0.0925
 1019YOPC   NC313361  15.084  14.288   6.204 -0.3042  0.1772  0.0100
 1019YOPC   PO413362  14.837  14.614   6.175  0.1551  0.0965 -0.2296
 1019YOPC   GL113363  14.664  14.293   6.452  0.2916  0.1262 -0.1150
 1019YOPC   GL213364  14.935  14.308   6.688  0.0524 -0.1201 -0.1444
 1019YOPC   C1A13365  14.460  14.334   6.829  0.4022 -0.0294  0.1745
 1019YOPC   D2A13366  14.463  14.480   7.177 -0.0970 -0.0661 -0.0126
 1019YOPC   C3A13367  14.521  15.005   7.400 -0.2362 -0.1257 -0.1001
 1019YOPC   C4A13368  14.293  15.337   7.368  0.0028  0.0530 -0.3110
 1019YOPC   C1B13369  14.921  14.262   7.183 -0.0475 -0.0229 -0.0024
 1019YOPC   C2B13370  14.756  14.224   7.613 -0.1554  0.2383 -0.2334
 1019YOPC   D3B13371  14.895  14.452   7.915 -0.0361  0.1079  0.2010
 1019YOPC   C4B13372  15.135  14.773   8.140  0.1210  0.1271 -0.0716
 1020YOPC   NC313373   3.079  15.562   6.053 -0.2525 -0.1213 -0.1794
 1020YOPC   PO413374   2.903  15.133   5.918  0.1768  0.2137  0.1472
 1020YOPC   GL113375   2.898  15.140   6.319  0.2071  0.0946  0.0621
 1020YOPC   GL213376   2.763  14.887   6.488 -0.0210 -0.0811  0.1391
 1020YOPC   C1A13377   3.028  15.278   6.667 -0.2720 -0.1044 -0.2080
 1020YOPC   D2A13378   2.817  15.337   7.059  0.0291 -0.0141  0.0358
 1020YOPC   C3A13379   2.888  15.317   7.395  0.0305 -0.1237  0.0715
 1020YOPC   C4A13380   2.710  15.292   7.811  0.2541 -0.0700 -0.1604
 1020YOPC   C1B13381   3.041  14.692   6.813  0.2350 -0.1246 -0.0716
 1020YOPC   C2B13382   3.125  14.564   7.264  0.0355  0.1276  0.1873
 1020YOPC   D3B13383   3.250  14.505   7.708 -0.0407 -0.3048  0.0527
 1020YOPC   C4B13384   3.452  14.479   8.155  0.1806  0.1698  0.3001
 1021YOPC   NC313385   1.075   3.156   6.056 -0.0179  0.0968 -0.0723
 1021YOPC   PO413386   1.084   2.827   6.214 -0.1795  0.0163 -0.0462
 1021YOPC   GL113387   1.068   3.018   6.587 -0.1002 -0.3074  0.1163
 1021YOPC   GL213388   1.019   2.931   6.806  0.0327 -0.1494 -0.2616
 1021YOPC   C1A13389   1.499   3.125   6.881 -0.0419  0.0851  0.0377
 1021YOPC   D2A13390   1.574   3.007   7.312 -0.2608  0.2165  0.0554
 1021YOPC   C3A13391   1.883   2.943   7.582  0.0855 -0.0955 -0.0660
 1021YOPC   C4A13392   2.286   2.834   7.715  0.0158  0.2113 -0.0436
 1021YOPC   C1B13393   1.311   2.702   6.999 -0.0302  0.0389  0.2169
 1021YOPC   C2B13394   1.612   2.512   7.268  0.0601  0.0962 -0.1043
 1021YOPC   D3B13395   1.511   2.655   7.619 -0.3063  0.1794 -0.1676
 1021YOPC   C4B13396   1.281   2.811   7.940  0.0347  0.1557 -0.1096
 1022YOPC   NC313397   5.380  14.261   5.819  0.1861 -0.0389  0.0125
 1022YOPC   PO413398   5.052  14.408   5.895 -0.1263  0.3252 -0.2933
 1022YOPC   GL113399   5.054  14.506   6.273 -0.0628  0.1598  0.0035
 1022YOPC   GL213400   5.306  14.388   6.338  0.1561 -0.3559 -0.0008
 1022YOPC   C1A13401   4.937  14.653   6.616 -0.0650 -0.1323  0.0247
 1022YOPC   D2A13402   4.955  14.533   7.046 -0.1249  0.2359 -0.5317
 1022YOPC   C3A13403   5.025  14.675   7.495  0.0082  0.2024  0.0024
 1022YOPC   C4A13404   4.877  14.932   7.949 -0.2505  0.0333  0.1810
 1022YOPC   C1B13405   5.341  14.440   6.763 -0.0229  0.1731 -0.2041
 1022YOPC   C2B13406   5.436  14.367   7.189 -0.0672  0.4283 -0.1683
 1022YOPC   D3B13407   5.279  14.185   7.580  0.1554  0.0950  0.0765
 1022YOPC   C4B13408   5.369  13.726   7.720  0.2679  0.0794 -0.0435
 1023YOPC   NC313409   1.422   4.448   6.053  0.0370 -0.1573 -0.2795
 1023YOPC   PO413410   1.799   4.292   5.941  0.2937 -0.1238 -0.0533
 1023YOPC   GL113411   2.039   4.250   6.316  0.0009 -0.0789 -0.0704
 1023YOPC   GL213412   1.818   4.114   6.410  0.1183 -0.0274 -0.2192
 1023YOPC   C1A13413   2.192   4.363   6.614 -0.0068  0.2369 -0.0790
 1023YOPC   D2A13414   2.115   4.356   6.998  0.0727 -0.2824 -0.1726
 1023YOPC   C3A13415   1.760   4.219   7.153  0.1018  0.1920 -0.1519
 1023YOPC   C4A13416   1.528   4.114   7.544 -0.1376  0.0961  0.0070
 1023YOPC   C1B13417   1.627   4.261   6.715 -0.3916 -0.1491  0.1689
 1023YOPC   C2B13418   1.329   4.040   7.001  0.4486  0.0388  0.3189
 1023YOPC   D3B13419   1.185   4.315   7.288 -0.1472 -0.0113 -0.2447
 1023YOPC   C4B13420   0.854   4.506   7.520 -0.4866  0.0136 -0.0458
 1024YOPC   NC313421  12.255  12.484   6.014 -0.2637 -0.0058 -0.4015
 1024YOPC   PO413422  12.281  12.678   6.355  0.0013  0.0086 -0.3123
 1024YOPC   GL113423  12.294  12.690   6.771 -0.2649 -0.0311 -0.0915
 1024YOPC   GL213424  11.950  12.608   6.804 -0.2798  0.3898  0.0401
 1024YOPC   C1A13425  12.212  12.925   7.113  0.0678 -0.1564  0.0186
 1024YOPC   D2A13426  12.578  13.110   7.365 -0.2589  0.0114 -0.1424
 1024YOPC   C3A13427  12.730  12.994   7.751 -0.2423 -0.0755  0.1807
 1024YOPC   C4A13428  12.727  12.935   8.206 -0.0088 -0.2607  0.1399
 1024YOPC   C1B13429  11.909  12.531   7.225 -0.2936 -0.1004  0.0281
 1024YOPC   C2B13430  12.030  12.320   7.644 -0.0604 -0.1292  0.1584
 1024YOPC   D3B13431  11.860  12.495   8.060  0.0261  0.1328 -0.1596
 1024YOPC   C4B13432  11.462  12.712   8.240 -0.0535  0.2851 -0.2031
 1025YOPC   NC313433   8.490   4.449   5.480  0.0554  0.0449  0.2269
 1025YOPC   PO413434   8.105   4.533   5.359 -0.0262  0.0481 -0.3040
 1025YOPC   GL113435   8.011   4.641   5.776  0.0777 -0.0542 -0.2940
 1025YOPC   GL213436   8.058   5.059   5.739 -0.0518  0.1913 -0.0520
 1025YOPC   C1A13437   8.103   4.492   6.220  0.1808 -0.2205  0.2388
 1025YOPC   D2A13438   7.850   4.381   6.585  0.0549  0.2973  0.0312
 1025YOPC   C3A13439   7.929   4.428   6.957  0.0050 -0.0957  0.2267
 1025YOPC   C4A13440   7.902   4.609   7.400  0.2673 -0.0216 -0.1484
 1025YOPC   C1B13441   8.256   5.163   6.090  0.1699  0.0658 -0.0389
 1025YOPC   C2B13442   8.335   4.910   6.373 -0.1905 -0.1277  0.0519
 1025YOPC   D3B13443   8.404   4.830   6.688  0.0767  0.3165 -0.3161
 1025YOPC   C4B13444   8.454   4.635   7.100  0.1273  0.0650  0.1285
 1026YOPC   NC313445   3.691   4.944   5.355  0.2286  0.0122 -0.2798
 1026YOPC   PO413446   3.413   5.102   5.699 -0.1764  0.3574 -0.1304
 1026YOPC   GL113447   3.766   5.237   5.881 -0.0215 -0.2619 -0.1854
 1026YOPC   GL213448   3.673   5.490   6.001 -0.1638 -0.2109 -0.1048
 1026YOPC   C1A13449   3.998   5.122   6.322  0.0892  0.2464 -0.0464
 1026YOPC   D2A13450   4.305   4.837   6.265 -0.0727 -0.3433 -0.1207
 1026YOPC   C3A13451   4.030   4.464   6.450  0.0546  0.0790 -0.0956
 1026YOPC   C4A13452   4.046   4.027   6.437  0.1137 -0.4259  0.0256
 1026YOPC   C1B13453   3.735   5.583   6.407  0.1323  0.1528  0.0699
 1026YOPC   C2B13454   3.870   5.670   6.778  0.2210 -0.1297  0.0191
 1026YOPC   D3B13455   4.145   5.634   7.112  0.3935 -0.3344  0.3056
 1026YOPC   C4B13456   4.214   5.471   7.511 -0.0159  0.2256  0.1872
 1027YOPC   NC313457  14.460   1.753   5.757 -0.2833 -0.3119 -0.0610
 1027YOPC   PO413458  14.109   2.024   6.006 -0.3457  0.5206 -0.1191
 1027YOPC   GL113459  14.292   2.222   6.450  0.0402  0.5312  0.0950
 1027YOPC   GL213460  14.618   2.442   6.502  0.0340 -0.5308 -0.2137
 1027YOPC   C1A13461  14.263   2.367   6.894  0.1633 -0.2180 -0.0207
 1027YOPC   D2A13462  14.450   2.296   7.238  0.0889  0.2221 -0.1000
 1027YOPC   C3A13463  14.269   2.135   7.566 -0.1663 -0.1093  0.3028
 1027YOPC   C4A13464  14.192   2.027   7.932  0.2480 -0.1576  0.0018
 1027YOPC   C1B13465  14.730   2.515   6.837  0.1871  0.1756  0.2167
 1027YOPC   C2B13466  14.524   2.825   7.016 -0.1195  0.0018 -0.2103
 1027YOPC   D3B13467  14.385   2.877   7.473  0.2577 -0.0586  0.1382
 1027YOPC   C4B13468  14.442   3.268   7.579  0.1498  0.0868  0.2981
 1028YOPC   NC313469   4.750  14.656   5.617 -0.0495 -0.2701  0.1970
 1028YOPC   PO413470   5.041  14.976   5.672  0.2770 -0.0525 -0.0258
 1028YOPC   GL113471   5.053  15.150   6.163 -0.3442 -0.2698 -0.0837
 1028YOPC   GL213472   4.984  15.464   6.030  0.0129 -0.0084  0.0622
 1028YOPC   C1A13473   5.154  15.130   6.590 -0.0675 -0.1359  0.0708
 1028YOPC   D2A13474   4.968  15.314   6.989 -0.2918 -0.2040 -0.0929
 1028YOPC   C3A13475   5.092  15.139   7.364  0.1060  0.0386  0.2204
 1028YOPC   C4A13476   5.239  15.208   7.741 -0.0126  0.0833 -0.3638
 1028YOPC   C1B13477   4.830  15.561   6.500 -0.1068 -0.1996 -0.1160
 1028YOPC   C2B13478   4.540  15.698   6.824 -0.1188  0.0511  0.0815
 1028YOPC   D3B13479   4.579  15.592   7.216  0.1885  0.1749  0.3084
 1028YOPC   C4B13480   4.848  15.687   7.380 -0.0961  0.0473  0.0131
 1029YOPC   NC313481   7.093   8.888   5.915 -0.0814  0.2185 -0.0069
 1029YOPC   PO413482   6.612   9.023   5.622  0.4307 -0.1013  0.1871
 1029YOPC   GL113483   6.458   8.987   6.069 -0.0117  0.0653  0.0601
 1029YOPC   GL213484   6.684   8.792   6.226  0.5313 -0.0017  0.1154
 1029YOPC   C1A13485   6.315   9.224   6.380 -0.0222 -0.2314  0.0676
 1029YOPC   D2A13486   6.417   9.379   6.822 -0.1102  0.1892 -0.0345
 1029YOPC   C3A13487   6.079   9.624   7.187 -0.1851  0.0275  0.0131
 1029YOPC   C4A13488   6.015   9.499   7.646  0.2935  0.3345  0.0851
 1029YOPC   C1B13489   6.730   9.035   6.615 -0.0152  0.2074  0.0572
 1029YOPC   C2B13490   6.841   9.080   7.069 -0.1581  0.0258 -0.1153
 1029YOPC   D3B13491   7.095   8.735   7.304  0.3580  0.0528  0.4072
 1029YOPC   C4B13492   7.178   8.461   7.580  0.0635 -0.2881  0.4350
 1030YOPC   NC313493   3.463  10.358   5.562  0.2598 -0.0420 -0.2984
 1030YOPC   PO413494   3.851  10.483   5.586  0.1881 -0.1972 -0.0272
 1030YOPC   GL113495   3.958  10.461   5.973 -0.0669  0.2288  0.2839
 1030YOPC   GL213496   4.138  10.245   6.014 -0.2135 -0.1207 -0.2839
 1030YOPC   C1A13497   3.950  10.614   6.442  0.1389 -0.1599 -0.1638
 1030YOPC   D2A13498   4.031  10.709   6.984  0.0887  0.5774  0.1141
 1030YOPC   C3A13499   3.752  10.687   7.302  0.2972 -0.1255 -0.1856
 1030YOPC   C4A13500   3.328  10.740   7.479  0.2036 -0.0065 -0.0262
 1030YOPC   C1B13501   4.370  10.280   6.353  0.0081  0.0145 -0.1457
 1030YOPC   C2B13502   4.407  10.480   6.688 -0.1257  0.2870 -0.0788
 1030YOPC   D3B13503   4.331  10.251   7.119  0.0196 -0.1122 -0.0235
 1030YOPC   C4B13504   4.650  10.141   7.322  0.0447 -0.1136  0.0826
 1031YOPC   NC313505   5.175   0.527   6.196  0.2188  0.0967  0.1358
 1031YOPC   PO413506   5.277   0.894   6.318 -0.2318  0.1036 -0.2677
 1031YOPC   GL113507   5.211   1.117   6.697  0.0565 -0.0970  0.0705
 1031YOPC   GL213508   5.561   1.124   6.770  0.1313  0.0255 -0.0545
 1031YOPC   C1A13509   5.127   1.419   7.056  0.1631 -0.1210 -0.2076
 1031YOPC   D2A13510   5.122   1.493   7.470  0.4190 -0.1077  0.2113
 1031YOPC   C3A13511   5.343   1.796   7.784 -0.3128 -0.0217 -0.1377
 1031YOPC   C4A13512   5.496   2.292   7.838 -0.0768  0.2305 -0.0024
 1031YOPC   C1B13513   5.555   1.215   7.149 -0.0903 -0.0028 -0.4085
 1031YOPC   C2B13514   5.794   1.284   7.456  0.0434  0.0725 -0.1062
 1031YOPC   D3B13515   5.540   1.315   7.756  0.0107 -0.2709  0.1616
 1031YOPC   C4B13516   5.602   1.417   8.022  0.0098 -0.1669  0.6150
 1032YOPC   NC313517   4.976   8.465   5.560  0.0915 -0.0785 -0.0964
 1032YOPC   PO413518   4.598   8.526   5.859 -0.1768 -0.0325  0.0823
 1032YOPC   GL113519   4.682   8.404   6.282 -0.0905  0.0192  0.1281
 1032YOPC   GL213520   4.616   8.111   6.430  0.1507 -0.0498 -0.4416
 1032YOPC   C1A13521   4.836   8.589   6.688 -0.2023 -0.4532 -0.3926
 1032YOPC   D2A13522   4.886   8.754   7.021 -0.1630 -0.0204  0.0760
 1032YOPC   C3A13523   4.916   8.553   7.261  0.0379  0.1384 -0.2208
 1032YOPC   C4A13524   5.259   8.458   7.472 -0.1275  0.0978 -0.0965
 1032YOPC   C1B13525   4.503   7.811   6.570 -0.2265  0.1174  0.0298
 1032YOPC   C2B13526   4.207   7.612   6.858  0.2531  0.1081  0.0249
 1032YOPC   D3B13527   4.404   7.791   7.266 -0.1773 -0.0792  0.2343
 1032YOPC   C4B13528   4.294   7.740   7.764 -0.2909 -0.4442  0.0815
 1033YOPC   NC313529   1.460  10.176   5.350 -0.1047 -0.1142  0.4074
 1033YOPC   PO413530   1.398  10.003   5.699  0.2761  0.1591  0.3352
 1033YOPC   GL113531   1.307  10.350   5.931 -0.0107  0.0733  0.1706
 1033YOPC   GL213532   0.907  10.426   6.106 -0.0974  0.2575 -0.2127
 1033YOPC   C1A13533   1.406  10.481   6.240  0.2496 -0.2329 -0.3285
 1033YOPC   D2A13534   1.447  10.339   6.699 -0.0381 -0.0744  0.1971
 1033YOPC   C3A13535   1.545  10.350   7.021  0.0453 -0.2970  0.2489
 1033YOPC   C4A13536   1.628  10.225   7.261 -0.1624  0.1769  0.1095
 1033YOPC   C1B13537   0.999  10.645   6.425  0.2363 -0.1428 -0.1168
 1033YOPC   C2B13538   1.252  10.818   6.766 -0.1363  0.0647  0.2787
 1033YOPC   D3B13539   1.510  11.118   7.120  0.2201  0.0244 -0.1757
 1033YOPC   C4B13540   1.605  11.542   7.165 -0.3368  0.1801 -0.0340
 1034YOPC   NC313541  13.080   9.110   6.173 -0.0913 -0.3943 -0.0834
 1034YOPC   PO413542  13.097   9.467   5.967 -0.0225  0.3959 -0.3062
 1034YOPC   GL113543  12.684   9.420   6.288  0.3540 -0.1261  0.0419
 1034YOPC   GL213544  12.316   9.574   6.205 -0.2254  0.2407 -0.0613
 1034YOPC   C1A13545  12.463   9.432   6.751 -0.1774  0.2651  0.2433
 1034YOPC   D2A13546  12.562   9.549   7.112  0.2334 -0.0261  0.0354
 1034YOPC   C3A13547  12.289   9.564   7.524  0.0728 -0.1487 -0.2607
 1034YOPC   C4A13548  12.197   9.706   7.815  0.2851  0.1573 -0.4665
 1034YOPC   C1B13549  12.002   9.401   6.494  0.4394  0.0121 -0.1372
 1034YOPC   C2B13550  11.589   9.275   6.316 -0.1384 -0.1632  0.0727
 1034YOPC   D3B13551  11.386   8.974   6.318  0.1676  0.0255  0.0163
 1034YOPC   C4B13552  11.004   8.631   6.420  0.0859  0.2634  0.1437
 1035YOPC   NC313553   5.467  11.914   5.880  0.0726  0.1239  0.0885
 1035YOPC   PO413554   5.922  11.918   5.805  0.2087  0.0056 -0.0474
 1035YOPC   GL113555   5.908  11.916   6.109  0.0014 -0.2710  0.0188
 1035YOPC   GL213556   5.742  11.601   6.213  0.1711  0.1882  0.2478
 1035YOPC   C1A13557   5.861  11.796   6.588  0.1730 -0.0782  0.0273
 1035YOPC   D2A13558   5.495  11.747   6.866  0.3324  0.1878  0.0486
 1035YOPC   C3A13559   5.331  11.990   7.166  0.2676 -0.5241  0.0346
 1035YOPC   C4A13560   5.224  12.022   7.524  0.0577 -0.3922  0.0248
 1035YOPC   C1B13561   5.352  11.430   6.522 -0.0851 -0.3470 -0.3969
 1035YOPC   C2B13562   5.207  11.226   6.790 -0.0499 -0.3154  0.0616
 1035YOPC   D3B13563   5.353  11.400   7.201  0.1627  0.3124  0.0099
 1035YOPC   C4B13564   5.338  11.381   7.686  0.0924  0.1348  0.2335
 1036YOPC   NC313565   0.659  12.439   5.313  0.0475 -0.0138  0.2855
 1036YOPC   PO413566   0.844  12.514   5.752 -0.0679  0.0681  0.0859
 1036YOPC   GL113567   1.083  12.631   6.125  0.1376  0.0546 -0.2577
 1036YOPC   GL213568   0.895  12.454   6.331  0.1304 -0.1624  0.1138
 1036YOPC   C1A13569   1.362  12.945   6.366  0.1660  0.4115  0.2033
 1036YOPC   D2A13570   1.478  13.153   6.729  0.1358 -0.1396  0.0598
 1036YOPC   C3A13571   1.620  13.443   6.825  0.0860 -0.2737  0.1296
 1036YOPC   C4A13572   1.922  13.628   6.718  0.0241  0.1401  0.4243
 1036YOPC   C1B13573   1.246  12.593   6.711 -0.0500  0.0455 -0.1023
 1036YOPC   C2B13574   1.304  12.797   7.006 -0.1390 -0.1072  0.1271
 1036YOPC   D3B13575   1.121  12.847   7.466  0.2482  0.1074 -0.0285
 1036YOPC   C4B13576   1.161  13.119   7.853  0.1796 -0.1333  0.0490
 1037YOPC   NC313577   7.144   1.154   5.721 -0.1624  0.1268 -0.0092
 1037YOPC   PO413578   7.008   0.992   6.146 -0.1042  0.1175 -0.1384
 1037YOPC   GL113579   6.963   1.213   6.486 -0.0121  0.5585  0.0312
 1037YOPC   GL213580   7.059   1.460   6.499  0.0088  0.0871  0.2234
 1037YOPC   C1A13581   7.068   1.154   6.904 -0.1229 -0.0387  0.0315
 1037YOPC   D2A13582   7.410   1.099   7.190 -0.0715  0.1318  0.0329
 1037YOPC   C3A13583   7.657   0.775   7.055 -0.0195  0.1679 -0.3454
 1037YOPC   C4A13584   8.098   0.792   7.188 -0.1347  0.2245  0.4459
 1037YOPC   C1B13585   6.929   1.779   6.866  0.1903  0.2412  0.2405
 1037YOPC   C2B13586   6.514   2.021   7.024  0.2418  0.0578 -0.2536
 1037YOPC   D3B13587   6.491   2.352   7.214 -0.0102  0.1873 -0.2657
 1037YOPC   C4B13588   6.562   2.379   7.569  0.0935 -0.2649 -0.0492
 1038YOPC   NC313589  14.984   6.364   5.779  0.0235 -0.1920 -0.0381
 1038YOPC   PO413590  14.686   6.038   5.956  0.0732  0.0211 -0.2907
 1038YOPC   GL113591  14.587   5.913   6.423 -0.1479 -0.0215  0.0348
 1038YOPC   GL213592  14.785   5.989   6.715 -0.2552  0.3118  0.3082
 1038YOPC   C1A13593  14.343   6.150   6.745 -0.1424 -0.0129  0.0681
 1038YOPC   D2A13594  14.177   6.172   7.223 -0.2977 -0.1882  0.0347
 1038YOPC   C3A13595  13.976   6.346   7.434 -0.1949  0.1632 -0.2474
 1038YOPC   C4A13596  13.975   6.522   7.925 -0.1975 -0.1476 -0.2449
 1038YOPC   C1B13597  14.472   5.756   7.016 -0.2097 -0.0423 -0.1654
 1038YOPC   C2B13598  14.528   5.744   7.417  0.1779 -0.0187  0.0491
 1038YOPC   D3B13599  14.403   5.833   7.838 -0.1411 -0.3930  0.6438
 1038YOPC   C4B13600  14.412   6.209   8.118  0.2069  0.2163 -0.2515
 1039YOPC   NC313601   9.210   5.729   5.247 -0.0882  0.0305 -0.2495
 1039YOPC   PO413602   8.964   5.306   5.383  0.0251 -0.0392  0.0688
 1039YOPC   GL113603   8.935   5.175   5.768  0.3015  0.0591 -0.0068
 1039YOPC   GL213604   8.712   5.034   5.959  0.0065 -0.1033 -0.0184
 1039YOPC   C1A13605   9.264   5.209   6.001 -0.3070 -0.1302  0.1330
 1039YOPC   D2A13606   9.363   5.417   6.388 -0.0596 -0.2704  0.1120
 1039YOPC   C3A13607   9.127   5.459   6.801 -0.0496  0.3911  0.1463
 1039YOPC   C4A13608   9.086   5.098   7.177 -0.0934  0.1925 -0.0133
 1039YOPC   C1B13609   8.656   5.357   6.238 -0.0607 -0.0835  0.2836
 1039YOPC   C2B13610   8.440   5.543   6.595 -0.1830 -0.0351  0.0095
 1039YOPC   D3B13611   8.605   5.588   6.960  0.0176  0.0785 -0.1807
 1039YOPC   C4B13612   8.850   5.515   7.341 -0.0335 -0.0340  0.1563
 1040YOPC   NC313613   1.932   1.938   5.799  0.1071  0.1337 -0.1749
 1040YOPC   PO413614   1.879   2.286   5.968  0.1420  0.1018 -0.3044
 1040YOPC   GL113615   1.877   2.163   6.370 -0.0089  0.2689 -0.1039
 1040YOPC   GL213616   1.956   1.845   6.416 -0.0419  0.4480 -0.1557
 1040YOPC   C1A13617   1.785   2.165   6.801  0.0942 -0.6308 -0.1722
 1040YOPC   D2A13618   1.718   1.990   7.171 -0.1313  0.0602 -0.3047
 1040YOPC   C3A13619   1.541   2.113   7.671  0.4243  0.1468 -0.0854
 1040YOPC   C4A13620   1.458   2.187   8.047 -0.1730 -0.3955 -0.1207
 1040YOPC   C1B13621   2.069   1.766   6.732  0.1769  0.0274 -0.0848
 1040YOPC   C2B13622   2.248   1.767   7.153  0.1490  0.1354 -0.1516
 1040YOPC   D3B13623   2.625   1.445   7.253  0.2349  0.1454  0.0678
 1040YOPC   C4B13624   2.877   1.407   7.570 -0.0187 -0.0382 -0.2699
 1041YOPC   NC313625   1.093  14.928   5.859 -0.0949  0.1545  0.0689
 1041YOPC   PO413626   1.450  14.905   6.098 -0.3889 -0.0798  0.0264
 1041YOPC   GL113627   1.318  15.204   6.316  0.0051  0.1480  0.3043
 1041YOPC   GL213628   1.471  15.175   6.610  0.2294 -0.1536 -0.1404
 1041YOPC   C1A13629   0.953  15.442   6.482 -0.2218  0.1048  0.0940
 1041YOPC   D2A13630   0.831  15.547   6.922 -0.0807  0.3299  0.0045
 1041YOPC   C3A13631   0.535  15.331   7.096 -0.2626 -0.1002 -0.2183
 1041YOPC   C4A13632   0.407  15.283   7.517 -0.1341  0.1127  0.1749
 1041YOPC   C1B13633   1.261  15.322   6.893 -0.1201  0.3050  0.0155
 1041YOPC   C2B13634   1.121  15.379   7.281  0.2181  0.1373 -0.1538
 1041YOPC   D3B13635   1.030  15.711   7.673  0.1926  0.0783  0.0165
 1041YOPC   C4B13636   1.113  15.697   8.150  0.2528  0.0709  0.2356
 1042YOPC   NC313637   1.371   1.558   5.647 -0.1857  0.0561  0.1438
 1042YOPC   PO413638   1.565   1.778   6.064  0.1532  0.0428  0.1932
 1042YOPC   GL113639   1.448   1.815   6.458  0.1448 -0.3023 -0.0605
 1042YOPC   GL213640   1.113   1.883   6.496 -0.1859 -0.2259  0.0515
 1042YOPC   C1A13641   1.417   1.718   6.817  0.3174 -0.0994  0.0112
 1042YOPC   D2A13642   1.346   1.683   7.125 -0.0236  0.0844  0.0284
 1042YOPC   C3A13643   1.512   1.670   7.514 -0.1526 -0.0398  0.0693
 1042YOPC   C4A13644   1.645   1.331   7.845  0.0914 -0.0693  0.0886
 1042YOPC   C1B13645   0.947   1.846   6.859 -0.1125  0.0955 -0.2515
 1042YOPC   C2B13646   0.909   1.669   7.310 -0.0535 -0.2256  0.0999
 1042YOPC   D3B13647   1.086   1.921   7.710 -0.0402 -0.1664  0.0987
 1042YOPC   C4B13648   1.309   1.731   8.035 -0.3334  0.0914 -0.1926
 1043YOPC   NC313649  15.016  11.030   5.979  0.5461 -0.2488 -0.4776
 1043YOPC   PO413650  15.459  10.955   6.006 -0.0407 -0.0905  0.0600
 1043YOPC   GL113651  15.285  10.938   6.442 -0.1178 -0.1536  0.1446
 1043YOPC   GL213652  15.408  10.738   6.798  0.0068  0.2179 -0.1381
 1043YOPC   C1A13653  15.220  11.384   6.696 -0.0441 -0.0126 -0.4201
 1043YOPC   D2A13654  15.199  11.587   7.124  0.1536  0.0352  0.0009
 1043YOPC   C3A13655  15.233  11.968   7.265  0.0552 -0.0945  0.2357
 1043YOPC   C4A13656  15.368  12.292   7.525  0.1352 -0.1043  0.0407
 1043YOPC   C1B13657  15.579  10.418   7.074 -0.1798  0.3451 -0.0846
 1043YOPC   C2B13658  15.884  10.344   7.405 -0.1009 -0.2883  0.0267
 1043YOPC   D3B13659  15.787  10.220   7.757  0.1875  0.0753 -0.3458
 1043YOPC   C4B13660  15.835  10.314   8.250 -0.0576  0.1461  0.0210
 1044YOPC   NC313661   6.580  15.476   5.757  0.1056  0.1909 -0.0619
 1044YOPC   PO413662   6.730  15.599   6.093  0.3129 -0.0095 -0.1182
 1044YOPC   GL113663   6.688  15.657   6.504  0.0012  0.0732 -0.0219
 1044YOPC   GL213664   6.500  15.383   6.490  0.2961  0.1780  0.1154
 1044YOPC   C1A13665   6.448  15.530   6.962 -0.1524 -0.0979  0.1051
 1044YOPC   D2A13666   6.351  15.214   7.149  0.4432  0.1851  0.2766
 1044YOPC   C3A13667   5.921  14.956   7.065  0.0061  0.0879  0.1416
 1044YOPC   C4A13668   5.750  14.718   6.786  0.1406 -0.2482 -0.1888
 1044YOPC   C1B13669   6.265  15.052   6.704 -0.3246 -0.3090  0.3369
 1044YOPC   C2B13670   6.318  14.693   6.898  0.0025 -0.0648 -0.1258
 1044YOPC   D3B13671   6.371  14.609   7.390  0.2052 -0.1373 -0.0841
 1044YOPC   C4B13672   6.243  14.618   7.861  0.1293  0.3496  0.2087
 1045YOPC   NC313673   3.130   1.257   6.314 -0.2346 -0.0505 -0.1822
 1045YOPC   PO413674   3.581   1.518   6.195 -0.0724  0.1411 -0.2307
 1045YOPC   GL113675   3.545   1.818   6.536  0.1543 -0.2544 -0.1633
 1045YOPC   GL213676   3.180   1.781   6.574  0.1787 -0.1630  0.3995
 1045YOPC   C1A13677   3.652   1.944   6.905 -0.1200  0.1574 -0.1672
 1045YOPC   D2A13678   3.715   2.050   7.431  0.0757 -0.0712 -0.4273
 1045YOPC   C3A13679   3.555   2.407   7.648 -0.1955 -0.2961 -0.1876
 1045YOPC   C4A13680   3.328   2.732   7.948  0.1045 -0.1382 -0.1980
 1045YOPC   C1B13681   3.145   1.809   6.936  0.0449  0.2433  0.0199
 1045YOPC   C2B13682   3.192   1.678   7.284 -0.1176  0.3241  0.3895
 1045YOPC   D3B13683   3.205   2.009   7.542  0.1601  0.0514  0.1144
 1045YOPC   C4B13684   3.081   2.285   7.943  0.0126  0.0882  0.0951
 1046YOPC   NC313685  16.237   6.585   6.120 -0.0709  0.2198  0.2103
 1046YOPC   PO413686  16.527   6.891   6.328  0.1354 -0.1811 -0.1022
 1046YOPC   GL113687  16.565   7.170   6.675  0.1950  0.0936  0.3752
 1046YOPC   GL213688  16.231   7.159   6.696  0.2585 -0.0298  0.0879
 1046YOPC   C1A13689  16.623   7.274   7.026 -0.3428  0.0775  0.0171
 1046YOPC   D2A13690  16.300   7.464   7.241 -0.1087  0.0315  0.1146
 1046YOPC   C3A13691  15.970   7.155   7.458 -0.3882  0.1061  0.2453
 1046YOPC   C4A13692  15.884   6.801   7.550  0.0848  0.2202 -0.3094
 1046YOPC   C1B13693  15.838   7.051   6.821 -0.0304  0.4812  0.2361
 1046YOPC   C2B13694  15.556   7.058   7.172 -0.2647  0.1462 -0.4507
 1046YOPC   D3B13695  15.531   7.285   7.560 -0.2153 -0.2460  0.0049
 1046YOPC   C4B13696  15.375   7.371   7.972  0.2261 -0.2854 -0.1114
 1047YOPC   NC313697   7.915  12.336   5.938 -0.0937  0.2841  0.1657
 1047YOPC   PO413698   8.078  12.042   5.953  0.2375 -0.1115 -0.1391
 1047YOPC   GL113699   8.297  12.283   6.301  0.3042 -0.2809 -0.1661
 1047YOPC   GL213700   8.710  12.204   6.399  0.0075  0.0581  0.1383
 1047YOPC   C1A13701   8.303  12.299   6.768  0.0204  0.0429 -0.4020
 1047YOPC   D2A13702   7.985  12.059   7.098  0.0745  0.0795 -0.0844
 1047YOPC   C3A13703   7.580  12.031   6.921 -0.0688  0.0339  0.1311
 1047YOPC   C4A13704   7.177  11.884   6.738 -0.0618 -0.1693  0.0867
 1047YOPC   C1B13705   8.894  11.988   6.737 -0.2192 -0.2368 -0.1794
 1047YOPC   C2B13706   9.003  12.013   7.149 -0.1351 -0.1497  0.2492
 1047YOPC   D3B13707   8.763  11.857   7.461  0.1231 -0.0521  0.0390
 1047YOPC   C4B13708   8.574  11.426   7.407  0.1257  0.1462  0.0440
 1048YOPC   NC313709   8.859  14.938   5.908  0.4731  0.0238  0.3016
 1048YOPC   PO413710   8.961  15.330   6.017  0.1180 -0.0344  0.1762
 1048YOPC   GL113711   9.130  15.148   6.357  0.0139  0.1159  0.1034
 1048YOPC   GL213712   9.331  15.400   6.359  0.0187 -0.0635  0.0603
 1048YOPC   C1A13713   9.056  14.974   6.682 -0.0331  0.0895 -0.2302
 1048YOPC   D2A13714   8.864  14.729   7.052  0.0683 -0.2734  0.3316
 1048YOPC   C3A13715   8.893  14.629   7.528  0.7703  0.2023  0.0743
 1048YOPC   C4A13716   9.026  14.902   7.821 -0.2356 -0.0689 -0.3410
 1048YOPC   C1B13717   9.529  15.604   6.703 -0.0850 -0.1808 -0.1556
 1048YOPC   C2B13718   9.383  15.691   7.139 -0.4181 -0.3215 -0.1179
 1048YOPC   D3B13719   9.630  15.832   7.465  0.0529  0.0552 -0.1038
 1048YOPC   C4B13720   9.928  15.931   7.605  0.2275  0.1875 -0.1235
 1049YOPC   NC313721   9.222   7.769   5.455 -0.1391  0.3275  0.1068
 1049YOPC   PO413722   9.618   7.847   5.722  0.2920 -0.1485 -0.0461
 1049YOPC   GL113723   9.585   7.886   6.196  0.0669  0.2493  0.1854
 1049YOPC   GL213724   9.800   8.123   6.241  0.2672  0.0389 -0.0745
 1049YOPC   C1A13725   9.537   7.832   6.620 -0.1898  0.1441  0.1641
 1049YOPC   D2A13726   9.223   7.661   6.857 -0.4179  0.0373  0.1607
 1049YOPC   C3A13727   9.476   7.491   7.242  0.0588  0.0515 -0.0641
 1049YOPC   C4A13728   9.847   7.355   7.399 -0.2656  0.0753  0.0278
 1049YOPC   C1B13729   9.907   8.154   6.678 -0.0768 -0.0963  0.3162
 1049YOPC   C2B13730  10.113   8.182   7.033  0.1127 -0.1712  0.1116
 1049YOPC   D3B13731   9.912   8.339   7.335 -0.0591 -0.1318 -0.0891
 1049YOPC   C4B13732   9.885   8.633   7.731  0.0942  0.0943 -0.0290
 1050YOPC   NC313733  17.482   2.514   6.315 -0.3623  0.1674 -0.2369
 1050YOPC   PO413734  17.052   2.515   6.455  0.0182 -0.1092  0.0513
 1050YOPC   GL113735  17.115   2.408   6.834  0.0315 -0.2573  0.2419
 1050YOPC   GL213736  17.431   2.331   6.816 -0.0561  0.2480  0.1814
 1050YOPC   C1A13737  17.014   2.529   7.227  0.0139 -0.2273  0.0848
 1050YOPC   D2A13738  17.173   2.617   7.628 -0.0188  0.1472 -0.2376
 1050YOPC   C3A13739  16.945   2.588   8.093 -0.2795  0.1050  0.1856
 1050YOPC   C4A13740  16.639   2.481   8.439 -0.2876  0.0125  0.0406
 1050YOPC   C1B13741  17.449   2.365   7.204  0.0420  0.1961 -0.0167
 1050YOPC   C2B13742  17.574   2.333   7.550 -0.0598 -0.0703 -0.3071
 1050YOPC   D3B13743  17.366   2.331   7.964 -0.1645  0.0184 -0.2277
 1050YOPC   C4B13744  17.297   2.542   8.409  0.0072  0.1043  0.1291
 1051YOPC   NC313745  11.529   4.204   5.787  0.0265 -0.0159  0.4752
 1051YOPC   PO413746  11.353   3.836   5.784 -0.1857  0.2099  0.3919
 1051YOPC   GL113747  10.973   3.841   5.967 -0.0719 -0.0352 -0.1110
 1051YOPC   GL213748  11.136   3.847   6.285  0.1957  0.1920 -0.1064
 1051YOPC   C1A13749  10.656   3.605   6.224  0.1136  0.0753 -0.0268
 1051YOPC   D2A13750  10.599   3.342   6.615  0.2056  0.2420 -0.2610
 1051YOPC   C3A13751  10.815   3.250   6.917  0.1791  0.0364  0.1839
 1051YOPC   C4A13752  10.901   3.363   7.286  0.1495 -0.0153  0.1190
 1051YOPC   C1B13753  11.091   3.675   6.721  0.2763  0.0141 -0.2474
 1051YOPC   C2B13754  11.252   3.429   6.987  0.3474 -0.0020  0.3312
 1051YOPC   D3B13755  11.646   3.391   6.957  0.0545 -0.1231 -0.1270
 1051YOPC   C4B13756  11.850   3.100   6.802  0.3451  0.0854  0.1531
 1052YOPC   NC313757   7.236  16.546   6.227 -0.0631  0.3977  0.2730
 1052YOPC   PO413758   7.455  16.265   6.260  0.1621 -0.3181  0.3054
 1052YOPC   GL113759   7.378  15.995   6.660 -0.1078 -0.1909  0.0072
 1052YOPC   GL213760   7.519  15.700   6.646 -0.3162 -0.2736  0.0283
 1052YOPC   C1A13761   7.110  15.571   6.845  0.3136  0.1167  0.3312
 1052YOPC   D2A13762   7.162  15.411   7.265 -0.0109 -0.1622  0.0052
 1052YOPC   C3A13763   6.767  15.515   7.293 -0.2207 -0.2000  0.0754
 1052YOPC   C4A13764   6.497  15.808   7.404  0.4735  0.4096 -0.2063
 1052YOPC   C1B13765   7.579  15.464   7.047  0.3137  0.0483 -0.1526
 1052YOPC   C2B13766   7.763  15.394   7.526 -0.3470 -0.0428  0.0683
 1052YOPC   D3B13767   7.381  15.435   7.781 -0.1872 -0.0759  0.1719
 1052YOPC   C4B13768   7.169  15.198   8.023  0.3797 -0.0125  0.1033
 1053YOPC   NC313769   5.131  11.084   5.796 -0.0590 -0.1250  0.3882
 1053YOPC   PO413770   4.720  11.008   5.793  0.1636  0.1137  0.1689
 1053YOPC   GL113771   4.707  11.294   6.112 -0.1252 -0.0427 -0.1821
 1053YOPC   GL213772   4.425  11.274   6.171  0.1959  0.2233 -0.1766
 1053YOPC   C1A13773   4.874  11.489   6.514 -0.0255  0.2615 -0.0086
 1053YOPC   D2A13774   4.995  11.645   6.957  0.2103  0.1163 -0.0371
 1053YOPC   C3A13775   4.864  11.824   7.270 -0.0913 -0.2904 -0.1647
 1053YOPC   C4A13776   4.457  12.111   7.309  0.0356 -0.1482  0.0111
 1053YOPC   C1B13777   4.025  11.244   6.343 -0.0344 -0.2032 -0.0144
 1053YOPC   C2B13778   3.753  11.016   6.596  0.2981 -0.1742 -0.4800
 1053YOPC   D3B13779   3.670  11.105   7.041  0.1265  0.2424  0.1131
 1053YOPC   C4B13780   3.621  11.144   7.421  0.0136 -0.1999 -0.0912
 1054YOPC   NC313781  13.417  10.395   5.828  0.1469  0.1472 -0.1635
 1054YOPC   PO413782  13.529  10.777   6.140 -0.0555  0.0928  0.1240
 1054YOPC   GL113783  13.487  10.496   6.448  0.3274 -0.1484 -0.3511
 1054YOPC   GL213784  13.617  10.262   6.507 -0.0367 -0.1193  0.0202
 1054YOPC   C1A13785  13.343  10.752   6.775  0.0561 -0.0164  0.0261
 1054YOPC   D2A13786  13.455  10.842   7.197 -0.0012 -0.2088 -0.0069
 1054YOPC   C3A13787  13.137  10.827   7.550 -0.1131 -0.0074  0.0991
 1054YOPC   C4A13788  13.292  10.793   7.948  0.0686  0.0405 -0.3126
 1054YOPC   C1B13789  13.588   9.943   6.857 -0.2301  0.2740  0.2602
 1054YOPC   C2B13790  13.395   9.630   6.989 -0.2305 -0.0876 -0.1497
 1054YOPC   D3B13791  13.447   9.517   7.373 -0.1628 -0.4374 -0.0792
 1054YOPC   C4B13792  13.253   9.379   7.763  0.2039  0.1326 -0.0576
 1055YOPC   NC313793   6.068   3.395   5.601 -0.1036 -0.2504  0.2799
 1055YOPC   PO413794   5.700   3.157   5.741  0.0612  0.2501 -0.0943
 1055YOPC   GL113795   5.519   3.358   6.114  0.0192  0.0230  0.0709
 1055YOPC   GL213796   5.286   3.281   6.392 -0.2387 -0.3673  0.0021
 1055YOPC   C1A13797   5.787   3.638   6.436  0.4077  0.0030  0.2270
 1055YOPC   D2A13798   5.731   3.766   6.827 -0.4402 -0.0024 -0.4856
 1055YOPC   C3A13799   5.519   3.571   7.124  0.1535  0.1983  0.0815
 1055YOPC   C4A13800   5.571   3.569   7.536 -0.2391 -0.0195  0.0653
 1055YOPC   C1B13801   5.596   3.281   6.696 -0.2039  0.1191 -0.2428
 1055YOPC   C2B13802   5.864   3.076   7.125 -0.0189  0.2096 -0.2296
 1055YOPC   D3B13803   5.952   3.142   7.502 -0.0558  0.1290  0.4713
 1055YOPC   C4B13804   5.972   3.408   7.797  0.0347 -0.0276  0.2574
 1056YOPC   NC313805  10.699  15.106   6.129 -0.0789 -0.1115  0.2755
 1056YOPC   PO413806  10.661  14.762   6.263  0.2867 -0.5507 -0.0712
 1056YOPC   GL113807  10.556  14.659   6.625  0.4389 -0.1655 -0.0821
 1056YOPC   GL213808  10.753  14.366   6.676  0.0860  0.0738  0.1723
 1056YOPC   C1A13809  10.533  14.808   7.041 -0.1982  0.1094 -0.1000
 1056YOPC   D2A13810  10.281  15.047   7.296 -0.0675 -0.2441  0.2676
 1056YOPC   C3A13811  10.292  14.704   7.649 -0.0792 -0.2151  0.1100
 1056YOPC   C4A13812  10.009  14.847   7.929  0.1375 -0.1702  0.0141
 1056YOPC   C1B13813  10.268  14.358   6.871  0.0371 -0.0560 -0.0578
 1056YOPC   C2B13814  10.308  14.405   7.316 -0.2936  0.3242  0.3323
 1056YOPC   D3B13815  10.721  14.256   7.531  0.2597  0.3658 -0.1193
 1056YOPC   C4B13816  11.138  14.274   7.534 -0.1481  0.1315 -0.1837
 1057YOPC   NC313817   9.983  16.313   5.677  0.1320  0.0281  0.0370
 1057YOPC   PO413818   9.590  16.609   5.807  0.2123  0.2585  0.1470
 1057YOPC   GL113819   9.641  16.613   6.320  0.1416  0.0473  0.0454
 1057YOPC   GL213820   9.368  16.762   6.474  0.1883 -0.2374 -0.2064
 1057YOPC   C1A13821  10.100  16.708   6.549  0.0849 -0.0472  0.0561
 1057YOPC   D2A13822  10.451  16.659   6.689  0.0702 -0.1034 -0.0936
 1057YOPC   C3A13823  10.599  16.471   7.045  0.0394 -0.1763  0.2271
 1057YOPC   C4A13824  10.773  16.485   7.471  0.2629 -0.1475 -0.2021
 1057YOPC   C1B13825   9.326  16.825   7.009 -0.1085  0.0303 -0.2383
 1057YOPC   C2B13826   9.346  16.721   7.421 -0.2027 -0.0748 -0.1939
 1057YOPC   D3B13827   9.406  16.911   7.831 -0.0610 -0.0976  0.0254
 1057YOPC   C4B13828   9.681  17.006   8.117  0.0499 -0.2459 -0.2360
 1058YOPC   NC313829  17.463  17.047   5.903 -0.1955  0.3874  0.3410
 1058YOPC   PO413830  17.859  16.807   5.774  0.3812  0.1040  0.3524
 1058YOPC   GL113831  17.846  16.738   6.168 -0.2357 -0.2768 -0.0360
 1058YOPC   GL213832  17.771  17.096   6.400  0.0323  0.1308  0.0467
 1058YOPC   C1A13833  17.769  16.725   6.692 -0.1141 -0.2254 -0.1635
 1058YOPC   D2A13834  17.948  16.641   7.012  0.0322 -0.2548 -0.3714
 1058YOPC   C3A13835  18.068  16.815   7.339 -0.1207 -0.2039 -0.0855
 1058YOPC   C4A13836  17.939  17.098   7.765  0.2516 -0.0943 -0.2760
 1058YOPC   C1B13837  17.424  17.246   6.756 -0.2408 -0.0562  0.0318
 1058YOPC   C2B13838  17.024  17.143   7.143 -0.0481  0.2291  0.5050
 1058YOPC   D3B13839  16.815  17.165   7.532  0.2584 -0.0252 -0.0054
 1058YOPC   C4B13840  16.719  17.155   7.915 -0.0503 -0.1340  0.1138
 1059YOPC   NC313841   4.954   1.247   6.252  0.0172  0.0115  0.4216
 1059YOPC   PO413842   4.448   1.154   6.185 -0.1610  0.0902  0.1347
 1059YOPC   GL113843   4.451   1.233   6.639  0.1348 -0.0924 -0.0334
 1059YOPC   GL213844   4.689   1.017   6.887 -0.0832 -0.1338 -0.0496
 1059YOPC   C1A13845   4.250   1.202   6.966  0.3093  0.1193 -0.0914
 1059YOPC   D2A13846   3.985   1.179   7.307 -0.0901  0.2402  0.1023
 1059YOPC   C3A13847   4.235   1.219   7.735  0.1109  0.0615 -0.0297
 1059YOPC   C4A13848   4.282   1.215   8.131 -0.0083  0.0429  0.0270
 1059YOPC   C1B13849   4.727   1.161   7.190 -0.0166 -0.0770  0.0064
 1059YOPC   C2B13850   4.669   0.985   7.527  0.0639  0.2347 -0.3372
 1059YOPC   D3B13851   4.754   1.117   7.890 -0.3692 -0.1487  0.2850
 1059YOPC   C4B13852   5.079   1.375   7.999 -0.2373 -0.0710  0.6451
 1060YOPC   NC313853   3.908  17.947   6.083  0.0284  0.1964  0.0498
 1060YOPC   PO413854   3.676  18.276   6.147 -0.0153 -0.0063  0.1548
 1060YOPC   GL113855   3.753  18.233   6.629 -0.0623  0.0376  0.1411
 1060YOPC   GL213856   3.907  17.879   6.587  0.2465 -0.1314  0.0952
 1060YOPC   C1A13857   3.824  18.188   7.045 -0.1573  0.1202 -0.0447
 1060YOPC   D2A13858   3.865  17.909   7.417  0.1188  0.1441  0.2325
 1060YOPC   C3A13859   3.729  18.060   7.830 -0.0108  0.7358  0.0975
 1060YOPC   C4A13860   3.820  18.426   8.194 -0.0912 -0.0693 -0.2701
 1060YOPC   C1B13861   3.892  17.665   6.946 -0.2440 -0.1853 -0.1378
 1060YOPC   C2B13862   3.981  17.414   7.263 -0.1518  0.2632  0.0147
 1060YOPC   D3B13863   4.086  17.476   7.635 -0.3732 -0.2298 -0.0608
 1060YOPC   C4B13864   3.956  17.656   8.024 -0.1998 -0.2159 -0.0323
 1061YOPC   NC313865   5.824  10.083   5.679 -0.0496  0.0875 -0.0715
 1061YOPC   PO413866   5.506  10.250   5.823 -0.3263 -0.0542  0.1492
 1061YOPC   GL113867   5.552   9.980   6.137 -0.3380 -0.0097 -0.0403
 1061YOPC   GL213868   5.823   9.925   6.254 -0.0754 -0.1707  0.2373
 1061YOPC   C1A13869   5.235   9.665   6.323  0.2371 -0.2365 -0.0765
 1061YOPC   D2A13870   5.012   9.260   6.539 -0.0678 -0.0176  0.0337
 1061YOPC   C3A13871   5.031   9.237   6.962  0.0444 -0.0960  0.0181
 1061YOPC   C4A13872   5.201   9.424   7.277  0.2419  0.3523 -0.0148
 1061YOPC   C1B13873   5.827   9.799   6.734 -0.0129  0.1764 -0.0599
 1061YOPC   C2B13874   5.573   9.959   7.148 -0.2498 -0.1757  0.1085
 1061YOPC   D3B13875   5.644   9.662   7.368  0.1127  0.1550 -0.4415
 1061YOPC   C4B13876   5.544   9.379   7.698 -0.1718 -0.0550  0.0895
 1062YOPC   NC313877   1.021   4.045   5.901  0.1262  0.0808  0.1119
 1062YOPC   PO413878   0.941   4.447   5.948 -0.3368  0.0059 -0.0425
 1062YOPC   GL113879   0.922   4.471   6.410 -0.2023 -0.3545 -0.2835
 1062YOPC   GL213880   1.115   4.209   6.391 -0.4149 -0.0812 -0.1645
 1062YOPC   C1A13881   1.153   4.549   6.824 -0.0112  0.1630 -0.1306
 1062YOPC   D2A13882   1.491   4.590   7.033 -0.2517 -0.2253 -0.1390
 1062YOPC   C3A13883   1.796   4.738   6.870  0.0815 -0.1979 -0.0258
 1062YOPC   C4A13884   1.899   5.045   6.709  0.2987  0.0711 -0.0003
 1062YOPC   C1B13885   0.914   4.040   6.769 -0.0084  0.2176 -0.1985
 1062YOPC   C2B13886   0.846   3.942   7.166  0.0786  0.0700  0.3155
 1062YOPC   D3B13887   1.196   3.749   7.381  0.2786 -0.2213  0.2042
 1062YOPC   C4B13888   1.361   3.695   7.842  0.1342  0.1917 -0.2440
 1063YOPC   NC313889  10.703  10.379   5.869 -0.1018  0.0001  0.1226
 1063YOPC   PO413890  10.968  10.575   6.048 -0.1435 -0.0065  0.0656
 1063YOPC   GL113891  11.003  10.569   6.517 -0.1491 -0.1011  0.0579
 1063YOPC   GL213892  11.268  10.778   6.723  0.1247  0.3260  0.1044
 1063YOPC   C1A13893  10.906  10.368   6.921  0.1702 -0.2464  0.1185
 1063YOPC   D2A13894  10.803  10.083   7.436  0.2351 -0.1519  0.1809
 1063YOPC   C3A13895  10.465   9.818   7.536 -0.2122  0.0910 -0.2044
 1063YOPC   C4A13896  10.148   9.546   7.642 -0.0706 -0.3318  0.1757
 1063YOPC   C1B13897  11.391  10.650   7.181 -0.0451 -0.1976  0.1268
 1063YOPC   C2B13898  11.730  10.404   7.526  0.0959  0.1720 -0.0556
 1063YOPC   D3B13899  11.542  10.047   7.796  0.0452 -0.2299 -0.2264
 1063YOPC   C4B13900  11.671   9.642   8.012 -0.0380  0.0191  0.1516
 1064YOPC   NC313901   2.500  15.998   5.686 -0.4519  0.2262 -0.0965
 1064YOPC   PO413902   2.199  15.612   5.907  0.2511 -0.0598  0.0074
 1064YOPC   GL113903   2.057  15.709   6.350  0.1593  0.2553 -0.0459
 1064YOPC   GL213904   1.953  15.377   6.401  0.0993 -0.2684  0.1751
 1064YOPC   C1A13905   2.331  15.544   6.738  0.1798 -0.0506 -0.2283
 1064YOPC   D2A13906   2.532  15.777   7.056 -0.2213  0.0025  0.2734
 1064YOPC   C3A13907   2.440  15.671   7.478 -0.1127  0.3853  0.0289
 1064YOPC   C4A13908   2.335  15.710   7.749 -0.3322  0.2239 -0.0626
 1064YOPC   C1B13909   1.829  15.461   6.769  0.2305  0.2015  0.1497
 1064YOPC   C2B13910   1.750  15.297   7.134 -0.1049 -0.1524 -0.0374
 1064YOPC   D3B13911   2.197  15.259   7.403 -0.0210 -0.1137  0.3166
 1064YOPC   C4B13912   2.094  15.303   7.770 -0.0993  0.1669 -0.0854
 1065YOPC   NC313913  13.883  14.430   5.894  0.2414  0.0877  0.1042
 1065YOPC   PO413914  13.938  14.894   5.785 -0.0621 -0.2136  0.2165
 1065YOPC   GL113915  13.853  14.985   6.234 -0.0913  0.3122  0.1080
 1065YOPC   GL213916  13.578  15.091   6.276 -0.3738 -0.0218  0.1191
 1065YOPC   C1A13917  14.077  14.876   6.601 -0.1797 -0.2822  0.0286
 1065YOPC   D2A13918  14.297  14.942   6.904  0.1668 -0.0379  0.0220
 1065YOPC   C3A13919  14.575  15.203   6.891  0.3291 -0.0504  0.0410
 1065YOPC   C4A13920  14.742  15.609   6.722  0.0569 -0.3065 -0.0503
 1065YOPC   C1B13921  13.698  15.207   6.713  0.2167 -0.1346  0.1926
 1065YOPC   C2B13922  13.977  15.395   6.940  0.0083 -0.0618  0.0516
 1065YOPC   D3B13923  13.914  15.754   7.141  0.2005 -0.3136  0.0461
 1065YOPC   C4B13924  14.079  16.091   7.277 -0.2977  0.2119  0.4345
 1066YOPC   NC313925   4.097   6.324   5.804 -0.3567 -0.0835  0.1139
 1066YOPC   PO413926   4.408   6.027   5.987  0.5104 -0.0266 -0.1089
 1066YOPC   GL113927   4.550   5.820   6.374  0.3423  0.0652 -0.1911
 1066YOPC   GL213928   4.252   5.855   6.486 -0.0429  0.0664  0.0408
 1066YOPC   C1A13929   4.570   5.758   6.848 -0.1239 -0.1267 -0.3942
 1066YOPC   D2A13930   4.674   5.606   7.244 -0.0571 -0.1391  0.0871
 1066YOPC   C3A13931   4.724   5.825   7.592 -0.0154 -0.2374  0.3702
 1066YOPC   C4A13932   4.990   6.101   7.937  0.1001  0.0306  0.1821
 1066YOPC   C1B13933   4.281   5.451   6.563 -0.0862 -0.2679 -0.2338
 1066YOPC   C2B13934   4.582   5.327   6.496 -0.0417  0.0571  0.0469
 1066YOPC   D3B13935   4.977   5.533   6.629  0.2942 -0.2653 -0.3822
 1066YOPC   C4B13936   5.099   5.776   6.858 -0.0311  0.0931  0.2203
 1067YOPC   NC313937  16.949  16.336   6.000  0.0037  0.2872  0.1706
 1067YOPC   PO413938  16.611  16.177   5.763  0.1143  0.3062  0.0754
 1067YOPC   GL113939  16.375  15.964   6.143  0.1736  0.3473  0.0325
 1067YOPC   GL213940  16.040  16.138   6.053 -0.0094 -0.1095  0.1081
 1067YOPC   C1A13941  16.308  15.919   6.532 -0.0289 -0.3130  0.0722
 1067YOPC   D2A13942  16.206  16.156   6.912 -0.1861  0.2249  0.2437
 1067YOPC   C3A13943  15.843  16.265   7.020  0.2379 -0.1562 -0.0263
 1067YOPC   C4A13944  15.696  16.443   7.336 -0.1918 -0.2167 -0.2665
 1067YOPC   C1B13945  16.136  16.382   6.489 -0.0850  0.0778  0.0770
 1067YOPC   C2B13946  16.166  16.664   6.780  0.0742 -0.0906  0.0618
 1067YOPC   D3B13947  16.244  16.535   7.183  0.2077  0.1022  0.2736
 1067YOPC   C4B13948  16.114  16.099   7.423  0.0196 -0.0679 -0.0269
 1068YOPC   NC313949   6.537   2.872   5.650 -0.2395 -0.1152 -0.2178
 1068YOPC   PO413950   6.311   2.497   5.666 -0.0342  0.1452 -0.1992
 1068YOPC   GL113951   6.320   2.563   6.107 -0.2035 -0.1112  0.0289
 1068YOPC   GL213952   6.662   2.726   6.231  0.0744 -0.1542  0.2068
 1068YOPC   C1A13953   6.025   2.627   6.514  0.0274  0.1217 -0.0419
 1068YOPC   D2A13954   5.741   2.312   6.611  0.1495  0.0974 -0.1381
 1068YOPC   C3A13955   5.550   2.156   6.969  0.0727 -0.1047  0.0258
 1068YOPC   C4A13956   5.557   2.191   7.338 -0.1895 -0.2861 -0.1191
 1068YOPC   C1B13957   6.511   2.912   6.478 -0.2998  0.1124  0.4985
 1068YOPC   C2B13958   6.110   3.184   6.505  0.0896  0.0899 -0.0905
 1068YOPC   D3B13959   6.116   3.441   6.877 -0.2972  0.1184  0.1594
 1068YOPC   C4B13960   5.995   3.556   7.243 -0.0498  0.1382  0.2097
 1069YOPC   NC313961   9.193  16.942   5.800  0.2088  0.0503 -0.1375
 1069YOPC   PO413962   9.359  17.376   5.982  0.0165 -0.1734  0.0575
 1069YOPC   GL113963   9.391  17.729   6.282 -0.0982  0.1900  0.3466
 1069YOPC   GL213964   9.257  17.663   6.487  0.0255  0.1475 -0.0633
 1069YOPC   C1A13965   9.733  17.731   6.663 -0.0059 -0.0726 -0.0051
 1069YOPC   D2A13966   9.907  17.453   6.933  0.0707 -0.1219 -0.3122
 1069YOPC   C3A13967  10.141  17.502   7.303  0.2567  0.2679  0.1335
 1069YOPC   C4A13968  10.315  17.463   7.619  0.3668  0.1176  0.0696
 1069YOPC   C1B13969   9.321  17.909   6.868 -0.0907 -0.0932 -0.3081
 1069YOPC   C2B13970   9.734  17.868   7.189  0.0386 -0.0159 -0.1075
 1069YOPC   D3B13971   9.944  17.897   7.602  0.0881  0.1179  0.2714
 1069YOPC   C4B13972   9.714  17.913   8.050  0.4219 -0.1085  0.0964
 1070YOPC   NC313973  17.318  11.121   6.157 -0.0488 -0.0841  0.3546
 1070YOPC   PO413974  17.766  11.116   6.362 -0.2978  0.0384  0.0910
 1070YOPC   GL113975  17.938  11.292   6.700 -0.2373  0.2370 -0.0080
 1070YOPC   GL213976  18.222  11.628   6.646  0.0605  0.3966 -0.0560
 1070YOPC   C1A13977  18.058  11.118   7.175  0.2581  0.1646 -0.1272
 1070YOPC   D2A13978  17.937  10.997   7.632 -0.0403 -0.1864 -0.3163
 1070YOPC   C3A13979  18.320  11.042   7.929  0.0683 -0.0987  0.3004
 1070YOPC   C4A13980  18.520  11.318   8.100  0.0282  0.1250 -0.1288
 1070YOPC   C1B13981  18.197  11.595   7.042 -0.1596  0.0097 -0.0328
 1070YOPC   C2B13982  17.839  11.645   7.390 -0.0205  0.2430  0.3665
 1070YOPC   D3B13983  17.574  11.313   7.385  0.2089 -0.0449 -0.3063
 1070YOPC   C4B13984  17.537  11.121   7.079 -0.0116  0.2824 -0.2156
 1071YOPC   NC313985   6.514  14.213   5.561 -0.1806  0.2092  0.0808
 1071YOPC   PO413986   6.148  14.099   5.602  0.0303  0.2531  0.0360
 1071YOPC   GL113987   5.841  13.943   5.914 -0.1656  0.1298  0.2351
 1071YOPC   GL213988   5.548  13.785   5.879 -0.0343  0.2295 -0.1156
 1071YOPC   C1A13989   5.865  13.921   6.349  0.3633 -0.0125 -0.1183
 1071YOPC   D2A13990   5.538  13.988   6.793  0.2500 -0.1872 -0.1352
 1071YOPC   C3A13991   5.448  13.704   7.149 -0.3827  0.2401 -0.3891
 1071YOPC   C4A13992   5.550  13.375   7.360 -0.2272  0.0600 -0.2440
 1071YOPC   C1B13993   5.384  13.856   6.301 -0.0867  0.1423 -0.0850
 1071YOPC   C2B13994   5.259  13.581   6.610 -0.0749  0.0943 -0.1280
 1071YOPC   D3B13995   5.202  13.342   6.840  0.1312  0.0798  0.2591
 1071YOPC   C4B13996   5.539  13.086   6.920  0.2109 -0.0521 -0.1476
 1072YOPC   NC313997   4.546  13.943   5.646  0.2078  0.1917 -0.2932
 1072YOPC   PO413998   4.244  13.853   5.629 -0.0384 -0.0000 -0.2673
 1072YOPC   GL113999   4.260  13.824   6.127  0.2082 -0.1124  0.1156
 1072YOPC   GL214000   4.062  13.522   6.212 -0.0182  0.4415  0.1988
 1072YOPC   C1A14001   4.465  13.897   6.497 -0.2465 -0.3024 -0.1614
 1072YOPC   D2A14002   4.484  13.692   6.940  0.0988  0.0561 -0.0634
 1072YOPC   C3A14003   4.446  13.767   7.391  0.0306 -0.1455 -0.1304
 1072YOPC   C4A14004   4.311  13.961   7.694  0.3997 -0.0754 -0.1104
 1072YOPC   C1B14005   4.113  13.489   6.582  0.1933 -0.3013  0.1365
 1072YOPC   C2B14006   4.058  13.505   7.071  0.1920 -0.0904 -0.0317
 1072YOPC   D3B14007   4.373  13.257   7.276 -0.2014 -0.1174 -0.1667
 1072YOPC   C4B14008   4.497  12.904   7.633  0.0462 -0.0667  0.0068
 1073YOPC   NC314009  13.842  17.963   5.727 -0.3341  0.2643 -0.1183
 1073YOPC   PO414010  13.629  17.579   5.828 -0.1017  0.2088 -0.3512
 1073YOPC   GL114011  13.672  17.680   6.178 -0.2387  0.2770  0.1927
 1073YOPC   GL214012  13.338  17.595   6.386  0.1283  0.0116  0.2112
 1073YOPC   C1A14013  13.839  17.812   6.521 -0.0647  0.0406  0.0686
 1073YOPC   D2A14014  13.759  17.811   6.972 -0.1387  0.0764  0.0689
 1073YOPC   C3A14015  14.131  17.822   7.240  0.0630 -0.0124  0.0804
 1073YOPC   C4A14016  14.337  17.505   7.682  0.1602  0.0776  0.0966
 1073YOPC   C1B14017  13.358  17.492   6.845 -0.2053 -0.1761  0.0279
 1073YOPC   C2B14018  13.020  17.480   7.148  0.1525  0.0545  0.0752
 1073YOPC   D3B14019  13.030  17.606   7.643 -0.3098 -0.2236  0.1340
 1073YOPC   C4B14020  13.249  17.932   7.896  0.2073 -0.0142 -0.0416
 1074YOPC   NC314021  10.955   4.179   5.586  0.3898 -0.0620 -0.4187
 1074YOPC   PO414022  11.148   4.373   5.969 -0.0550  0.1403 -0.0522
 1074YOPC   GL114023  11.474   4.294   6.272 -0.3013 -0.3328 -0.1515
 1074YOPC   GL214024  11.640   4.024   6.279  0.2149  0.4795 -0.1221
 1074YOPC   C1A14025  11.368   4.366   6.724 -0.4723  0.0770 -0.0571
 1074YOPC   D2A14026  11.418   4.597   7.187  0.1142  0.4666 -0.0876
 1074YOPC   C3A14027  11.039   4.434   7.397 -0.1283 -0.0084  0.0915
 1074YOPC   C4A14028  10.640   4.378   7.636 -0.0842 -0.0134  0.0735
 1074YOPC   C1B14029  11.897   4.279   6.608  0.1778  0.1887 -0.0910
 1074YOPC   C2B14030  11.799   4.563   6.892  0.2138  0.1600 -0.2124
 1074YOPC   D3B14031  11.855   4.468   7.379  0.0704  0.2138 -0.0326
 1074YOPC   C4B14032  11.709   4.504   7.809  0.2221 -0.1472 -0.1604
 1075YOPC   NC314033  13.396   3.777   5.863  0.0535 -0.2458  0.1752
 1075YOPC   PO414034  13.631   4.160   6.019  0.0695  0.0163 -0.1169
 1075YOPC   GL114035  13.759   4.194   6.456  0.2432 -0.0265  0.1522
 1075YOPC   GL214036  13.620   4.483   6.613  0.1005  0.3614 -0.1043
 1075YOPC   C1A14037  13.914   4.153   6.821 -0.1464 -0.1894  0.1768
 1075YOPC   D2A14038  14.044   4.292   7.198 -0.3566 -0.0518 -0.1022
 1075YOPC   C3A14039  14.017   4.252   7.536 -0.3822  0.2982 -0.1043
 1075YOPC   C4A14040  14.081   4.080   7.959  0.0026 -0.0129  0.1902
 1075YOPC   C1B14041  13.383   4.617   6.915 -0.1422 -0.1438 -0.1325
 1075YOPC   C2B14042  13.194   4.964   7.309  0.1342  0.1844 -0.0040
 1075YOPC   D3B14043  13.304   5.195   7.777 -0.1451 -0.2267  0.3645
 1075YOPC   C4B14044  13.156   5.599   8.106  0.0707 -0.2986  0.1605
 1076YOPC   NC314045   8.424  16.755   6.228  0.2667 -0.0696  0.0801
 1076YOPC   PO414046   8.114  16.857   6.480 -0.0885  0.4494 -0.0210
 1076YOPC   GL114047   8.279  16.552   6.690  0.3075 -0.2619  0.0881
 1076YOPC   GL214048   8.478  16.340   6.472 -0.1640 -0.2915 -0.1826
 1076YOPC   C1A14049   8.273  16.501   7.150  0.0100 -0.2038  0.1775
 1076YOPC   D2A14050   8.177  16.413   7.577 -0.1398 -0.0406  0.0262
 1076YOPC   C3A14051   8.464  16.336   7.825 -0.2988 -0.0132 -0.1156
 1076YOPC   C4A14052   8.886  16.145   7.893 -0.0437 -0.0526 -0.0011
 1076YOPC   C1B14053   8.507  16.148   6.889 -0.2661  0.0828 -0.2169
 1076YOPC   C2B14054   8.603  16.054   7.310 -0.1158 -0.0817  0.0028
 1076YOPC   D3B14055   8.236  15.924   7.480  0.1755  0.0823 -0.0321
 1076YOPC   C4B14056   7.971  15.789   7.701 -0.0012 -0.4201  0.1482
 1077YOPC   NC314057  10.044   6.794   5.502  0.0889 -0.2419  0.0446
 1077YOPC   PO414058   9.956   7.149   5.739 -0.0543 -0.2363  0.0778
 1077YOPC   GL114059   9.902   6.953   6.006 -0.1615 -0.1601  0.0065
 1077YOPC   GL214060  10.066   7.165   6.250  0.0141 -0.2643 -0.1754
 1077YOPC   C1A14061  10.035   6.725   6.403 -0.0577  0.1259  0.0537
 1077YOPC   D2A14062  10.084   6.641   6.902 -0.0019 -0.0857 -0.1987
 1077YOPC   C3A14063   9.949   6.891   7.238  0.0449  0.0547 -0.0541
 1077YOPC   C4A14064   9.993   6.905   7.637 -0.1014 -0.2566 -0.1378
 1077YOPC   C1B14065  10.227   7.061   6.735  0.3118 -0.1011  0.0624
 1077YOPC   C2B14066  10.243   7.336   7.072 -0.1829 -0.2147  0.0296
 1077YOPC   D3B14067  10.389   6.998   7.373 -0.0683 -0.2720 -0.2793
 1077YOPC   C4B14068  10.426   6.722   7.781 -0.2173 -0.1975  0.0042
 1078YOPC   NC314069   2.112   9.460   5.353 -0.1542  0.1132  0.1867
 1078YOPC   PO414070   1.684   9.274   5.541  0.0807  0.0801 -0.1096
 1078YOPC   GL114071   1.836   9.257   5.929  0.1365 -0.2303 -0.4162
 1078YOPC   GL214072   2.014   9.566   6.149 -0.1251  0.2805 -0.0806
 1078YOPC   C1A14073   1.603   9.274   6.354 -0.1494 -0.0231 -0.1431
 1078YOPC   D2A14074   1.532   9.094   6.724 -0.3024  0.0041 -0.2215
 1078YOPC   C3A14075   1.586   9.272   7.133  0.0669  0.4790 -0.0893
 1078YOPC   C4A14076   1.650   9.260   7.640 -0.0214  0.1419 -0.0744
 1078YOPC   C1B14077   2.039   9.416   6.506  0.0969  0.0947 -0.3009
 1078YOPC   C2B14078   2.078   8.968   6.624  0.3621  0.1713 -0.4300
 1078YOPC   D3B14079   1.900   8.912   6.971 -0.2877 -0.1816  0.1485
 1078YOPC   C4B14080   1.905   8.954   7.381  0.2748  0.0096 -0.0464
 1079YOPC   NC314081   5.457   9.247   5.451  0.0215  0.3498  0.1814
 1079YOPC   PO414082   5.343   8.833   5.643 -0.3663 -0.0109 -0.0527
 1079YOPC   GL114083   5.154   8.684   6.040  0.2892  0.0259  0.0931
 1079YOPC   GL214084   4.895   8.827   6.152 -0.0926  0.5263  0.1846
 1079YOPC   C1A14085   5.258   8.809   6.492  0.0882 -0.2413 -0.0736
 1079YOPC   D2A14086   5.529   8.902   6.864 -0.0371  0.2144  0.2263
 1079YOPC   C3A14087   5.338   8.850   7.183 -0.0312  0.1227 -0.1313
 1079YOPC   C4A14088   5.187   8.941   7.628  0.0529  0.1600  0.1273
 1079YOPC   C1B14089   4.568   8.945   6.443  0.0417  0.1978  0.2991
 1079YOPC   C2B14090   4.516   9.425   6.579  0.1898  0.2001  0.1549
 1079YOPC   D3B14091   4.553   9.406   7.024  0.0303 -0.0156  0.0567
 1079YOPC   C4B14092   4.647   9.597   7.394 -0.0071 -0.0887  0.1502
 1080YOPC   NC314093  12.590  15.497   5.989  0.0120 -0.1278 -0.0955
 1080YOPC   PO414094  12.447  16.061   6.051  0.1536  0.0039  0.1384
 1080YOPC   GL114095  12.551  15.823   6.426 -0.0518  0.0533  0.6022
 1080YOPC   GL214096  12.383  15.882   6.595  0.1304  0.2463  0.0983
 1080YOPC   C1A14097  12.730  15.707   6.870 -0.0255  0.0279 -0.0958
 1080YOPC   D2A14098  12.579  15.840   7.266 -0.1373 -0.2160  0.2994
 1080YOPC   C3A14099  12.875  16.123   7.565  0.0244 -0.2300 -0.0986
 1080YOPC   C4A14100  12.799  16.267   7.995  0.1324 -0.1009  0.3233
 1080YOPC   C1B14101  12.219  15.943   6.948 -0.0822 -0.2189 -0.0359
 1080YOPC   C2B14102  12.082  15.900   7.423  0.1421  0.0288 -0.0842
 1080YOPC   D3B14103  12.287  15.666   7.607 -0.2764 -0.0491 -0.4192
 1080YOPC   C4B14104  12.329  15.519   7.994 -0.0474  0.0933 -0.1696
 1081YOPC   NC314105  15.852  17.853   5.801 -0.0241  0.0207 -0.0588
 1081YOPC   PO414106  16.147  17.450   5.890  0.1714  0.2009 -0.1286
 1081YOPC   GL114107  16.389  17.304   6.140 -0.1399  0.1849 -0.0895
 1081YOPC   GL214108  16.479  17.481   6.395 -0.0481 -0.4028  0.0487
 1081YOPC   C1A14109  16.503  16.918   6.210 -0.0037  0.2703  0.3103
 1081YOPC   D2A14110  16.807  16.656   6.422  0.0792 -0.3325 -0.0283
 1081YOPC   C3A14111  16.628  16.412   6.808 -0.0407  0.2363  0.2468
 1081YOPC   C4A14112  16.660  16.271   7.292  0.5723 -0.1739 -0.0245
 1081YOPC   C1B14113  16.388  17.494   6.714  0.0123  0.0414  0.0094
 1081YOPC   C2B14114  16.583  17.448   7.043  0.0114 -0.2659 -0.0242
 1081YOPC   D3B14115  16.396  17.251   7.198  0.2798  0.1585  0.1809
 1081YOPC   C4B14116  16.121  16.998   7.228  0.0711  0.0252  0.1571
 1082YOPC   NC314117  14.119   2.498   5.797 -0.0185  0.0760  0.1230
 1082YOPC   PO414118  13.789   2.495   6.102  0.1992  0.0403  0.1558
 1082YOPC   GL114119  13.746   2.160   6.371  0.3587 -0.4015  0.2063
 1082YOPC   GL214120  13.742   2.410   6.753  0.1756  0.0001  0.0771
 1082YOPC   C1A14121  13.397   2.030   6.503  0.1967  0.0887  0.2534
 1082YOPC   D2A14122  13.112   1.835   6.802  0.1020 -0.1491 -0.2192
 1082YOPC   C3A14123  12.873   2.051   7.147  0.0401 -0.3162 -0.0289
 1082YOPC   C4A14124  12.840   2.181   7.611  0.1867  0.0617  0.0958
 1082YOPC   C1B14125  13.563   1.995   6.994 -0.0847 -0.2470 -0.2773
 1082YOPC   C2B14126  13.243   1.763   7.307  0.0661 -0.0305 -0.0012
 1082YOPC   D3B14127  13.428   1.571   7.652  0.0243 -0.1209  0.2460
 1082YOPC   C4B14128  13.688   1.564   7.906  0.1530  0.2646  0.3322
 1083YOPC   NC314129  11.438   8.072   5.905 -0.0067  0.0449  0.3333
 1083YOPC   PO414130  11.829   8.238   6.131  0.0069  0.4372 -0.1482
 1083YOPC   GL114131  11.775   8.332   6.508  0.1799 -0.1940 -0.0196
 1083YOPC   GL214132  11.511   8.566   6.584  0.2061 -0.0099  0.2894
 1083YOPC   C1A14133  11.634   8.245   6.956 -0.1190 -0.2707 -0.1090
 1083YOPC   D2A14134  11.334   8.513   7.220 -0.2018 -0.0403  0.1334
 1083YOPC   C3A14135  11.341   8.267   7.535  0.1054 -0.0173 -0.0376
 1083YOPC   C4A14136  11.045   8.161   7.761  0.0036 -0.0389 -0.0855
 1083YOPC   C1B14137  11.255   8.771   6.824  0.2793  0.1008  0.5882
 1083YOPC   C2B14138  10.904   8.643   6.996 -0.0158 -0.2704 -0.1012
 1083YOPC   D3B14139  10.841   8.588   7.516 -0.1466 -0.1251 -0.3363
 1083YOPC   C4B14140  11.009   8.670   7.960  0.1393 -0.0894  0.0050
 1084YOPC   NC314141   7.816  13.216   6.160 -0.1058  0.4407 -0.1928
 1084YOPC   PO414142   7.638  12.914   5.823  0.0617 -0.0182 -0.0092
 1084YOPC   GL114143   7.356  12.877   6.145  0.1055 -0.2156 -0.0525
 1084YOPC   GL214144   7.359  12.530   6.090  0.0480  0.0766  0.0982
 1084YOPC   C1A14145   7.446  12.841   6.575  0.1912 -0.0689 -0.1307
 1084YOPC   D2A14146   7.402  12.833   6.923  0.1068  0.0762  0.2030
 1084YOPC   C3A14147   7.616  12.920   7.203 -0.2702 -0.1071 -0.1431
 1084YOPC   C4A14148   7.867  13.081   6.964  0.1886 -0.1815  0.0711
 1084YOPC   C1B14149   7.316  12.354   6.547 -0.1470  0.0845  0.0068
 1084YOPC   C2B14150   7.269  12.369   6.903  0.0111 -0.1311  0.3044
 1084YOPC   D3B14151   7.161  12.571   7.308  0.1691  0.1720 -0.0037
 1084YOPC   C4B14152   7.439  12.720   7.640 -0.0033 -0.0187 -0.0814
 1085YOPC   NC314153   6.259   8.181   5.246 -0.0881  0.0652  0.0037
 1085YOPC   PO414154   6.519   8.291   5.564  0.1147 -0.0411 -0.0992
 1085YOPC   GL114155   6.466   8.500   5.853 -0.0058  0.4672  0.0521
 1085YOPC   GL214156   6.061   8.747   5.891  0.3504 -0.1964  0.1318
 1085YOPC   C1A14157   6.185   8.656   6.331 -0.1809  0.0829  0.2942
 1085YOPC   D2A14158   5.927   8.555   6.586  0.1555  0.0572  0.2315
 1085YOPC   C3A14159   6.031   8.430   7.045  0.0224 -0.0088 -0.3065
 1085YOPC   C4A14160   6.111   8.629   7.413  0.0416 -0.0879  0.0377
 1085YOPC   C1B14161   5.694   8.567   6.053 -0.1699 -0.0819  0.0222
 1085YOPC   C2B14162   5.612   8.174   6.328 -0.0442 -0.0736 -0.0634
 1085YOPC   D3B14163   5.742   8.096   6.708 -0.2397  0.0755 -0.1194
 1085YOPC   C4B14164   6.058   7.923   7.074  0.1565  0.0514  0.2883
 1086YOPC   NC314165   2.815  11.874   5.732  0.1897  0.0223  0.0839
 1086YOPC   PO414166   2.423  11.800   5.649 -0.0247 -0.0477 -0.1081
 1086YOPC   GL114167   2.342  11.554   5.943 -0.0394 -0.2411  0.5948
 1086YOPC   GL214168   2.346  11.759   6.198 -0.0120  0.0579 -0.1017
 1086YOPC   C1A14169   2.612  11.304   6.222 -0.0704 -0.0002  0.0246
 1086YOPC   D2A14170   2.890  11.011   6.386  0.0945  0.0637  0.2115
 1086YOPC   C3A14171   2.885  10.744   6.630 -0.1589  0.1269 -0.0228
 1086YOPC   C4A14172   2.964  10.538   7.062  0.0858  0.1031  0.1449
 1086YOPC   C1B14173   2.260  11.476   6.607 -0.0061  0.0032  0.3410
 1086YOPC   C2B14174   2.167  11.320   6.989 -0.1446 -0.1769  0.1493
 1086YOPC   D3B14175   2.070  11.519   7.302  0.3797  0.0269  0.1231
 1086YOPC   C4B14176   1.649  11.618   7.626  0.1407  0.3614  0.0251
 1087YOPC   NC314177  17.867   0.423   6.004  0.1273 -0.1296 -0.3266
 1087YOPC   PO414178  18.039   0.788   6.102  0.1164 -0.1234  0.0898
 1087YOPC   GL114179  18.114   1.041   6.547 -0.0104  0.1870  0.0767
 1087YOPC   GL214180  18.123   1.276   6.433 -0.4948  0.0453 -0.0660
 1087YOPC   C1A14181  18.187   1.239   6.975 -0.0151  0.2067 -0.1318
 1087YOPC   D2A14182  18.132   0.861   7.067  0.2623  0.2903  0.1162
 1087YOPC   C3A14183  18.319   0.707   7.448 -0.2970 -0.2581 -0.3161
 1087YOPC   C4A14184  18.583   0.729   7.854 -0.0155  0.0834  0.1544
 1087YOPC   C1B14185  18.115   1.609   6.643  0.3004 -0.0118  0.0358
 1087YOPC   C2B14186  18.341   2.026   6.810  0.0212 -0.0246  0.2608
 1087YOPC   D3B14187  18.674   2.079   7.227 -0.0968 -0.0325  0.0239
 1087YOPC   C4B14188  18.869   2.335   7.445 -0.3332  0.0176  0.3439
 1088YOPC   NC314189  14.786  16.165   5.339 -0.3903  0.2101  0.0621
 1088YOPC   PO414190  14.911  15.846   5.586  0.2098  0.0704 -0.1950
 1088YOPC   GL114191  15.035  15.958   6.040 -0.3345  0.0040 -0.3780
 1088YOPC   GL214192  14.797  15.728   6.236 -0.2101  0.1706 -0.0594
 1088YOPC   C1A14193  15.094  16.328   6.363  0.3462  0.0446  0.0118
 1088YOPC   D2A14194  14.817  16.637   6.410 -0.0143 -0.3158 -0.3513
 1088YOPC   C3A14195  14.466  16.529   6.716 -0.1454 -0.4660 -0.0472
 1088YOPC   C4A14196  14.341  16.511   7.082 -0.0861 -0.1288  0.0155
 1088YOPC   C1B14197  14.703  15.256   6.337  0.1514  0.0258  0.3635
 1088YOPC   C2B14198  14.580  14.824   6.487 -0.0799  0.0050 -0.1646
 1088YOPC   D3B14199  14.808  14.752   6.961  0.2333 -0.0886 -0.0264
 1088YOPC   C4B14200  14.908  14.680   7.442  0.1412 -0.2221  0.0990
 1089YOPC   NC314201   0.304   6.989   6.008 -0.0888  0.2231 -0.0011
 1089YOPC   PO414202   0.216   7.463   6.057 -0.2579  0.2996  0.0597
 1089YOPC   GL114203   0.275   7.442   6.458 -0.1055  0.1082 -0.1630
 1089YOPC   GL214204   0.171   7.691   6.590 -0.2475  0.3628 -0.0242
 1089YOPC   C1A14205   0.058   7.220   6.853  0.1597  0.1216 -0.1314
 1089YOPC   D2A14206   0.200   6.922   7.028 -0.0692  0.1104 -0.1476
 1089YOPC   C3A14207   0.177   7.006   7.508  0.3457  0.0862  0.3089
 1089YOPC   C4A14208   0.097   6.945   7.896 -0.0589  0.3494 -0.1405
 1089YOPC   C1B14209   0.214   7.694   6.972  0.1374  0.0747 -0.2971
 1089YOPC   C2B14210   0.461   7.795   7.235 -0.0883  0.1426 -0.1146
 1089YOPC   D3B14211   0.314   7.972   7.628  0.1882 -0.2244  0.1708
 1089YOPC   C4B14212   0.323   8.187   8.042  0.0674  0.1020 -0.0772
 1090YOPC   NC314213   6.354  16.857   6.338 -0.2961  0.0025  0.2587
 1090YOPC   PO414214   6.114  16.455   6.394 -0.0216  0.4763  0.4188
 1090YOPC   GL114215   6.112  16.255   6.818  0.0324 -0.2582 -0.0714
 1090YOPC   GL214216   6.119  15.973   6.807 -0.0712 -0.0193 -0.0448
 1090YOPC   C1A14217   6.034  16.138   7.217 -0.1460  0.1496 -0.0037
 1090YOPC   D2A14218   6.196  16.140   7.610 -0.0224  0.0996 -0.3318
 1090YOPC   C3A14219   6.550  15.853   7.888  0.1586 -0.0252  0.0445
 1090YOPC   C4A14220   6.746  15.478   7.806  0.2087 -0.0175  0.4402
 1090YOPC   C1B14221   6.021  15.610   6.668 -0.3325  0.1632  0.0403
 1090YOPC   C2B14222   5.829  15.212   6.689  0.4541 -0.0039  0.1106
 1090YOPC   D3B14223   5.489  15.190   6.901  0.0508  0.1074  0.3543
 1090YOPC   C4B14224   5.314  14.878   7.022  0.2329  0.0789  0.0697
 1091YOPC   NC314225   1.575   6.235   5.046 -0.0415  0.1896 -0.0514
 1091YOPC   PO414226   1.374   6.476   5.547 -0.3141 -0.2116 -0.1844
 1091YOPC   GL114227   1.452   6.724   5.962 -0.0654 -0.1046 -0.0476
 1091YOPC   GL214228   1.694   6.540   6.145  0.0275 -0.2199 -0.0139
 1091YOPC   C1A14229   1.367   6.749   6.454  0.2009 -0.1697 -0.3100
 1091YOPC   D2A14230   1.003   6.821   6.711  0.2261 -0.0731 -0.0040
 1091YOPC   C3A14231   1.297   6.739   6.976 -0.1773  0.0811 -0.0350
 1091YOPC   C4A14232   1.614   6.551   6.915 -0.1155  0.0548  0.0121
 1091YOPC   C1B14233   1.981   6.422   6.564  0.1279 -0.1383 -0.0037
 1091YOPC   C2B14234   2.168   6.669   6.861 -0.5035 -0.0248 -0.0551
 1091YOPC   D3B14235   2.275   6.533   7.316 -0.0550 -0.3720  0.0996
 1091YOPC   C4B14236   2.072   6.542   7.746 -0.0213  0.1696 -0.0006
 1092YOPC   NC314237   0.125  16.484   5.880 -0.0454 -0.2708  0.4079
 1092YOPC   PO414238   0.240  16.063   5.904  0.1399  0.0140  0.3955
 1092YOPC   GL114239   0.317  16.311   6.291 -0.2308 -0.1347  0.1339
 1092YOPC   GL214240   0.600  16.324   6.198  0.3080  0.1576  0.0080
 1092YOPC   C1A14241   0.226  16.674   6.621  0.2719 -0.2394  0.3139
 1092YOPC   D2A14242   0.273  16.981   6.984 -0.2136  0.0153  0.0943
 1092YOPC   C3A14243   0.467  16.771   7.385 -0.2749 -0.0071  0.0725
 1092YOPC   C4A14244   0.771  16.712   7.694 -0.0024  0.0432  0.1956
 1092YOPC   C1B14245   0.705  16.394   6.600  0.3043 -0.0071 -0.0549
 1092YOPC   C2B14246   0.447  16.481   6.983  0.0078 -0.2580 -0.0413
 1092YOPC   D3B14247   0.613  16.324   7.351 -0.3102 -0.2112 -0.1349
 1092YOPC   C4B14248   0.356  16.391   7.600  0.0552 -0.1429 -0.1598
 1093YOPC   NC314249  12.544   6.644   5.877  0.0183 -0.1394 -0.0782
 1093YOPC   PO414250  12.376   7.053   6.220  0.0958  0.0324  0.2171
 1093YOPC   GL114251  12.139   6.753   6.507  0.0595 -0.1009 -0.0191
 1093YOPC   GL214252  12.205   6.444   6.376  0.0894  0.3115 -0.0355
 1093YOPC   C1A14253  12.238   6.474   6.927  0.0184  0.1266  0.0871
 1093YOPC   D2A14254  12.599   6.306   7.105  0.5059  0.1262 -0.0694
 1093YOPC   C3A14255  12.716   6.284   7.512  0.0933 -0.0745  0.0445
 1093YOPC   C4A14256  13.075   6.225   7.958 -0.0497  0.1175  0.2655
 1093YOPC   C1B14257  12.432   6.156   6.509 -0.1176 -0.2002 -0.0901
 1093YOPC   C2B14258  12.618   5.819   6.382  0.1314  0.0857 -0.2900
 1093YOPC   D3B14259  12.738   5.343   6.604  0.2823 -0.2571 -0.1523
 1093YOPC   C4B14260  12.731   5.012   6.368  0.4380 -0.0084  0.4015
 1094YOPC   NC314261   9.022  15.983   5.936  0.0160  0.1937  0.1646
 1094YOPC   PO414262   8.800  16.192   6.153 -0.1864  0.0673 -0.0319
 1094YOPC   GL114263   8.871  16.062   6.562 -0.0659  0.0837 -0.1034
 1094YOPC   GL214264   9.090  15.833   6.460 -0.3690  0.1076  0.0695
 1094YOPC   C1A14265   9.012  15.994   6.952 -0.3266 -0.1137  0.1758
 1094YOPC   D2A14266   9.106  15.921   7.436 -0.1453 -0.0738  0.2980
 1094YOPC   C3A14267   9.333  16.161   7.654 -0.1389 -0.2178  0.0924
 1094YOPC   C4A14268   9.215  16.508   8.032 -0.0258  0.2164  0.0107
 1094YOPC   C1B14269   9.462  16.111   6.684  0.0454  0.0655  0.0556
 1094YOPC   C2B14270   9.699  16.476   6.809  0.2402 -0.0321  0.1302
 1094YOPC   D3B14271  10.067  16.421   6.969 -0.3298 -0.0102 -0.3951
 1094YOPC   C4B14272  10.118  16.366   7.397 -0.1648 -0.1372 -0.1573
 1095YOPC   NC314273   1.026  13.509   5.733 -0.0978  0.3829 -0.4165
 1095YOPC   PO414274   0.662  13.555   6.095 -0.3797 -0.0927 -0.0963
 1095YOPC   GL114275   0.660  13.736   6.461 -0.2248 -0.0397  0.0372
 1095YOPC   GL214276   0.772  14.029   6.603 -0.0006 -0.2326  0.0956
 1095YOPC   C1A14277   0.684  13.624   6.857 -0.0633 -0.0135 -0.2003
 1095YOPC   D2A14278   0.465  13.665   7.204 -0.1658 -0.2316  0.0290
 1095YOPC   C3A14279   0.511  13.459   7.618  0.0432 -0.1945 -0.1268
 1095YOPC   C4A14280   0.723  13.412   7.954  0.1468 -0.2352  0.1250
 1095YOPC   C1B14281   0.696  14.041   7.085 -0.3849 -0.2918 -0.1559
 1095YOPC   C2B14282   0.477  14.146   7.446  0.1649  0.1940 -0.2136
 1095YOPC   D3B14283   0.560  14.004   7.872  0.0457  0.0308  0.0230
 1095YOPC   C4B14284   0.625  13.861   8.119 -0.1788 -0.1518 -0.0663
 1096YOPC   NC314285   3.230   5.572   5.611 -0.1559  0.0717 -0.0746
 1096YOPC   PO414286   3.328   5.940   5.809  0.0429 -0.0878 -0.1310
 1096YOPC   GL114287   3.383   5.959   6.277 -0.3918  0.1540 -0.0227
 1096YOPC   GL214288   3.712   6.070   6.433  0.0371  0.2306  0.0344
 1096YOPC   C1A14289   3.360   5.781   6.710  0.0573  0.1093 -0.1175
 1096YOPC   D2A14290   3.465   5.640   7.099  0.1584 -0.0355 -0.0867
 1096YOPC   C3A14291   3.295   5.725   7.422 -0.1493 -0.0468 -0.2937
 1096YOPC   C4A14292   3.196   5.792   7.832 -0.2411 -0.2575  0.1150
 1096YOPC   C1B14293   3.807   6.210   6.901 -0.1344 -0.2063  0.1578
 1096YOPC   C2B14294   3.781   5.974   7.306  0.0945  0.1875  0.3082
 1096YOPC   D3B14295   3.507   6.207   7.588 -0.1585  0.1354 -0.1133
 1096YOPC   C4B14296   3.792   6.291   8.099  0.1697  0.1937 -0.0681
 1097YOPC   NC314297   6.426   7.088   5.899 -0.1113  0.2351  0.1136
 1097YOPC   PO414298   6.773   6.882   5.880 -0.0957  0.1072  0.0006
 1097YOPC   GL114299   6.754   7.032   6.385  0.1396 -0.0344  0.1944
 1097YOPC   GL214300   6.935   7.388   6.370 -0.4038 -0.0537 -0.0021
 1097YOPC   C1A14301   6.539   6.785   6.610  0.0508 -0.2871 -0.0431
 1097YOPC   D2A14302   6.477   6.625   7.011 -0.0798 -0.1562 -0.3832
 1097YOPC   C3A14303   6.552   6.129   7.176 -0.0266 -0.1356  0.0609
 1097YOPC   C4A14304   6.329   5.765   7.139  0.1393 -0.1471 -0.1322
 1097YOPC   C1B14305   6.952   7.195   6.794 -0.2799  0.1448  0.1387
 1097YOPC   C2B14306   6.559   7.131   7.091 -0.0809 -0.1803 -0.0992
 1097YOPC   D3B14307   6.608   6.859   7.432  0.1499  0.0427 -0.2383
 1097YOPC   C4B14308   6.898   6.706   7.749  0.0277 -0.1286  0.1859
 1098YOPC   NC314309  17.668   3.089   5.783  0.0984  0.2538 -0.0576
 1098YOPC   PO414310  18.162   3.149   5.999  0.1366 -0.1715 -0.2351
 1098YOPC   GL114311  18.235   3.148   6.357 -0.0881 -0.0890 -0.4018
 1098YOPC   GL214312  17.932   3.415   6.459  0.0365  0.2458 -0.1950
 1098YOPC   C1A14313  18.145   3.056   6.778 -0.1467 -0.3202 -0.1585
 1098YOPC   D2A14314  17.999   3.057   7.153 -0.2109 -0.1819 -0.1255
 1098YOPC   C3A14315  18.122   3.133   7.524  0.2189  0.2428 -0.1791
 1098YOPC   C4A14316  18.296   3.376   7.878  0.1802  0.2115 -0.0070
 1098YOPC   C1B14317  17.678   3.193   6.705  0.1928  0.0574 -0.2715
 1098YOPC   C2B14318  17.172   3.341   6.951  0.1264  0.0801  0.2002
 1098YOPC   D3B14319  17.048   3.757   6.896 -0.2482  0.1580 -0.4460
 1098YOPC   C4B14320  16.675   4.045   7.095  0.2364 -0.1484 -0.0815
 1099YOPC   NC314321   1.531  11.384   5.288 -0.0399  0.3395  0.2595
 1099YOPC   PO414322   1.326  11.227   5.590  0.0639  0.0407 -0.0158
 1099YOPC   GL114323   1.298  11.362   5.984  0.0740  0.2458  0.1317
 1099YOPC   GL214324   1.637  11.409   6.119 -0.4278 -0.1522  0.0282
 1099YOPC   C1A14325   1.144  11.516   6.417 -0.1032  0.0806 -0.1174
 1099YOPC   D2A14326   1.263  11.777   6.755 -0.0405  0.0319 -0.3897
 1099YOPC   C3A14327   1.241  11.888   7.157  0.2396 -0.0074  0.1661
 1099YOPC   C4A14328   1.391  12.037   7.539 -0.1294  0.1831  0.2249
 1099YOPC   C1B14329   1.594  11.761   6.405  0.2051 -0.1183  0.3568
 1099YOPC   C2B14330   1.542  12.168   6.719 -0.0437 -0.1205 -0.1004
 1099YOPC   D3B14331   1.754  12.146   7.195  0.1306 -0.1366  0.0100
 1099YOPC   C4B14332   1.867  12.063   7.669  0.0170 -0.1918  0.3135
 1100YOPC   NC314333   8.425  14.336   6.231 -0.1428 -0.1974 -0.2627
 1100YOPC   PO414334   8.383  14.830   6.297 -0.3035 -0.2964 -0.2235
 1100YOPC   GL114335   8.427  14.709   6.756  0.1050  0.0600 -0.1203
 1100YOPC   GL214336   8.641  14.305   6.742 -0.1607 -0.0245  0.2739
 1100YOPC   C1A14337   8.422  14.817   7.198 -0.0883 -0.2651 -0.0160
 1100YOPC   D2A14338   8.399  14.795   7.680 -0.0233  0.0331 -0.1294
 1100YOPC   C3A14339   8.098  14.537   7.883  0.0139  0.0306 -0.0553
 1100YOPC   C4A14340   7.690  14.544   8.135  0.1243 -0.0923  0.2556
 1100YOPC   C1B14341   8.522  14.337   7.236  0.1186 -0.3036  0.1227
 1100YOPC   C2B14342   8.439  14.263   7.674 -0.2430  0.1073 -0.1691
 1100YOPC   D3B14343   8.570  14.391   8.105  0.2853  0.0193  0.0532
 1100YOPC   C4B14344   8.633  14.882   8.162 -0.2796  0.0124  0.0504
 1101YOPC   NC314345   5.155   4.286   5.988  0.5092 -0.0725 -0.2126
 1101YOPC   PO414346   4.686   4.328   5.873 -0.0754 -0.4538 -0.0643
 1101YOPC   GL114347   4.597   4.215   6.336 -0.1338  0.1575 -0.1558
 1101YOPC   GL214348   4.913   4.168   6.406 -0.0468  0.0973  0.0592
 1101YOPC   C1A14349   4.443   4.378   6.709 -0.0213  0.2326  0.0495
 1101YOPC   D2A14350   4.186   4.531   7.033  0.3210  0.0106 -0.2950
 1101YOPC   C3A14351   4.170   4.816   7.396 -0.0487 -0.0869 -0.2088
 1101YOPC   C4A14352   4.155   5.029   7.744  0.3526 -0.3651 -0.2937
 1101YOPC   C1B14353   4.885   4.238   6.835 -0.2753 -0.2519 -0.4598
 1101YOPC   C2B14354   4.940   4.271   7.330 -0.2393  0.1444 -0.1316
 1101YOPC   D3B14355   5.335   4.052   7.565 -0.0290 -0.1010  0.0863
 1101YOPC   C4B14356   5.423   3.919   7.881  0.1164 -0.2030 -0.0903
 1102YOPC   NC314357  16.766   4.597   6.575  0.2275  0.1188  0.1636
 1102YOPC   PO414358  16.406   4.615   6.395 -0.0740 -0.4672  0.2357
 1102YOPC   GL114359  16.267   4.591   6.744 -0.1569 -0.0434 -0.0970
 1102YOPC   GL214360  16.009   4.382   6.756 -0.0639 -0.3466 -0.0509
 1102YOPC   C1A14361  16.290   4.454   7.122 -0.2137  0.3501  0.1853
 1102YOPC   D2A14362  16.304   4.324   7.533  0.3503 -0.2436  0.0775
 1102YOPC   C3A14363  16.649   4.278   7.704 -0.0997 -0.1515 -0.0011
 1102YOPC   C4A14364  16.745   4.454   8.169 -0.2768 -0.0444 -0.1496
 1102YOPC   C1B14365  15.891   4.145   7.223 -0.0058 -0.0396 -0.1473
 1102YOPC   C2B14366  15.837   3.958   7.593  0.0570  0.0734 -0.1963
 1102YOPC   D3B14367  16.002   3.663   7.722  0.1501 -0.3398  0.0772
 1102YOPC   C4B14368  16.149   3.543   8.052  0.0305  0.1046 -0.2543
 1103YOPC   NC314369  11.512   2.019   5.636  0.0716 -0.0439 -0.1707
 1103YOPC   PO414370  11.925   1.989   5.598  0.4097  0.0720  0.3091
 1103YOPC   GL114371  12.020   1.969   5.941 -0.1943  0.1828  0.0775
 1103YOPC   GL214372  12.183   1.595   5.871 -0.1605 -0.1079  0.0939
 1103YOPC   C1A14373  11.869   2.082   6.325 -0.1060  0.2062 -0.0792
 1103YOPC   D2A14374  11.725   2.230   6.763 -0.1399 -0.1050  0.0602
 1103YOPC   C3A14375  11.862   1.987   7.083  0.0480  0.0901 -0.0442
 1103YOPC   C4A14376  11.746   1.707   7.254  0.1145  0.2997 -0.2228
 1103YOPC   C1B14377  12.065   1.412   6.319 -0.0877  0.0009  0.0179
 1103YOPC   C2B14378  12.285   1.392   6.696 -0.0198 -0.0750  0.1483
 1103YOPC   D3B14379  12.162   1.410   7.239 -0.0540 -0.1584  0.2159
 1103YOPC   C4B14380  11.904   1.471   7.692  0.0603 -0.1171  0.0542
 1104YOPC   NC314381  17.772  13.750   6.007  0.1021 -0.1748 -0.1251
 1104YOPC   PO414382  17.763  14.179   6.097  0.2181 -0.2211  0.0827
 1104YOPC   GL114383  17.785  13.968   6.490 -0.3719 -0.0545 -0.3554
 1104YOPC   GL214384  17.848  13.620   6.459  0.2463  0.2994 -0.3159
 1104YOPC   C1A14385  17.407  13.779   6.764  0.0934 -0.0360  0.2567
 1104YOPC   D2A14386  17.129  13.757   7.046 -0.0127  0.3020  0.1947
 1104YOPC   C3A14387  17.054  13.698   7.469 -0.0330 -0.3706  0.0637
 1104YOPC   C4A14388  16.907  13.548   7.743  0.0502 -0.0592  0.0261
 1104YOPC   C1B14389  18.266  13.496   6.712  0.1751  0.0136  0.1260
 1104YOPC   C2B14390  18.211  13.361   7.179  0.1924  0.2541  0.0436
 1104YOPC   D3B14391  17.837  13.190   7.324  0.2024 -0.0460 -0.1909
 1104YOPC   C4B14392  17.718  12.995   7.699 -0.0744  0.2198 -0.2066
 1105YOPC   NC314393   8.018   9.394   5.780 -0.1566 -0.0925 -0.0896
 1105YOPC   PO414394   7.605   9.163   5.882 -0.1044 -0.2332  0.2226
 1105YOPC   GL114395   7.565   8.869   6.204  0.0829 -0.4009  0.0844
 1105YOPC   GL214396   7.353   9.058   6.339 -0.0837 -0.0292 -0.2166
 1105YOPC   C1A14397   7.523   8.646   6.538  0.0572  0.0064  0.1645
 1105YOPC   D2A14398   7.141   8.752   6.764 -0.1069 -0.2578  0.1572
 1105YOPC   C3A14399   6.806   8.560   6.874  0.0925  0.4746  0.0309
 1105YOPC   C4A14400   6.459   8.617   6.837  0.0412 -0.1591  0.1287
 1105YOPC   C1B14401   7.153   9.347   6.665  0.2251 -0.3512  0.1090
 1105YOPC   C2B14402   7.284   9.472   7.077 -0.1448  0.2466  0.2262
 1105YOPC   D3B14403   7.497   9.303   7.441  0.1194  0.0424 -0.2152
 1105YOPC   C4B14404   7.493   9.279   7.956  0.0339 -0.0690 -0.3065
 1106YOPC   NC314405  10.771   2.488   5.593  0.2709  0.2205  0.1624
 1106YOPC   PO414406  10.505   2.130   5.708  0.0086  0.1340  0.0118
 1106YOPC   GL114407  10.619   2.091   6.110 -0.0795  0.2079  0.0308
 1106YOPC   GL214408  10.548   2.410   6.275 -0.0140  0.1465 -0.0856
 1106YOPC   C1A14409  10.443   1.641   6.429  0.2419  0.0025 -0.0567
 1106YOPC   D2A14410  10.602   1.460   6.747 -0.3538  0.0798 -0.0081
 1106YOPC   C3A14411  10.907   1.700   6.944  0.1210  0.0911  0.2325
 1106YOPC   C4A14412  10.926   1.763   7.300 -0.1653  0.0866 -0.1615
 1106YOPC   C1B14413  10.546   2.492   6.679  0.2239  0.1798  0.1323
 1106YOPC   C2B14414  10.567   2.725   6.990  0.2448  0.1338  0.3595
 1106YOPC   D3B14415  10.668   2.767   7.429 -0.1138 -0.3003 -0.0723
 1106YOPC   C4B14416  10.999   2.958   7.693  0.0495  0.0749  0.2336
 1107YOPC   NC314417  15.606   1.207   5.850  0.0052  0.0062 -0.2197
 1107YOPC   PO414418  15.931   0.964   5.769 -0.0902 -0.4824 -0.1600
 1107YOPC   GL114419  16.073   1.082   6.176  0.0603  0.1531 -0.2954
 1107YOPC   GL214420  16.131   0.956   6.232 -0.0392 -0.0961  0.1060
 1107YOPC   C1A14421  15.908   1.218   6.574  0.0543 -0.1238 -0.2795
 1107YOPC   D2A14422  15.647   1.181   6.967  0.1325  0.3347 -0.0951
 1107YOPC   C3A14423  15.591   0.802   7.254  0.2490  0.1109  0.3610
 1107YOPC   C4A14424  15.341   0.677   7.623  0.0935 -0.0684 -0.0901
 1107YOPC   C1B14425  16.079   0.763   6.626 -0.3019  0.0427  0.0902
 1107YOPC   C2B14426  16.083   0.607   6.954 -0.3112 -0.1214 -0.0747
 1107YOPC   D3B14427  15.838   0.312   7.212 -0.0760  0.0159 -0.0737
 1107YOPC   C4B14428  15.719   0.362   7.627 -0.2020  0.2171  0.0365
 1108YOPC   NC314429  15.354  12.867   6.168 -0.4951 -0.0728  0.0580
 1108YOPC   PO414430  15.818  13.039   6.185  0.2056  0.0928 -0.0914
 1108YOPC   GL114431  15.624  13.044   6.646 -0.1467 -0.1281 -0.1578
 1108YOPC   GL214432  15.740  13.215   6.849  0.0721 -0.0523  0.0008
 1108YOPC   C1A14433  15.299  13.019   6.972 -0.2928 -0.1801  0.0983
 1108YOPC   D2A14434  15.325  12.960   7.466 -0.1947 -0.1414  0.0273
 1108YOPC   C3A14435  15.499  12.731   7.772  0.3157  0.2892 -0.1324
 1108YOPC   C4A14436  15.686  12.524   8.053  0.0441  0.0919  0.1172
 1108YOPC   C1B14437  15.816  13.383   7.253 -0.1160  0.1071  0.1633
 1108YOPC   C2B14438  16.060  13.566   7.613 -0.0351  0.2892 -0.3431
 1108YOPC   D3B14439  16.092  13.253   7.982  0.1774 -0.0606 -0.0695
 1108YOPC   C4B14440  15.800  13.023   8.197 -0.1685 -0.0374  0.2287
 1109YOPC   NC314441   6.862   3.489   5.071  0.0708 -0.1903  0.0087
 1109YOPC   PO414442   6.984   3.348   5.397  0.0078 -0.1210 -0.1625
 1109YOPC   GL114443   7.354   3.399   5.715 -0.0206 -0.3891 -0.2828
 1109YOPC   GL214444   7.199   3.538   5.951  0.1207 -0.1925 -0.3102
 1109YOPC   C1A14445   7.437   3.127   5.962  0.0683 -0.0698 -0.0889
 1109YOPC   D2A14446   7.285   2.857   6.252 -0.3596 -0.0417  0.1208
 1109YOPC   C3A14447   7.468   2.862   6.640 -0.0416 -0.1515  0.0071
 1109YOPC   C4A14448   7.378   2.934   7.026 -0.1563 -0.2503 -0.2992
 1109YOPC   C1B14449   7.029   3.720   6.381  0.3107  0.1666  0.2212
 1109YOPC   C2B14450   6.888   3.648   6.828  0.0982 -0.0664 -0.0802
 1109YOPC   D3B14451   6.490   3.834   6.731  0.2683 -0.3285  0.0293
 1109YOPC   C4B14452   6.213   3.950   6.345  0.0524  0.0788 -0.2627
 1110YOPC   NC314453   6.441  17.848   6.503 -0.2139  0.0322 -0.0834
 1110YOPC   PO414454   6.997  17.673   6.447  0.3561  0.1085  0.2100
 1110YOPC   GL114455   7.004  17.987   6.771 -0.1840  0.0694  0.0855
 1110YOPC   GL214456   7.095  18.322   6.894  0.1941 -0.2199  0.0746
 1110YOPC   C1A14457   7.143  17.833   7.165  0.1632  0.0902 -0.1592
 1110YOPC   D2A14458   7.237  17.590   7.484 -0.0649 -0.0571  0.0231
 1110YOPC   C3A14459   7.396  17.627   7.862 -0.1386 -0.2130 -0.1057
 1110YOPC   C4A14460   7.791  17.712   7.839 -0.0085  0.0206  0.0951
 1110YOPC   C1B14461   7.236  18.347   7.303  0.1317 -0.1077  0.2592
 1110YOPC   C2B14462   7.151  18.528   7.725 -0.1384 -0.1222  0.0719
 1110YOPC   D3B14463   7.015  18.855   7.942 -0.0943 -0.0042  0.1485
 1110YOPC   C4B14464   7.194  19.165   8.227 -0.0306  0.0812 -0.0242
 1111YOPC   NC314465   5.966   6.177   5.981  0.1762 -0.1540 -0.1198
 1111YOPC   PO414466   5.855   6.555   6.015  0.0065  0.1505 -0.0520
 1111YOPC   GL114467   5.609   6.334   6.318 -0.2869  0.2880 -0.1879
 1111YOPC   GL214468   5.289   6.289   6.317  0.3845 -0.1596  0.0142
 1111YOPC   C1A14469   5.581   6.157   6.725 -0.1067 -0.1078 -0.2555
 1111YOPC   D2A14470   5.380   6.107   7.131  0.2061 -0.2489 -0.1171
 1111YOPC   C3A14471   5.188   5.849   7.356 -0.0751 -0.1334 -0.1060
 1111YOPC   C4A14472   5.236   5.629   7.714  0.0804  0.1241 -0.1870
 1111YOPC   C1B14473   5.323   6.607   6.664 -0.0198  0.1869 -0.0516
 1111YOPC   C2B14474   5.346   6.635   7.052  0.0642  0.0586  0.0735
 1111YOPC   D3B14475   5.053   6.854   7.288  0.3664 -0.0139 -0.1372
 1111YOPC   C4B14476   4.845   7.114   7.341  0.0209 -0.0469  0.2069
 1112YOPC   NC314477  13.058  10.427   6.162  0.3202  0.2434 -0.1195
 1112YOPC   PO414478  12.944  10.868   6.271 -0.2541  0.2831  0.1007
 1112YOPC   GL114479  13.205  11.148   6.543 -0.2253  0.0055 -0.0183
 1112YOPC   GL214480  13.278  11.548   6.559 -0.2081  0.1559  0.0757
 1112YOPC   C1A14481  13.437  11.268   6.888  0.1474 -0.2213 -0.1988
 1112YOPC   D2A14482  13.569  11.483   7.326 -0.1529  0.1359  0.0594
 1112YOPC   C3A14483  13.610  11.117   7.590  0.3101 -0.1902  0.1658
 1112YOPC   C4A14484  13.798  11.005   7.906 -0.0126 -0.3758  0.0652
 1112YOPC   C1B14485  13.406  11.816   6.887 -0.0149  0.1561 -0.1263
 1112YOPC   C2B14486  13.123  11.798   7.126  0.0165 -0.0288  0.2575
 1112YOPC   D3B14487  13.244  11.874   7.453 -0.2643  0.0577  0.0284
 1112YOPC   C4B14488  13.300  11.682   7.839 -0.0423  0.1384 -0.0012
 1113YOPC   NC314489  17.499   4.436   6.147 -0.2416 -0.0520 -0.3343
 1113YOPC   PO414490  17.195   4.722   6.291  0.3736 -0.0781 -0.0512
 1113YOPC   GL114491  17.250   4.583   6.661  0.4260 -0.0303  0.2044
 1113YOPC   GL214492  17.544   4.492   6.660  0.1186 -0.0355  0.0100
 1113YOPC   C1A14493  17.465   4.522   7.149  0.0641 -0.2326  0.1599
 1113YOPC   D2A14494  17.538   4.731   7.413  0.1319  0.1336 -0.1343
 1113YOPC   C3A14495  17.549   4.535   7.941  0.3005  0.0658  0.2366
 1113YOPC   C4A14496  17.612   4.206   8.229 -0.2691 -0.0616  0.4089
 1113YOPC   C1B14497  17.546   4.943   6.857  0.0431  0.1109 -0.1010
 1113YOPC   C2B14498  17.394   5.388   6.974  0.0514  0.1770  0.1159
 1113YOPC   D3B14499  17.385   5.649   7.280  0.0589  0.2032  0.0862
 1113YOPC   C4B14500  17.482   5.788   7.587  0.2171  0.1034  0.0225
 1114YOPC   NC314501  16.037  15.283   5.643 -0.2195 -0.0058 -0.3280
 1114YOPC   PO414502  15.865  15.617   5.887  0.0270  0.0272 -0.1466
 1114YOPC   GL114503  15.592  15.468   6.256 -0.1723  0.3396 -0.2341
 1114YOPC   GL214504  15.388  15.577   6.237  0.0193 -0.3419 -0.2249
 1114YOPC   C1A14505  15.605  15.342   6.725  0.1860  0.0663 -0.2331
 1114YOPC   D2A14506  15.466  15.570   6.996  0.1709  0.0053  0.1527
 1114YOPC   C3A14507  15.394  15.534   7.413 -0.0063  0.1560 -0.0215
 1114YOPC   C4A14508  15.600  15.506   7.869 -0.1551 -0.1519  0.1101
 1114YOPC   C1B14509  15.215  15.788   6.622 -0.1824  0.0103  0.1420
 1114YOPC   C2B14510  15.036  15.771   7.099  0.3345  0.1348  0.1299
 1114YOPC   D3B14511  14.832  15.587   7.377  0.1196 -0.1633 -0.3117
 1114YOPC   C4B14512  14.638  15.455   7.777  0.0412  0.2793 -0.1169
 1115YOPC   NC314513   3.781   1.978   6.100  0.3497  0.0460  0.0579
 1115YOPC   PO414514   4.186   2.028   6.126 -0.0260 -0.0745 -0.1416
 1115YOPC   GL114515   4.237   2.197   6.490 -0.0296  0.1922  0.2911
 1115YOPC   GL214516   4.507   2.431   6.516 -0.0384 -0.1486  0.1606
 1115YOPC   C1A14517   4.190   1.987   6.859 -0.0702  0.0946 -0.1414
 1115YOPC   D2A14518   4.069   1.731   7.212  0.3310 -0.1461 -0.0039
 1115YOPC   C3A14519   4.026   1.636   7.641 -0.0232  0.1345  0.1604
 1115YOPC   C4A14520   4.105   1.733   8.072 -0.1074 -0.0822 -0.0222
 1115YOPC   C1B14521   4.398   2.561   6.904  0.1287  0.2756 -0.1705
 1115YOPC   C2B14522   4.542   2.654   7.327  0.0777  0.0011  0.1201
 1115YOPC   D3B14523   4.509   2.540   7.761 -0.0826  0.1552 -0.0370
 1115YOPC   C4B14524   4.645   2.297   8.022  0.2416 -0.0178 -0.3744
 1116YOPC   NC314525  10.165   4.577   4.969 -0.0496  0.0088 -0.3548
 1116YOPC   PO414526   9.996   4.665   5.385  0.1823  0.2086  0.0503
 1116YOPC   GL114527   9.755   4.851   5.869  0.1456  0.2430 -0.2007
 1116YOPC   GL214528  10.048   4.916   5.981 -0.0961 -0.0753  0.3151
 1116YOPC   C1A14529   9.592   5.000   6.337  0.1944 -0.3670  0.0101
 1116YOPC   D2A14530   9.440   5.061   6.763  0.0015 -0.1201  0.1589
 1116YOPC   C3A14531   9.606   5.081   7.126  0.0549 -0.0827 -0.2542
 1116YOPC   C4A14532   9.910   5.076   7.422  0.0321  0.1457  0.0741
 1116YOPC   C1B14533  10.060   4.811   6.362 -0.1782 -0.1040 -0.0124
 1116YOPC   C2B14534   9.845   4.780   6.723 -0.1265 -0.1013 -0.0583
 1116YOPC   D3B14535  10.087   4.701   7.059  0.1803  0.3202 -0.0860
 1116YOPC   C4B14536  10.444   4.741   7.413 -0.0928 -0.0330 -0.0679
 1117YOPC   NC314537  12.353   2.724   5.334 -0.0573 -0.5075  0.0436
 1117YOPC   PO414538  12.472   2.941   5.693 -0.1131 -0.2046  0.0890
 1117YOPC   GL114539  12.442   2.857   6.140  0.4053 -0.0096  0.2125
 1117YOPC   GL214540  12.618   3.135   6.279  0.0477 -0.2798 -0.1334
 1117YOPC   C1A14541  12.479   2.801   6.630 -0.2323 -0.1072 -0.1145
 1117YOPC   D2A14542  12.314   2.958   7.013 -0.3901 -0.2190 -0.2760
 1117YOPC   C3A14543  12.135   3.028   7.447  0.1277  0.3136  0.0294
 1117YOPC   C4A14544  12.093   3.157   7.882  0.3399 -0.0920 -0.3534
 1117YOPC   C1B14545  12.172   3.209   6.395  0.2795  0.0082  0.0239
 1117YOPC   C2B14546  11.856   3.049   6.226  0.0332 -0.1128 -0.1269
 1117YOPC   D3B14547  11.444   3.114   6.454 -0.2821 -0.2214  0.1874
 1117YOPC   C4B14548  10.996   3.232   6.353  0.0451 -0.0006  0.2037
 1118YOPC   NC314549  14.550   3.299   6.089 -0.5364 -0.1512 -0.2097
 1118YOPC   PO414550  14.131   3.379   6.010 -0.1650 -0.1079 -0.1081
 1118YOPC   GL114551  13.867   3.552   6.377  0.0503  0.2027 -0.1561
 1118YOPC   GL214552  13.685   3.744   6.259  0.1575  0.0240  0.4163
 1118YOPC   C1A14553  14.037   3.658   6.844  0.2736  0.0267 -0.0429
 1118YOPC   D2A14554  14.071   3.708   7.269 -0.1992 -0.1431 -0.1527
 1118YOPC   C3A14555  13.926   3.708   7.648 -0.3188  0.1067  0.2332
 1118YOPC   C4A14556  13.912   3.502   8.025  0.0727  0.0951  0.1632
 1118YOPC   C1B14557  13.520   3.684   6.715 -0.0089 -0.0090  0.0463
 1118YOPC   C2B14558  13.651   3.865   7.097  0.0530 -0.0887  0.2483
 1118YOPC   D3B14559  13.563   4.089   7.437 -0.3375  0.0824  0.1516
 1118YOPC   C4B14560  13.557   3.921   7.912  0.0584 -0.0091  0.1962
 1119YOPC   NC314561   3.202   6.330   5.449  0.1189 -0.2922 -0.1820
 1119YOPC   PO414562   3.247   6.412   5.898 -0.3379  0.0789  0.0535
 1119YOPC   GL114563   3.241   6.460   6.321  0.0692 -0.5778 -0.4283
 1119YOPC   GL214564   3.465   6.544   6.657  0.0685  0.0102  0.1417
 1119YOPC   C1A14565   3.037   6.223   6.687 -0.1285  0.2751  0.1176
 1119YOPC   D2A14566   3.311   6.262   7.069  0.0537  0.0447  0.0233
 1119YOPC   C3A14567   3.233   6.539   7.342  0.1473 -0.2446  0.2965
 1119YOPC   C4A14568   3.011   6.489   7.817 -0.0416  0.4869  0.0522
 1119YOPC   C1B14569   3.576   6.717   6.940  0.0030 -0.1592 -0.3840
 1119YOPC   C2B14570   3.584   7.104   6.926  0.2458 -0.2807  0.0175
 1119YOPC   D3B14571   3.835   7.283   7.160  0.1022  0.1895 -0.0387
 1119YOPC   C4B14572   3.898   7.554   7.525  0.1593  0.3515 -0.1285
 1120YOPC   NC314573  13.557  13.057   5.419 -0.0784 -0.0121  0.0742
 1120YOPC   PO414574  13.918  13.203   5.818  0.0110  0.2518  0.1346
 1120YOPC   GL114575  13.979  13.170   6.296 -0.1118 -0.2753  0.0182
 1120YOPC   GL214576  14.099  13.478   6.479 -0.0407  0.0605 -0.1482
 1120YOPC   C1A14577  13.833  12.988   6.719  0.2866 -0.0876 -0.2357
 1120YOPC   D2A14578  13.675  12.684   6.856 -0.2936  0.2002  0.1514
 1120YOPC   C3A14579  13.806  12.517   7.236 -0.1587  0.0091  0.2486
 1120YOPC   C4A14580  14.075  12.642   7.599  0.3606 -0.3244 -0.1093
 1120YOPC   C1B14581  14.028  13.467   6.898  0.1003 -0.4253  0.3531
 1120YOPC   C2B14582  14.057  13.505   7.393  0.1505  0.2849  0.2297
 1120YOPC   D3B14583  14.013  13.594   7.721 -0.1694 -0.2018  0.0558
 1120YOPC   C4B14584  13.994  13.670   8.156  0.1173  0.0922  0.0464
 1121YOPC   NC314585  12.916   2.871   5.866 -0.1825 -0.0115  0.0695
 1121YOPC   PO414586  12.978   2.783   6.262 -0.5777  0.1498 -0.0870
 1121YOPC   GL114587  13.197   2.575   6.549 -0.0794 -0.2604 -0.2248
 1121YOPC   GL214588  13.504   2.791   6.520 -0.0996  0.1341 -0.0009
 1121YOPC   C1A14589  13.244   2.409   6.883  0.2614  0.0392  0.1687
 1121YOPC   D2A14590  13.401   2.407   7.280  0.2732 -0.0604 -0.4063
 1121YOPC   C3A14591  13.556   2.062   7.645 -0.0093  0.1666  0.1584
 1121YOPC   C4A14592  13.635   2.054   8.106  0.1406 -0.5553  0.1051
 1121YOPC   C1B14593  13.512   2.813   7.021 -0.0629 -0.0763  0.4656
 1121YOPC   C2B14594  13.480   3.028   7.467  0.0343 -0.0801 -0.0827
 1121YOPC   D3B14595  13.305   2.786   7.820  0.0062  0.1174 -0.2036
 1121YOPC   C4B14596  13.220   2.316   7.894 -0.0094  0.0055 -0.0012
 1122YOPC   NC314597  16.805   2.136   6.304  0.4100 -0.0549 -0.0928
 1122YOPC   PO414598  16.499   1.795   6.190 -0.1661 -0.0078  0.1325
 1122YOPC   GL114599  16.513   1.808   6.608  0.0528  0.2569 -0.2038
 1122YOPC   GL214600  16.677   2.089   6.869 -0.0276 -0.2396  0.1568
 1122YOPC   C1A14601  16.390   1.670   7.050  0.0301 -0.0468  0.0912
 1122YOPC   D2A14602  16.282   1.708   7.499  0.0190  0.0378 -0.2203
 1122YOPC   C3A14603  16.409   1.919   7.763  0.3188 -0.3008  0.1230
 1122YOPC   C4A14604  16.651   2.177   7.908 -0.2227  0.0121 -0.2155
 1122YOPC   C1B14605  16.606   2.023   7.293 -0.0123 -0.2916  0.2617
 1122YOPC   C2B14606  17.020   2.048   7.510  0.1700  0.2719 -0.0186
 1122YOPC   D3B14607  17.113   1.895   7.837 -0.0393 -0.0135 -0.0352
 1122YOPC   C4B14608  17.409   1.878   8.186 -0.0310 -0.6309 -0.1433
 1123YOPC   NC314609   9.122  17.811   5.787  0.0651  0.2215  0.2088
 1123YOPC   PO414610   9.116  18.200   5.580  0.3200 -0.0743 -0.3128
 1123YOPC   GL114611   9.120  18.154   6.126 -0.0196  0.4585  0.0014
 1123YOPC   GL214612   8.835  18.348   6.237 -0.2621  0.1203  0.0978
 1123YOPC   C1A14613   9.241  18.200   6.484  0.1047 -0.1449 -0.0570
 1123YOPC   D2A14614   9.139  18.363   6.913 -0.1412  0.0492 -0.0491
 1123YOPC   C3A14615   9.283  18.417   7.268 -0.0692  0.1163 -0.0237
 1123YOPC   C4A14616   9.527  18.176   7.638 -0.1002 -0.0922 -0.2273
 1123YOPC   C1B14617   8.660  18.566   6.537 -0.3571  0.0279 -0.0388
 1123YOPC   C2B14618   8.469  18.958   6.822  0.1665 -0.2322  0.1300
 1123YOPC   D3B14619   8.773  19.216   7.163 -0.1175  0.0661 -0.0899
 1123YOPC   C4B14620   9.205  19.438   7.115  0.3330  0.1853 -0.4129
 1124YOPC   NC314621  14.036   8.402   5.761  0.0530 -0.3767  0.1461
 1124YOPC   PO414622  13.909   8.427   6.252  0.2563 -0.0814  0.0183
 1124YOPC   GL114623  14.011   8.234   6.636  0.0149 -0.1729  0.0464
 1124YOPC   GL214624  14.145   7.909   6.622 -0.0098  0.3586 -0.0794
 1124YOPC   C1A14625  14.167   8.107   7.118  0.1136 -0.1404  0.1459
 1124YOPC   D2A14626  14.246   7.864   7.537  0.1544  0.2373  0.0330
 1124YOPC   C3A14627  14.392   7.778   7.979  0.1911 -0.3770 -0.1268
 1124YOPC   C4A14628  14.385   7.924   8.478  0.0995  0.0973 -0.1324
 1124YOPC   C1B14629  14.310   7.624   7.009 -0.1328 -0.4460 -0.2498
 1124YOPC   C2B14630  14.604   7.639   7.321  0.2933  0.0792 -0.0009
 1124YOPC   D3B14631  14.511   7.419   7.671  0.0750 -0.1197 -0.5230
 1124YOPC   C4B14632  14.287   7.291   8.003 -0.0264 -0.0176 -0.4185
 1125YOPC   NC314633  17.914  14.731   5.581  0.0863 -0.2163  0.0630
 1125YOPC   PO414634  18.196  14.533   5.840  0.3765  0.0739 -0.1369
 1125YOPC   GL114635  18.330  14.348   6.169  0.1691  0.0427 -0.0024
 1125YOPC   GL214636  18.255  14.027   6.393  0.0041 -0.2443  0.1047
 1125YOPC   C1A14637  18.447  14.380   6.675  0.1123 -0.2349  0.1051
 1125YOPC   D2A14638  18.819  14.582   6.787 -0.1450  0.0266  0.1031
 1125YOPC   C3A14639  18.731  14.521   7.143 -0.1129 -0.0983 -0.1488
 1125YOPC   C4A14640  18.285  14.404   7.121  0.2228  0.0245 -0.1136
 1125YOPC   C1B14641  18.408  13.944   6.752  0.2203  0.0907 -0.0060
 1125YOPC   C2B14642  18.138  13.908   7.224  0.0599  0.0484  0.2315
 1125YOPC   D3B14643  18.040  14.141   7.535 -0.0517 -0.1080  0.0249
 1125YOPC   C4B14644  18.320  14.387   7.884 -0.0885 -0.1658  0.0325
 1126YOPC   NC314645  10.719   3.162   5.537  0.1257  0.2679 -0.0613
 1126YOPC   PO414646  10.976   2.916   5.684 -0.2675  0.2314  0.1163
 1126YOPC   GL114647  10.823   2.859   6.056 -0.1016  0.2828 -0.0236
 1126YOPC   GL214648  11.035   2.687   6.261 -0.0365  0.2560 -0.2796
 1126YOPC   C1A14649  10.513   2.893   6.378  0.2248 -0.3326 -0.0702
 1126YOPC   D2A14650  10.276   2.992   6.771  0.1895  0.3353 -0.2174
 1126YOPC   C3A14651  10.401   3.196   7.242 -0.0286  0.1748 -0.2430
 1126YOPC   C4A14652  10.453   3.423   7.604 -0.1742  0.1152 -0.3207
 1126YOPC   C1B14653  10.939   2.817   6.656 -0.1836  0.2550  0.0204
 1126YOPC   C2B14654  11.047   2.822   7.114  0.1942  0.1387 -0.0587
 1126YOPC   D3B14655  11.354   3.095   7.340 -0.1648  0.1520 -0.3729
 1126YOPC   C4B14656  11.642   3.035   7.618 -0.1468  0.2818 -0.2925
 1127YOPC   NC314657   7.832   1.722   5.990  0.1247 -0.1568 -0.0034
 1127YOPC   PO414658   7.461   1.479   6.047 -0.0800  0.0343 -0.1150
 1127YOPC   GL114659   7.538   1.597   6.487 -0.0514  0.1032 -0.1157
 1127YOPC   GL214660   7.546   1.304   6.643 -0.0319  0.0062 -0.0874
 1127YOPC   C1A14661   7.889   1.727   6.818 -0.1905 -0.0019 -0.3495
 1127YOPC   D2A14662   8.117   1.735   7.144 -0.0397 -0.2550  0.1429
 1127YOPC   C3A14663   8.019   1.692   7.555  0.1226 -0.0229  0.2005
 1127YOPC   C4A14664   7.791   1.630   7.878  0.0055 -0.0565 -0.0799
 1127YOPC   C1B14665   7.434   1.545   7.024 -0.1395  0.1280 -0.0284
 1127YOPC   C2B14666   7.485   1.561   7.495 -0.0360  0.2282 -0.2255
 1127YOPC   D3B14667   7.419   1.185   7.817 -0.0923 -0.2304  0.6388
 1127YOPC   C4B14668   7.514   0.804   7.664 -0.0026  0.0604  0.2144
 1128YOPC   NC314669   0.819  14.461   6.288  0.0915 -0.0325  0.0667
 1128YOPC   PO414670   1.233  14.452   6.056 -0.0809  0.0241 -0.1258
 1128YOPC   GL114671   1.248  14.209   6.464  0.0689  0.2365  0.2473
 1128YOPC   GL214672   1.234  13.889   6.599  0.1257 -0.0607 -0.2812
 1128YOPC   C1A14673   1.107  14.230   6.875 -0.2396  0.1207  0.1282
 1128YOPC   D2A14674   1.275  14.206   7.229 -0.1372  0.1498  0.0901
 1128YOPC   C3A14675   1.226  14.160   7.729  0.0177 -0.0875 -0.1404
 1128YOPC   C4A14676   1.070  14.182   8.086 -0.2267  0.1011  0.0861
 1128YOPC   C1B14677   1.153  13.753   7.067 -0.1784  0.2089 -0.0774
 1128YOPC   C2B14678   1.409  13.523   7.323 -0.0880 -0.1012  0.1369
 1128YOPC   D3B14679   1.326  13.631   7.667  0.2122  0.1263  0.1155
 1128YOPC   C4B14680   1.458  13.774   7.990 -0.1168  0.2662 -0.2172
 1129YOPC   NC314681   1.368  16.626   6.060 -0.1834  0.2287  0.3080
 1129YOPC   PO414682   0.992  16.733   6.183  0.2931  0.1108  0.0698
 1129YOPC   GL114683   1.342  16.864   6.543  0.3989 -0.0242  0.0314
 1129YOPC   GL214684   1.524  17.088   6.600 -0.0489  0.0783 -0.0442
 1129YOPC   C1A14685   1.362  16.882   6.988  0.1193 -0.4734 -0.2531
 1129YOPC   D2A14686   1.526  16.720   7.353 -0.3350 -0.1819  0.4103
 1129YOPC   C3A14687   1.378  16.679   7.728  0.1191 -0.0152  0.2202
 1129YOPC   C4A14688   1.427  16.537   8.084  0.3161 -0.3111 -0.1173
 1129YOPC   C1B14689   1.683  17.288   6.947  0.0597  0.1263 -0.0193
 1129YOPC   C2B14690   1.695  17.205   7.416 -0.1133  0.1528  0.0103
 1129YOPC   D3B14691   2.002  17.391   7.587 -0.1277  0.0357  0.2398
 1129YOPC   C4B14692   2.081  17.353   7.982 -0.1951  0.0389 -0.2714
 1130YOPC   NC314693   9.001  11.527   5.378  0.1201 -0.2243 -0.3027
 1130YOPC   PO414694   9.256  11.234   5.437  0.0787  0.3449  0.0998
 1130YOPC   GL114695   9.201  11.076   5.842 -0.2594  0.1220  0.1624
 1130YOPC   GL214696   8.917  10.971   5.904 -0.1020  0.1910 -0.1044
 1130YOPC   C1A14697   9.342  10.769   6.188 -0.3694  0.0720  0.0414
 1130YOPC   D2A14698   9.349  10.415   6.502 -0.0834 -0.1640  0.0420
 1130YOPC   C3A14699   9.337  10.590   6.916 -0.1247  0.2553  0.1277
 1130YOPC   C4A14700   9.532  10.722   7.209  0.1456  0.1599  0.1040
 1130YOPC   C1B14701   8.743  11.173   6.265 -0.0040  0.0867 -0.0188
 1130YOPC   C2B14702   8.470  11.408   6.372 -0.4878  0.0999 -0.0250
 1130YOPC   D3B14703   8.428  11.800   6.608  0.0260 -0.0318 -0.0629
 1130YOPC   C4B14704   8.541  11.780   7.004 -0.3236 -0.1101 -0.0271
 1131YOPC   NC314705  13.993  11.048   5.964  0.1879  0.0019  0.1350
 1131YOPC   PO414706  14.146  11.448   6.191 -0.0728  0.0418 -0.1146
 1131YOPC   GL114707  14.373  11.433   6.475  0.0117 -0.1506  0.0540
 1131YOPC   GL214708  14.362  11.137   6.635  0.2091 -0.0357  0.1595
 1131YOPC   C1A14709  14.734  11.427   6.832 -0.1062  0.1521 -0.0988
 1131YOPC   D2A14710  14.788  11.393   7.260 -0.0830  0.1850  0.0944
 1131YOPC   C3A14711  14.593  11.505   7.613 -0.1582  0.0141 -0.1333
 1131YOPC   C4A14712  14.700  11.655   7.954  0.1237 -0.2564  0.1709
 1131YOPC   C1B14713  14.401  11.070   7.177 -0.1703 -0.0995  0.2635
 1131YOPC   C2B14714  14.403  10.993   7.605 -0.2008  0.0152  0.0376
 1131YOPC   D3B14715  14.300  11.242   7.946  0.2308 -0.3069  0.3308
 1131YOPC   C4B14716  14.484  11.420   8.289  0.0066  0.0235 -0.0608
 1132YOPC   NC314717  10.967   0.934   5.858 -0.1711  0.1368  0.1599
 1132YOPC   PO414718  10.645   0.741   5.852  0.0284 -0.0571  0.1184
 1132YOPC   GL114719  10.651   0.644   6.252 -0.1257  0.0659  0.0662
 1132YOPC   GL214720  10.367   0.429   6.317 -0.2136 -0.1045 -0.0599
 1132YOPC   C1A14721  10.737   0.605   6.756 -0.2092 -0.2494  0.0856
 1132YOPC   D2A14722  10.813   0.835   7.152 -0.1591  0.1177 -0.0375
 1132YOPC   C3A14723  10.794   0.562   7.551 -0.3296 -0.0245 -0.0146
 1132YOPC   C4A14724  11.065   0.203   7.864 -0.0748  0.0535 -0.2231
 1132YOPC   C1B14725  10.287   0.354   6.792 -0.1098 -0.1085  0.4380
 1132YOPC   C2B14726  10.398   0.408   7.156  0.1732  0.3428  0.1153
 1132YOPC   D3B14727  10.323   0.713   7.398 -0.0942 -0.0160 -0.1657
 1132YOPC   C4B14728   9.931   0.872   7.698  0.0130  0.3778  0.4200
 1133YOPC   NC314729  13.962   9.331   6.287 -0.0671  0.1776  0.3417
 1133YOPC   PO414730  13.554   9.203   6.328 -0.0277  0.1436  0.0367
 1133YOPC   GL114731  13.809   9.235   6.727 -0.2261 -0.1642 -0.0620
 1133YOPC   GL214732  13.920   8.962   6.659 -0.1446 -0.0028 -0.1058
 1133YOPC   C1A14733  13.896   9.492   7.094 -0.1397  0.0962 -0.0737
 1133YOPC   D2A14734  13.916   9.856   7.300  0.3561  0.0857  0.0635
 1133YOPC   C3A14735  13.918   9.976   7.732 -0.2764 -0.0012 -0.1054
 1133YOPC   C4A14736  13.962  10.208   8.153  0.1745 -0.0236  0.1617
 1133YOPC   C1B14737  14.290   8.691   6.740  0.1078 -0.4045  0.4692
 1133YOPC   C2B14738  14.474   8.335   6.831 -0.2662  0.0116  0.0010
 1133YOPC   D3B14739  14.649   8.220   7.159 -0.2117 -0.0073 -0.0314
 1133YOPC   C4B14740  14.435   8.310   7.462 -0.2229 -0.0147  0.0370
 1134YOPC   NC314741  14.341  13.659   6.032  0.0232 -0.2504 -0.1642
 1134YOPC   PO414742  14.180  14.072   6.006  0.0034  0.0455 -0.1465
 1134YOPC   GL114743  14.188  14.032   6.498 -0.0327 -0.2144  0.2013
 1134YOPC   GL214744  14.481  13.847   6.559 -0.1682  0.1416  0.2727
 1134YOPC   C1A14745  14.083  14.010   6.889  0.4623 -0.0628  0.0887
 1134YOPC   D2A14746  14.332  14.000   7.240  0.3763  0.0998 -0.2166
 1134YOPC   C3A14747  14.316  13.959   7.611 -0.0852  0.1216 -0.0633
 1134YOPC   C4A14748  14.428  13.752   8.012 -0.2298  0.3750 -0.1726
 1134YOPC   C1B14749  14.632  13.880   6.895 -0.2349 -0.1845  0.0112
 1134YOPC   C2B14750  14.875  13.706   7.315  0.0616  0.1349 -0.1752
 1134YOPC   D3B14751  14.830  13.746   7.684  0.2103 -0.3607 -0.1703
 1134YOPC   C4B14752  15.166  13.607   7.938 -0.0203  0.3701 -0.0526
 1135YOPC   NC314753   8.625  13.411   6.220  0.0476 -0.0153 -0.0133
 1135YOPC   PO414754   8.320  13.126   6.307 -0.0754  0.4345 -0.2222
 1135YOPC   GL114755   8.405  13.072   6.668  0.0730 -0.2690  0.0547
 1135YOPC   GL214756   8.201  12.782   6.721  0.2332 -0.1159  0.0724
 1135YOPC   C1A14757   8.495  12.830   7.082 -0.3685  0.3222 -0.2080
 1135YOPC   D2A14758   8.473  12.723   7.496 -0.0773  0.3394 -0.1002
 1135YOPC   C3A14759   8.034  12.659   7.661  0.1029  0.2376 -0.0097
 1135YOPC   C4A14760   7.751  12.729   7.973  0.0924  0.2317  0.4088
 1135YOPC   C1B14761   8.017  12.613   7.134  0.0606  0.1299  0.1197
 1135YOPC   C2B14762   7.752  12.397   7.312 -0.4408  0.0080  0.1580
 1135YOPC   D3B14763   7.426  12.191   7.393 -0.0209  0.4328 -0.2278
 1135YOPC   C4B14764   7.135  11.936   7.228 -0.1220 -0.1398 -0.0010
 1136YOPC   NC314765   2.277   0.568   5.737  0.0208  0.1567 -0.1241
 1136YOPC   PO414766   2.245   1.015   5.755  0.1954  0.0872  0.1571
 1136YOPC   GL114767   2.197   1.139   6.107  0.4699 -0.1902 -0.0736
 1136YOPC   GL214768   2.452   1.247   6.371 -0.2603  0.0468 -0.1680
 1136YOPC   C1A14769   2.003   1.050   6.551  0.1281  0.1540  0.0591
 1136YOPC   D2A14770   1.649   1.287   6.690  0.2441  0.0174  0.1256
 1136YOPC   C3A14771   1.771   1.386   7.109  0.0160 -0.2897  0.0545
 1136YOPC   C4A14772   2.009   1.428   7.496  0.2472 -0.3869 -0.2902
 1136YOPC   C1B14773   2.374   1.408   6.780  0.3331  0.1221 -0.0441
 1136YOPC   C2B14774   2.211   1.137   7.143 -0.1393  0.2021  0.0662
 1136YOPC   D3B14775   1.839   0.913   7.030  0.2002 -0.2875 -0.1701
 1136YOPC   C4B14776   1.951   0.588   6.641 -0.1928 -0.2223  0.1068
 1137YOPC   NC314777  13.134   4.691   5.462 -0.1192 -0.0510  0.2533
 1137YOPC   PO414778  12.716   4.734   5.609  0.0804  0.1118 -0.2076
 1137YOPC   GL114779  12.714   4.493   5.994  0.1183  0.0843  0.0438
 1137YOPC   GL214780  12.662   4.119   6.023  0.1336 -0.0545  0.0575
 1137YOPC   C1A14781  12.828   4.488   6.449 -0.0923 -0.0404  0.2016
 1137YOPC   D2A14782  12.370   4.383   6.708 -0.0878  0.0721 -0.0143
 1137YOPC   C3A14783  12.290   4.589   7.082  0.0399  0.3159  0.0459
 1137YOPC   C4A14784  12.209   4.780   7.477 -0.1968  0.0379  0.1172
 1137YOPC   C1B14785  12.294   4.280   6.256  0.0255  0.0647 -0.1854
 1137YOPC   C2B14786  12.320   4.776   6.374  0.1034 -0.4199 -0.0609
 1137YOPC   D3B14787  12.541   4.898   6.799 -0.1230 -0.0207  0.5167
 1137YOPC   C4B14788  12.663   5.135   7.031  0.2249 -0.0583  0.0966
 1138YOPC   NC314789  14.333   6.316   6.076 -0.2655 -0.1311 -0.4415
 1138YOPC   PO414790  14.590   6.678   6.022 -0.1322 -0.0929 -0.0921
 1138YOPC   GL114791  14.728   6.738   6.464  0.1768 -0.2149  0.0040
 1138YOPC   GL214792  14.871   6.990   6.530 -0.4485 -0.2688  0.1056
 1138YOPC   C1A14793  14.788   6.490   6.727 -0.0392 -0.3340 -0.1669
 1138YOPC   D2A14794  14.702   6.326   7.128  0.2730 -0.2367 -0.1813
 1138YOPC   C3A14795  14.545   6.302   7.504 -0.3334 -0.0555  0.1425
 1138YOPC   C4A14796  14.413   6.572   7.770  0.0271 -0.2014  0.0391
 1138YOPC   C1B14797  15.077   6.977   6.981 -0.4291 -0.1597  0.4985
 1138YOPC   C2B14798  15.129   6.784   7.359  0.2891  0.0530 -0.1496
 1138YOPC   D3B14799  15.432   6.817   7.697 -0.0661 -0.2923  0.1310
 1138YOPC   C4B14800  15.711   6.734   8.122 -0.0887 -0.4248 -0.1108
 1139YOPC   NC314801   9.366  12.113   6.162 -0.1306  0.2130 -0.0117
 1139YOPC   PO414802   9.619  11.997   5.805 -0.0675  0.0399  0.2554
 1139YOPC   GL114803   9.871  12.017   6.265 -0.3176  0.0198 -0.2734
 1139YOPC   GL214804  10.180  11.989   6.405  0.3840  0.1651  0.0763
 1139YOPC   C1A14805   9.840  11.982   6.830  0.1984  0.0754 -0.1406
 1139YOPC   D2A14806  10.205  11.983   7.097  0.1588  0.0804  0.0232
 1139YOPC   C3A14807  10.156  11.859   7.544 -0.0512 -0.1569 -0.2457
 1139YOPC   C4A14808   9.947  11.729   7.992 -0.0306  0.0684  0.0623
 1139YOPC   C1B14809  10.509  11.918   6.660  0.0607  0.1238 -0.0882
 1139YOPC   C2B14810  10.784  11.734   6.986  0.0871 -0.0768  0.0159
 1139YOPC   D3B14811  10.460  11.573   7.329 -0.1203 -0.0896 -0.0300
 1139YOPC   C4B14812  10.185  11.286   7.548 -0.0216 -0.0398  0.0701
 1140YOPC   NC314813   5.899  11.518   5.468  0.2953 -0.3897 -0.1432
 1140YOPC   PO414814   6.325  11.729   5.477 -0.0033 -0.0317  0.0338
 1140YOPC   GL114815   6.378  11.857   6.001  0.0605  0.4646 -0.0509
 1140YOPC   GL214816   6.476  11.603   6.241 -0.0189  0.1962 -0.0328
 1140YOPC   C1A14817   6.312  12.006   6.465 -0.2201  0.0679 -0.5223
 1140YOPC   D2A14818   6.194  11.959   6.934 -0.0465  0.3796 -0.1413
 1140YOPC   C3A14819   5.894  12.207   7.051  0.0140 -0.1766  0.0197
 1140YOPC   C4A14820   5.642  12.355   7.350  0.3038 -0.1776 -0.1065
 1140YOPC   C1B14821   6.237  11.458   6.585  0.2386 -0.0552 -0.0552
 1140YOPC   C2B14822   5.946  11.439   7.029 -0.0747 -0.0053 -0.0491
 1140YOPC   D3B14823   5.742  11.768   7.313  0.1194  0.1883 -0.1238
 1140YOPC   C4B14824   5.786  11.768   7.798  0.0285 -0.1140  0.2499
 1141YOPC   NC314825   0.911  10.169   5.725 -0.0109 -0.2218  0.1831
 1141YOPC   PO414826   0.860   9.807   5.869 -0.1141  0.5433  0.0873
 1141YOPC   GL114827   1.060   9.882   6.183  0.1162 -0.3959  0.2834
 1141YOPC   GL214828   1.232   9.590   6.130 -0.2083  0.1141 -0.0751
 1141YOPC   C1A14829   1.190   9.893   6.616  0.2291 -0.1746  0.0772
 1141YOPC   D2A14830   1.147   9.914   7.090  0.0049 -0.0506 -0.0454
 1141YOPC   C3A14831   0.883   9.903   7.483 -0.0526  0.0269 -0.0048
 1141YOPC   C4A14832   0.878  10.187   7.836  0.1044 -0.2243  0.1068
 1141YOPC   C1B14833   1.140   9.453   6.479 -0.0357 -0.3238  0.2493
 1141YOPC   C2B14834   1.119   9.330   6.933 -0.0592 -0.0085  0.2196
 1141YOPC   D3B14835   1.196   9.487   7.334 -0.1919  0.1007  0.2832
 1141YOPC   C4B14836   1.440   9.892   7.521 -0.1559 -0.2288  0.0226
 1142YOPC   NC314837  13.088   0.361   5.904  0.0932 -0.0316  0.2001
 1142YOPC   PO414838  13.420  -0.005   5.861  0.2298  0.0882  0.3659
 1142YOPC   GL114839  13.431   0.162   6.258  0.1627  0.1331  0.3294
 1142YOPC   GL214840  13.057  -0.037   6.288 -0.4077  0.1677  0.0184
 1142YOPC   C1A14841  13.357  -0.097   6.660 -0.1304  0.2447 -0.2327
 1142YOPC   D2A14842  13.089  -0.174   7.058 -0.0550 -0.1812  0.1305
 1142YOPC   C3A14843  13.138   0.078   7.509 -0.1631  0.0681 -0.1673
 1142YOPC   C4A14844  13.179   0.488   7.716 -0.1206  0.0020 -0.1788
 1142YOPC   C1B14845  12.850  -0.225   6.619  0.0165  0.0706 -0.0709
 1142YOPC   C2B14846  12.569  -0.309   6.907 -0.4410  0.3466  0.0837
 1142YOPC   D3B14847  12.646  -0.195   7.343 -0.0237  0.0414 -0.0144
 1142YOPC   C4B14848  12.700   0.081   7.756  0.0226  0.0004  0.0044
 1143YOPC   NC314849   5.631   1.933   6.340 -0.0523 -0.0840  0.0104
 1143YOPC   PO414850   6.021   1.839   6.235 -0.0037 -0.2620 -0.0933
 1143YOPC   GL114851   6.238   2.181   6.473  0.0914  0.0197 -0.1663
 1143YOPC   GL214852   6.137   1.967   6.752  0.2825  0.2051  0.1445
 1143YOPC   C1A14853   6.480   2.479   6.649  0.0792  0.3738 -0.3978
 1143YOPC   D2A14854   6.287   2.806   6.926 -0.2309 -0.1804 -0.0850
 1143YOPC   C3A14855   6.463   3.085   7.265  0.2121  0.1069 -0.1033
 1143YOPC   C4A14856   6.417   3.340   7.609  0.3238  0.0040 -0.1377
 1143YOPC   C1B14857   6.009   2.297   7.082 -0.0243 -0.2833 -0.2829
 1143YOPC   C2B14858   6.155   2.697   7.462 -0.1372  0.1752 -0.0398
 1143YOPC   D3B14859   6.399   2.822   7.791 -0.1731 -0.1646 -0.0798
 1143YOPC   C4B14860   6.370   3.207   8.083 -0.0731 -0.0943  0.2991
 1144ERGO   ROH14861   8.371   5.112   9.218  0.0201 -0.0995 -0.0328
 1144ERGO    R114862   8.299   5.077   8.946 -0.1966  0.0485  0.0041
 1144ERGO    R214863   8.287   5.287   8.767 -0.0032  0.0966  0.0528
 1144ERGO    R314864   8.455   5.130   8.622 -0.3144 -0.1241 -0.0843
 1144ERGO    R414865   8.365   5.336   8.434  0.3086  0.4287  0.1676
 1144ERGO    R514866   8.355   5.120   8.405 -0.2333  0.4740 -0.1703
 1144ERGO    C114867   8.568   5.219   8.104  0.1982  0.4150  0.1058
 1144ERGO    C214868   8.648   5.254   7.778 -0.0238  0.0501  0.1321
 1145ERGO   ROH14869   0.530  16.687  10.113 -0.0000 -0.0626  0.0495
 1145ERGO    R114870   0.616  16.765   9.854 -0.1299  0.0371  0.0344
 1145ERGO    R214871   0.794  16.615   9.705  0.0448  0.2500  0.0137
 1145ERGO    R314872   0.598  16.629   9.518 -0.0047 -0.0029  0.0455
 1145ERGO    R414873   0.819  16.494   9.382  0.0343  0.0430  0.0902
 1145ERGO    R514874   0.713  16.670   9.312 -0.0865 -0.0766 -0.0093
 1145ERGO    C114875   0.649  16.435   9.019 -0.0182 -0.3151  0.1646
 1145ERGO    C214876   0.725  16.405   8.650  0.0678 -0.1097 -0.3389
 1146ERGO   ROH14877   8.328  15.163  10.161  0.0402 -0.0398  0.0531
 1146ERGO    R114878   8.419  15.160   9.893  0.1210  0.1194  0.0775
 1146ERGO    R214879   8.269  15.056   9.686  0.3107 -0.0447  0.0175
 1146ERGO    R314880   8.311  15.301   9.575  0.0265  0.0309  0.0707
 1146ERGO    R414881   8.339  15.112   9.352  0.4289  0.0947  0.0647
 1146ERGO    R514882   8.483  15.264   9.413  0.1776  0.2969  0.1670
 1146ERGO    C114883   8.418  15.375   9.054  0.2308  0.2470  0.1420
 1146ERGO    C214884   8.355  15.470   8.754 -0.0298 -0.0779 -0.0224
 1147ERGO   ROH14885   2.660   7.281   6.157 -0.4481 -0.0557  0.1171
 1147ERGO    R114886   2.772   7.355   6.406 -0.2231 -0.1310  0.0406
 1147ERGO    R214887   2.637   7.511   6.590  0.0505  0.0562  0.0916
 1147ERGO    R314888   2.693   7.305   6.758 -0.0819  0.0225  0.0953
 1147ERGO    R414889   2.612   7.523   6.935 -0.1790 -0.0031  0.0785
 1147ERGO    R514890   2.796   7.408   6.947 -0.1994 -0.0220  0.1829
 1147ERGO    C114891   2.650   7.336   7.292 -0.4370 -0.0693  0.0743
 1147ERGO    C214892   2.482   7.526   7.469 -0.5347 -0.0939  0.2095
 1148ERGO   ROH14893   1.784  15.537   9.934  0.0036  0.1767  0.0111
 1148ERGO    R114894   1.887  15.421   9.697  0.0971  0.1566  0.0618
 1148ERGO    R214895   1.775  15.465   9.449  0.1046  0.0152  0.0360
 1148ERGO    R314896   2.028  15.540   9.384  0.0727  0.1313  0.0399
 1148ERGO    R414897   1.928  15.400   9.146  0.1620  0.0072  0.0663
 1148ERGO    R514898   2.112  15.357   9.254  0.1788  0.1341  0.0985
 1148ERGO    C114899   2.255  15.433   8.908  0.1655  0.1116  0.0874
 1148ERGO    C214900   2.483  15.548   8.609 -0.2835 -0.0016 -0.0985
 1149ERGO   ROH14901   3.694   2.065   9.928 -0.1043 -0.1471 -0.0657
 1149ERGO    R114902   3.840   1.980   9.701  0.0141 -0.0401 -0.0295
 1149ERGO    R214903   3.720   1.858   9.484  0.1522 -0.0962 -0.0708
 1149ERGO    R314904   3.844   2.056   9.345  0.0728 -0.0111 -0.0235
 1149ERGO    R414905   3.783   1.851   9.145  0.0380  0.0694 -0.0976
 1149ERGO    R514906   3.978   1.941   9.184  0.0382  0.0835 -0.1229
 1149ERGO    C114907   3.935   2.033   8.816 -0.1031  0.2456 -0.0689
 1149ERGO    C214908   3.778   1.978   8.536 -0.0345  0.2625 -0.2981
 1150ERGO   ROH14909  13.589  13.470   6.603 -0.0090  0.1144  0.2149
 1150ERGO    R114910  13.494  13.459   6.869  0.0638  0.2566  0.2481
 1150ERGO    R214911  13.498  13.227   7.019 -0.2539  0.2373  0.2342
 1150ERGO    R314912  13.632  13.383   7.197  0.0614  0.0202  0.1963
 1150ERGO    R414913  13.521  13.164   7.358 -0.4302  0.2997  0.2589
 1150ERGO    R514914  13.496  13.378   7.394  0.0185  0.3757  0.1832
 1150ERGO    C114915  13.660  13.274   7.722 -0.2368  0.1320  0.2376
 1150ERGO    C214916  13.651  13.220   7.973 -0.1184 -0.3614 -0.5972
 1151ERGO   ROH14917   8.876   6.846   9.321  0.1360 -0.0262  0.1361
 1151ERGO    R114918   8.837   6.994   9.083  0.0998  0.0398  0.1823
 1151ERGO    R214919   9.010   6.978   8.867  0.0482  0.0719  0.1359
 1151ERGO    R314920   8.782   6.920   8.731  0.0080  0.1358  0.1765
 1151ERGO    R414921   8.953   7.057   8.536  0.0563 -0.0165  0.1136
 1151ERGO    R514922   8.748   7.110   8.589  0.0878  0.1019  0.1134
 1151ERGO    C114923   8.706   7.049   8.215  0.0235 -0.0080  0.1387
 1151ERGO    C214924   8.554   7.133   8.042  0.4783  0.1673  0.2248
 1152ERGO   ROH14925  17.284  11.228   6.645 -0.0733  0.2085 -0.1575
 1152ERGO    R114926  17.123  11.347   6.845  0.0789  0.3067 -0.0922
 1152ERGO    R214927  16.999  11.201   7.044 -0.2189  0.3330 -0.2543
 1152ERGO    R314928  17.128  11.375   7.208  0.0404 -0.0261 -0.0621
 1152ERGO    R414929  16.885  11.303   7.354 -0.0622  0.1492 -0.1337
 1152ERGO    R514930  16.953  11.504   7.307  0.2216  0.1139  0.0878
 1152ERGO    C114931  16.940  11.526   7.688  0.2724 -0.2949  0.1169
 1152ERGO    C214932  16.993  11.666   7.948  0.1913  0.3120 -0.2484
 1153ERGO   ROH14933  17.210  12.150   9.949  0.0725 -0.1926  0.0015
 1153ERGO    R114934  17.307  12.005   9.727 -0.0964 -0.3673  0.0385
 1153ERGO    R214935  17.163  11.800   9.608 -0.4250 -0.1124 -0.0273
 1153ERGO    R314936  17.204  11.947   9.383 -0.0645 -0.1681 -0.0041
 1153ERGO    R414937  17.162  11.675   9.286 -0.4367 -0.0966 -0.0327
 1153ERGO    R514938  17.330  11.805   9.239 -0.2065 -0.3608  0.0643
 1153ERGO    C114939  17.199  11.741   8.887 -0.1050 -0.1394 -0.0141
 1153ERGO    C214940  17.284  11.796   8.540  0.0513 -0.1283  0.0598
 1154ERGO   ROH14941  16.456   3.477  10.180 -0.2589  0.0029  0.0049
 1154ERGO    R114942  16.476   3.359   9.923 -0.1595 -0.0433  0.0345
 1154ERGO    R214943  16.256   3.314   9.762 -0.1091 -0.1887  0.0130
 1154ERGO    R314944  16.400   3.456   9.581 -0.1544 -0.1589 -0.0015
 1154ERGO    R414945  16.196   3.317   9.422 -0.2426 -0.0886  0.0354
 1154ERGO    R514946  16.412   3.313   9.389 -0.2501 -0.1131 -0.0472
 1154ERGO    C114947  16.297   3.452   9.053 -0.3626 -0.0024  0.0346
 1154ERGO    C214948  16.199   3.531   8.834  0.0619 -0.1362  0.2520
 1155ERGO   ROH14949   5.734  13.284   5.918  0.0718  0.0448 -0.0786
 1155ERGO    R114950   5.841  13.413   6.146  0.1615 -0.0546 -0.0641
 1155ERGO    R214951   5.686  13.481   6.365  0.1913  0.1003 -0.0932
 1155ERGO    R314952   5.873  13.339   6.501  0.0323 -0.0801 -0.0563
 1155ERGO    R414953   5.742  13.504   6.705  0.0666 -0.0405 -0.0615
 1155ERGO    R514954   5.956  13.493   6.665  0.0783 -0.1865  0.0236
 1155ERGO    C114955   5.951  13.384   7.031 -0.1552 -0.2920 -0.0082
 1155ERGO    C214956   6.023  13.359   7.382  0.1335 -0.0156  0.2558
 1156ERGO   ROH14957  16.130   3.407   6.591 -0.0027  0.1422 -0.1648
 1156ERGO    R114958  16.095   3.423   6.871 -0.0891  0.2335 -0.1801
 1156ERGO    R214959  15.861   3.514   6.987 -0.2982 -0.1563 -0.2787
 1156ERGO    R314960  15.871   3.277   7.119  0.1435 -0.0688 -0.1424
 1156ERGO    R414961  15.756   3.467   7.312 -0.5496 -0.2260 -0.3684
 1156ERGO    R514962  15.930   3.339   7.344 -0.2514  0.2116 -0.1044
 1156ERGO    C114963  15.704   3.217   7.626 -0.2812 -0.1844 -0.2927
 1156ERGO    C214964  15.704   3.308   7.928 -0.1139  0.2140 -0.0399
 1157ERGO   ROH14965  11.033  16.657   6.429 -0.0608 -0.1717  0.0233
 1157ERGO    R114966  11.180  16.605   6.666 -0.0586 -0.1990  0.0165
 1157ERGO    R214967  11.146  16.752   6.898  0.0150 -0.1595  0.0065
 1157ERGO    R314968  11.104  16.507   7.008 -0.0665 -0.1331  0.0324
 1157ERGO    R414969  11.258  16.653   7.209 -0.0227 -0.1719  0.0159
 1157ERGO    R514970  11.307  16.458   7.125 -0.0883 -0.1925  0.0386
 1157ERGO    C114971  11.284  16.366   7.494 -0.1211 -0.1543  0.0456
 1157ERGO    C214972  11.217  16.373   7.852 -0.0653  0.4614  0.3630
 1158ERGO   ROH14973  15.742  10.671  10.211 -0.0600  0.0640  0.0895
 1158ERGO    R114974  15.912  10.677   9.985  0.0544  0.0654  0.1742
 1158ERGO    R214975  15.849  10.550   9.747  0.2125 -0.0055  0.1663
 1158ERGO    R314976  15.892  10.797   9.642  0.1920 -0.0143  0.1380
 1158ERGO    R414977  15.929  10.613   9.417  0.2063 -0.0324  0.1599
 1158ERGO    R514978  16.069  10.765   9.485  0.1925 -0.0147  0.1415
 1158ERGO    C114979  16.015  10.882   9.126  0.1834 -0.0562  0.1296
 1158ERGO    C214980  15.936  11.115   8.965 -0.4496  0.0219  0.4896
 1159ERGO   ROH14981  15.756  12.859  10.337 -0.0039  0.0494  0.0764
 1159ERGO    R114982  15.806  12.973  10.083 -0.0703 -0.0283  0.0281
 1159ERGO    R214983  16.038  12.924   9.941 -0.0291  0.0675  0.0617
 1159ERGO    R314984  15.864  12.851   9.745  0.0295 -0.1392  0.0846
 1159ERGO    R414985  16.130  12.798   9.632  0.0862  0.2804  0.0072
 1159ERGO    R514986  15.972  12.918   9.542 -0.1149  0.0737  0.0754
 1159ERGO    C114987  16.021  12.656   9.269  0.2086  0.2104 -0.0031
 1159ERGO    C214988  16.057  12.639   8.980 -0.0049 -0.0934  0.0985
 1160ERGO   ROH14989  11.743  11.574   9.907 -0.1170  0.0827 -0.0482
 1160ERGO    R114990  11.898  11.485   9.687 -0.0783  0.1625 -0.0528
 1160ERGO    R214991  11.790  11.446   9.434 -0.0446  0.2035 -0.0714
 1160ERGO    R314992  11.990  11.614   9.359 -0.0657  0.2561 -0.0132
 1160ERGO    R414993  11.883  11.511   9.108  0.1103  0.1373 -0.0422
 1160ERGO    R514994  12.091  11.507   9.171  0.0791  0.2345  0.0738
 1160ERGO    C114995  12.124  11.707   8.847  0.1809  0.1480  0.0294
 1160ERGO    C214996  12.145  11.845   8.617 -0.0736  0.3053  0.0863
 1161ERGO   ROH14997  14.355   8.590   9.927  0.1291  0.0719  0.0265
 1161ERGO    R114998  14.377   8.526   9.652 -0.0888  0.1210 -0.0037
 1161ERGO    R214999  14.237   8.662   9.457 -0.0279  0.3471  0.1064
 1161ERGO    R315000  14.484   8.697   9.349 -0.0368  0.0781 -0.0097
 1161ERGO    R415001  14.299   8.754   9.129 -0.0791  0.2523  0.0698
 1161ERGO    R515002  14.464   8.612   9.126 -0.2271  0.0769  0.0062
 1161ERGO    C115003  14.566   8.839   8.837 -0.1173 -0.0553 -0.0604
 1161ERGO    C215004  14.847   8.863   8.678 -0.4876  0.0982 -0.1843
 1162ERGO   ROH15005  18.061  13.468   9.976 -0.0380 -0.0991  0.0524
 1162ERGO    R115006  18.033  13.604   9.730 -0.1425  0.1190  0.1834
 1162ERGO    R215007  18.088  13.486   9.487  0.1117  0.4462  0.0795
 1162ERGO    R315008  17.835  13.565   9.427  0.0171  0.1544  0.0718
 1162ERGO    R415009  17.962  13.521   9.167  0.0228  0.1181  0.0736
 1162ERGO    R515010  17.860  13.702   9.232 -0.1512  0.0615 -0.0210
 1162ERGO    C115011  17.651  13.616   8.925 -0.1177 -0.3471  0.0630
 1162ERGO    C215012  17.646  13.564   8.526 -0.1046 -0.3019 -0.1258
 1163ERGO   ROH15013  15.784   1.969  10.121  0.2527  0.2263 -0.0115
 1163ERGO    R115014  15.840   1.981   9.844  0.3085  0.0864 -0.0069
 1163ERGO    R215015  15.986   1.787   9.713  0.0958 -0.1236  0.0665
 1163ERGO    R315016  15.769   1.779   9.550  0.1085  0.0927  0.0344
 1163ERGO    R415017  15.998   1.746   9.370  0.1098 -0.2507  0.0816
 1163ERGO    R515018  15.839   1.894   9.351  0.2902 -0.0541  0.0072
 1163ERGO    C115019  15.801   1.713   9.017  0.1300 -0.1217  0.0604
 1163ERGO    C215020  16.025   1.639   8.761  0.0459  0.0317  0.2041
 1164ERGO   ROH15021  14.465   1.568   6.232  0.0559 -0.1632 -0.0092
 1164ERGO    R115022  14.291   1.589   6.455  0.3031  0.1408  0.1606
 1164ERGO    R215023  14.144   1.376   6.550 -0.2759  0.4773  0.0500
 1164ERGO    R315024  14.265   1.439   6.785  0.1298 -0.1337  0.0272
 1164ERGO    R415025  14.032   1.278   6.862 -0.4135  0.5850  0.0358
 1164ERGO    R515026  14.083   1.476   6.937  0.3373  0.3739  0.1804
 1164ERGO    C115027  14.079   1.280   7.264 -0.1128  0.0742  0.0062
 1164ERGO    C215028  14.057   0.996   7.388  0.3564  0.3006 -0.2099
 1165ERGO   ROH15029   8.850   5.797   5.655  0.1121  0.0734 -0.0876
 1165ERGO    R115030   8.822   5.699   5.919 -0.0186  0.1091 -0.0871
 1165ERGO    R215031   9.035   5.682   6.095 -0.0778  0.0091 -0.0223
 1165ERGO    R315032   8.871   5.828   6.256 -0.0484  0.1107 -0.0837
 1165ERGO    R415033   9.126   5.818   6.400 -0.1116 -0.0554  0.0164
 1165ERGO    R515034   8.931   5.761   6.478 -0.1787  0.0679 -0.0615
 1165ERGO    C115035   9.025   6.033   6.728 -0.1035  0.0025 -0.0187
 1165ERGO    C215036   9.335   6.072   6.784 -0.1394 -0.0892 -0.0625
 1166ERGO   ROH15037   9.800   1.161   9.839  0.1388 -0.1494  0.0415
 1166ERGO    R115038   9.774   1.148   9.558  0.0602 -0.0631  0.0442
 1166ERGO    R215039   9.769   1.373   9.399  0.0294 -0.0136  0.1124
 1166ERGO    R315040   9.972   1.247   9.269 -0.0131  0.0122  0.0200
 1166ERGO    R415041   9.816   1.376   9.056  0.0091  0.1839  0.1099
 1166ERGO    R515042   9.872   1.165   9.068 -0.0464  0.1630 -0.0245
 1166ERGO    C115043  10.034   1.259   8.735 -0.0427  0.3232  0.0218
 1166ERGO    C215044   9.952   1.460   8.454 -0.1427  0.0011  0.1320
 1167ERGO   ROH15045   2.408  16.515   6.430 -0.0547 -0.0685  0.2281
 1167ERGO    R115046   2.385  16.717   6.626  0.0749 -0.0785  0.2539
 1167ERGO    R215047   2.552  16.732   6.846  0.2713 -0.0440  0.1029
 1167ERGO    R315048   2.595  16.985   6.756  0.1306 -0.0305  0.0699
 1167ERGO    R415049   2.695  16.985   7.033  0.3336 -0.0039  0.0023
 1167ERGO    R515050   2.550  17.123   6.947  0.2269 -0.0456  0.1068
 1167ERGO    C115051   2.818  17.370   7.058  0.2379  0.0321 -0.0873
 1167ERGO    C215052   2.948  17.606   7.256  0.2294  0.1041 -0.0305
 1168ERGO   ROH15053   5.194  11.230   9.960  0.1648  0.0969 -0.0251
 1168ERGO    R115054   5.295  11.288   9.702  0.0743  0.1602 -0.0467
 1168ERGO    R215055   5.322  11.096   9.506  0.2918  0.1448 -0.0024
 1168ERGO    R315056   5.174  11.270   9.359  0.0670 -0.0681 -0.0340
 1168ERGO    R415057   5.312  11.101   9.161  0.3555  0.1232 -0.0047
 1168ERGO    R515058   5.313  11.320   9.170  0.0376  0.1307 -0.0064
 1168ERGO    C115059   5.167  11.268   8.822  0.1816 -0.0893 -0.0358
 1168ERGO    C215060   5.208  11.348   8.581 -0.3460 -0.3709 -0.0944
 1169ERGO   ROH15061   0.887   2.567  10.161  0.0714  0.0742  0.0140
 1169ERGO    R115062   0.946   2.734   9.940 -0.0370  0.0940 -0.0000
 1169ERGO    R215063   1.138   2.669   9.752 -0.0583  0.1601 -0.0425
 1169ERGO    R315064   0.932   2.707   9.578 -0.1105  0.0892  0.0027
 1169ERGO    R415065   1.165   2.654   9.407 -0.1483  0.0777 -0.0468
 1169ERGO    R515066   1.031   2.825   9.394 -0.1749  0.0570 -0.0536
 1169ERGO    C115067   0.988   2.681   9.044 -0.2498 -0.0368 -0.0069
 1169ERGO    C215068   0.916   2.754   8.708 -0.0406 -0.1301  0.2883
 1170ERGO   ROH15069   7.075  14.293   9.922 -0.1138  0.0299  0.0394
 1170ERGO    R115070   7.221  14.285   9.680  0.0071  0.0613  0.1118
 1170ERGO    R215071   7.160  14.110   9.475  0.2003 -0.0107  0.1188
 1170ERGO    R315072   7.151  14.338   9.327  0.1497 -0.0455  0.0654
 1170ERGO    R415073   7.175  14.123   9.130 -0.2870 -0.1277  0.0840
 1170ERGO    R515074   7.304  14.298   9.147 -0.1318 -0.2092 -0.1484
 1170ERGO    C115075   7.177  14.345   8.790 -0.6182 -0.2285  0.0136
 1170ERGO    C215076   7.189  14.548   8.529  0.0206  0.0254 -0.2455
 1171ERGO   ROH15077  10.791   1.076   6.489 -0.0098 -0.0943  0.0115
 1171ERGO    R115078  10.977   1.063   6.701  0.0732 -0.0534 -0.0588
 1171ERGO    R215079  11.149   1.270   6.762 -0.0410  0.0317 -0.0450
 1171ERGO    R315080  11.040   1.245   7.010  0.0665 -0.1275 -0.0116
 1171ERGO    R415081  11.289   1.396   7.052 -0.0270  0.0623 -0.0646
 1171ERGO    R515082  11.229   1.213   7.155  0.1532 -0.0213 -0.0926
 1171ERGO    C115083  11.268   1.446   7.454  0.0822 -0.0693 -0.0447
 1171ERGO    C215084  11.443   1.611   7.650 -0.2507  0.3869 -0.5755
 1172ERGO   ROH15085   7.766   8.436   6.173 -0.2404  0.0910 -0.0520
 1172ERGO    R115086   7.759   8.269   6.401 -0.0696  0.0559 -0.0709
 1172ERGO    R215087   7.978   8.230   6.564  0.0117  0.1466 -0.1579
 1172ERGO    R315088   7.807   8.309   6.760  0.0431  0.0322 -0.0828
 1172ERGO    R415089   7.920   8.057   6.857  0.1867  0.0615 -0.1720
 1172ERGO    R515090   7.708   8.105   6.838  0.1583 -0.0270 -0.0899
 1172ERGO    C115091   7.725   8.030   7.212  0.3180 -0.0957 -0.1098
 1172ERGO    C215092   7.886   8.100   7.585  0.3496 -0.0676  0.3974
 1173ERGO   ROH15093   9.455  13.555  10.046 -0.0488 -0.1151 -0.0043
 1173ERGO    R115094   9.493  13.554   9.766 -0.1400 -0.2322 -0.0172
 1173ERGO    R215095   9.322  13.424   9.593 -0.4602  0.0749  0.0569
 1173ERGO    R315096   9.308  13.668   9.474 -0.0185  0.0927  0.0278
 1173ERGO    R415097   9.340  13.479   9.252 -0.5964 -0.0279  0.0323
 1173ERGO    R515098   9.463  13.654   9.292 -0.1780 -0.2807 -0.0896
 1173ERGO    C115099   9.338  13.741   8.942 -0.2610 -0.0712 -0.0095
 1173ERGO    C215100   9.228  13.758   8.631  0.1571  0.0797  0.0294
 1174ERGO   ROH15101   7.849   6.953   9.307 -0.1848 -0.1185  0.0770
 1174ERGO    R115102   7.893   7.118   9.082 -0.0100 -0.2083  0.0432
 1174ERGO    R215103   7.779   7.068   8.836 -0.0332 -0.1598  0.0414
 1174ERGO    R315104   7.690   7.323   8.860  0.1979 -0.0714 -0.0227
 1174ERGO    R415105   7.784   7.302   8.582 -0.0057 -0.2839 -0.0739
 1174ERGO    R515106   7.845   7.452   8.729  0.2182 -0.2625 -0.1881
 1174ERGO    C115107   7.704   7.679   8.457  0.2272 -0.2731 -0.2012
 1174ERGO    C215108   7.735   7.773   8.081  0.0497  0.0327  0.0495
 1175ERGO   ROH15109  11.873   8.779   6.303  0.1320  0.3015 -0.0959
 1175ERGO    R115110  11.937   8.849   6.570  0.1769  0.1059 -0.0549
 1175ERGO    R215111  11.788   9.031   6.716  0.3769  0.2214 -0.0011
 1175ERGO    R315112  11.774   8.827   6.895  0.1009  0.1597 -0.0874
 1175ERGO    R415113  11.701   9.066   7.048  0.3190  0.1911 -0.0124
 1175ERGO    R515114  11.856   8.921   7.099  0.1510 -0.0061 -0.0245
 1175ERGO    C115115  11.637   8.895   7.410  0.0262  0.1157 -0.0999
 1175ERGO    C215116  11.419   8.752   7.686  0.2318 -0.1352  0.1314
 1176ERGO   ROH15117  10.324  13.973   6.543 -0.0782  0.6507  0.1029
 1176ERGO    R115118  10.315  13.828   6.786 -0.3305  0.2579 -0.1304
 1176ERGO    R215119  10.455  13.906   7.011 -0.0048 -0.4739 -0.0511
 1176ERGO    R315120  10.210  13.892   7.128  0.0036 -0.0313  0.0322
 1176ERGO    R415121  10.399  13.849   7.348  0.0046 -0.2762 -0.0144
 1176ERGO    R515122  10.232  13.720   7.293 -0.2295 -0.0198  0.0787
 1176ERGO    C115123  10.136  13.803   7.653  0.0179  0.2545  0.0852
 1176ERGO    C215124  10.118  13.812   7.957 -0.0242 -0.2161  0.1668
 1177ERGO   ROH15125   2.186  11.152   9.304 -0.1676  0.0128 -0.2703
 1177ERGO    R115126   2.110  11.313   9.083 -0.1566  0.0486 -0.2489
 1177ERGO    R215127   2.294  11.416   8.905 -0.1524  0.0267 -0.2604
 1177ERGO    R315128   2.136  11.294   8.721 -0.1971  0.0749 -0.2530
 1177ERGO    R415129   2.302  11.480   8.565 -0.1525  0.0314 -0.2586
 1177ERGO    R515130   2.084  11.466   8.563 -0.1564  0.0927 -0.2465
 1177ERGO    C115131   2.158  11.401   8.195 -0.1946  0.0793 -0.2507
 1177ERGO    C215132   2.117  11.587   7.799  0.0878  0.2236  0.0552
 1178ERGO   ROH15133  12.513   9.952   6.596 -0.0996  0.0120  0.1191
 1178ERGO    R115134  12.631  10.038   6.839 -0.0081 -0.0762  0.1067
 1178ERGO    R215135  12.514  10.228   7.002  0.1937  0.0797  0.0767
 1178ERGO    R315136  12.542  10.035   7.191 -0.0175  0.0758  0.1055
 1178ERGO    R415137  12.498  10.282   7.343  0.0610  0.1101  0.0657
 1178ERGO    R515138  12.663  10.142   7.368 -0.0384  0.0112  0.1569
 1178ERGO    C115139  12.514  10.133   7.719 -0.2146  0.1243  0.0864
 1178ERGO    C215140  12.221  10.174   7.954  0.3579 -0.0772 -0.1550
 1179ERGO   ROH15141   6.478  13.486   9.661  0.0578 -0.0498  0.0982
 1179ERGO    R115142   6.395  13.476   9.391  0.0406 -0.1495  0.1060
 1179ERGO    R215143   6.377  13.703   9.233 -0.1105 -0.1867  0.0654
 1179ERGO    R315144   6.538  13.560   9.067 -0.0356 -0.1193  0.0802
 1179ERGO    R415145   6.387  13.736   8.889 -0.2210 -0.3092  0.0502
 1179ERGO    R515146   6.404  13.519   8.873 -0.0504 -0.3014  0.1280
 1179ERGO    C115147   6.544  13.621   8.533 -0.2152 -0.3175  0.0550
 1179ERGO    C215148   6.718  13.616   8.207  0.2147  0.0361  0.2274
 1180ERGO   ROH15149   6.783   7.880   6.443 -0.0468 -0.1420 -0.0265
 1180ERGO    R115150   6.796   8.029   6.683 -0.1476 -0.0785 -0.0612
 1180ERGO    R215151   6.580   8.059   6.852 -0.1519 -0.2279 -0.0490
 1180ERGO    R315152   6.752   7.963   7.039 -0.0510 -0.0364 -0.0391
 1180ERGO    R415153   6.600   8.172   7.178 -0.2913 -0.1825 -0.0543
 1180ERGO    R515154   6.817   8.157   7.164 -0.2648  0.0500 -0.0474
 1180ERGO    C115155   6.774   8.148   7.543 -0.2779  0.0238 -0.0482
 1180ERGO    C215156   6.522   8.429   7.713 -0.1629 -0.0174 -0.1416
 1181ERGO   ROH15157  14.068  16.691  10.094 -0.2400  0.3929 -0.0295
 1181ERGO    R115158  14.016  16.665   9.816 -0.1557  0.4143 -0.0461
 1181ERGO    R215159  14.118  16.841   9.629  0.1476  0.2536 -0.0279
 1181ERGO    R315160  14.214  16.613   9.515 -0.0931  0.1134  0.0407
 1181ERGO    R415161  14.153  16.790   9.289  0.5324  0.3164 -0.0036
 1181ERGO    R515162  14.081  16.586   9.317  0.1217  0.4203 -0.1616
 1181ERGO    C115163  14.263  16.546   8.984  0.5305  0.2216  0.0752
 1181ERGO    C215164  14.224  16.581   8.670 -0.0148 -0.2043  0.0184
 1182ERGO   ROH15165   5.200  16.358  10.108  0.1488  0.2625  0.0384
 1182ERGO    R115166   4.988  16.389   9.923  0.0937  0.1581  0.0825
 1182ERGO    R215167   4.979  16.596   9.740 -0.0493  0.1590  0.0850
 1182ERGO    R315168   4.951  16.394   9.561  0.0183  0.1452  0.0908
 1182ERGO    R415169   4.921  16.638   9.402 -0.1825  0.1243  0.1035
 1182ERGO    R515170   4.782  16.470   9.410 -0.0754  0.0403  0.1448
 1182ERGO    C115171   4.861  16.472   9.037 -0.1966  0.0911  0.1196
 1182ERGO    C215172   5.072  16.535   8.802  0.0472  0.0254  0.1893
 1183ERGO   ROH15173   1.872   3.073   6.481 -0.3200  0.0820 -0.0920
 1183ERGO    R115174   2.028   3.107   6.715 -0.2276 -0.1091 -0.1245
 1183ERGO    R215175   2.062   3.353   6.837  0.0090 -0.1689 -0.0684
 1183ERGO    R315176   1.972   3.220   7.056 -0.0410 -0.1521 -0.0782
 1183ERGO    R415177   2.156   3.423   7.162  0.1056 -0.2830 -0.0709
 1183ERGO    R515178   2.163   3.208   7.200 -0.0230 -0.2969 -0.1100
 1183ERGO    C115179   2.127   3.339   7.557  0.1150 -0.3338 -0.0816
 1183ERGO    C215180   2.254   3.377   7.765 -0.1427  0.2300 -0.1142
 1184ERGO   ROH15181  10.760   9.279   9.614  0.0508 -0.0455  0.2015
 1184ERGO    R115182  10.662   9.176   9.370  0.0249 -0.0384  0.2090
 1184ERGO    R215183  10.597   9.337   9.155  0.0935 -0.0403  0.1877
 1184ERGO    R315184  10.768   9.173   9.021  0.0400 -0.1175  0.2136
 1184ERGO    R415185  10.547   9.223   8.833  0.0934 -0.0062  0.1757
 1184ERGO    R515186  10.624   9.028   8.896 -0.0093 -0.0457  0.1844
 1184ERGO    C115187  10.679   9.003   8.519  0.0432 -0.0588  0.1930
 1184ERGO    C215188  10.602   9.026   8.208  0.1304 -0.0129 -0.1502
 1185ERGO   ROH15189   2.034  11.078   6.190  0.0474  0.1118  0.1400
 1185ERGO    R115190   1.979  11.039   6.465  0.0587  0.0777  0.1385
 1185ERGO    R215191   1.803  10.846   6.556 -0.1072  0.2070  0.1108
 1185ERGO    R315192   2.016  10.769   6.706 -0.1466 -0.0337  0.0458
 1185ERGO    R415193   1.788  10.768   6.892 -0.0911  0.1846  0.1056
 1185ERGO    R515194   1.978  10.873   6.919  0.0240 -0.0196  0.0663
 1185ERGO    C115195   1.980  10.651   7.229 -0.1188 -0.0544  0.0416
 1185ERGO    C215196   2.030  10.496   7.554 -0.1109  0.1827 -0.2291
 1186ERGO   ROH15197  10.122   6.846   9.160  0.1792  0.1073  0.0100
 1186ERGO    R115198  10.181   6.821   8.884  0.3076  0.2360  0.0252
 1186ERGO    R215199   9.985   6.834   8.689  0.3488 -0.0258 -0.0342
 1186ERGO    R315200  10.146   7.029   8.587  0.0953  0.2332  0.0459
 1186ERGO    R415201   9.998   6.925   8.356  0.3562  0.0052 -0.0261
 1186ERGO    R515202  10.215   6.943   8.374  0.3265  0.3438  0.0719
 1186ERGO    C115203  10.156   7.160   8.066  0.1225  0.2664  0.0538
 1186ERGO    C215204  10.254   7.391   7.696 -0.3681 -0.2051 -0.3469
 1187ERGO   ROH15205   3.317  16.251  10.033 -0.0664  0.0875  0.1044
 1187ERGO    R115206   3.226  16.420   9.824 -0.0488  0.1122  0.1168
 1187ERGO    R215207   3.356  16.654   9.755  0.0549  0.0344  0.0425
 1187ERGO    R315208   3.357  16.543   9.508 -0.0942  0.0030  0.0554
 1187ERGO    R415209   3.571  16.742   9.500  0.0535 -0.1570 -0.0263
 1187ERGO    R515210   3.404  16.725   9.360  0.0031 -0.0500  0.0208
 1187ERGO    C115211   3.697  16.689   9.118 -0.0873 -0.2976 -0.0540
 1187ERGO    C215212   3.717  16.691   8.771 -0.0962  0.0913  0.0930
 1188ERGO   ROH15213  13.900  14.785  10.020  0.1757 -0.2275  0.1348
 1188ERGO    R115214  13.753  14.725   9.785  0.1460 -0.1664  0.1375
 1188ERGO    R215215  13.804  14.848   9.543  0.0288 -0.0066  0.1909
 1188ERGO    R315216  13.825  14.592   9.455  0.1291  0.0514  0.0444
 1188ERGO    R415217  13.815  14.753   9.211 -0.2753  0.1624  0.1290
 1188ERGO    R515218  13.687  14.584   9.260 -0.0892  0.0394  0.1966
 1188ERGO    C115219  13.842  14.458   8.935 -0.3584  0.3151 -0.0447
 1188ERGO    C215220  13.898  14.341   8.595  0.3944  0.1248 -0.1425
 1189ERGO   ROH15221   8.659   9.650   6.189  0.0492 -0.0165  0.0791
 1189ERGO    R115222   8.705   9.540   6.446  0.1439 -0.0573  0.0448
 1189ERGO    R215223   8.933   9.595   6.592  0.1343  0.0288  0.0260
 1189ERGO    R315224   8.754   9.669   6.783  0.1209 -0.1170  0.0713
 1189ERGO    R415225   9.013   9.667   6.920  0.1187 -0.1862  0.0783
 1189ERGO    R515226   8.833   9.561   6.982  0.1256 -0.2460  0.0020
 1189ERGO    C115227   8.892   9.777   7.291  0.0971 -0.4482  0.1513
 1189ERGO    C215228   9.034   9.741   7.639  0.1279  0.1696  0.2059
 1190ERGO   ROH15229  12.971   3.252   7.705 -0.4792  0.1039 -0.2288
 1190ERGO    R115230  12.875   3.042   7.869 -0.2460  0.1444 -0.0365
 1190ERGO    R215231  12.608   2.973   7.883 -0.1936 -0.0297  0.1567
 1190ERGO    R315232  12.702   2.726   7.821 -0.0611 -0.0089  0.2683
 1190ERGO    R415233  12.412   2.708   7.782 -0.0332 -0.1243  0.0895
 1190ERGO    R515234  12.535   2.576   7.905 -0.0598 -0.0524  0.1960
 1190ERGO    C115235  12.385   2.321   7.664  0.1848 -0.1599  0.1551
 1190ERGO    C215236  11.992   2.107   7.595  0.1011  0.3817 -0.3951
 1191ERGO   ROH15237  13.289  17.895   8.442  0.1927 -0.0450 -0.0041
 1191ERGO    R115238  13.543  17.786   8.382  0.1992 -0.0450  0.0218
 1191ERGO    R215239  13.634  17.754   8.123  0.1576 -0.2025  0.0230
 1191ERGO    R315240  13.846  17.898   8.214  0.1500 -0.1063 -0.1085
 1191ERGO    R415241  13.963  17.704   8.027  0.1605 -0.2673  0.0673
 1191ERGO    R515242  14.023  17.737   8.234  0.1600 -0.0761  0.0364
 1191ERGO    C115243  14.353  17.810   8.058  0.1550 -0.2148 -0.0303
 1191ERGO    C215244  14.678  17.640   8.104  0.3960 -0.1573 -0.1147
 1192ERGO   ROH15245   4.490  15.184   6.238 -0.2824 -0.1296 -0.0266
 1192ERGO    R115246   4.622  15.130   6.482 -0.1655  0.0961 -0.0369
 1192ERGO    R215247   4.516  15.198   6.728 -0.2176  0.0044 -0.0334
 1192ERGO    R315248   4.555  14.935   6.782  0.1453  0.0623  0.0147
 1192ERGO    R415249   4.517  15.060   7.045 -0.1492  0.0453 -0.0156
 1192ERGO    R515250   4.684  14.934   6.984  0.0647  0.2782  0.0702
 1192ERGO    C115251   4.553  14.732   7.280  0.2313  0.1235  0.0399
 1192ERGO    C215252   4.503  14.577   7.539 -0.0962 -0.0065 -0.0016
 1193ERGO   ROH15253  10.853   5.817   9.265  0.2323 -0.0907  0.2687
 1193ERGO    R115254  10.994   5.673   9.066  0.1075 -0.0009  0.1129
 1193ERGO    R215255  10.873   5.577   8.837 -0.0344  0.1126  0.1426
 1193ERGO    R315256  11.072   5.715   8.713 -0.1055  0.1632  0.0829
 1193ERGO    R415257  10.988   5.513   8.518 -0.0107  0.0360  0.1658
 1193ERGO    R515258  11.191   5.549   8.589 -0.0241  0.1682  0.1494
 1193ERGO    C115259  11.241   5.605   8.215 -0.0637  0.0388  0.1233
 1193ERGO    C215260  11.299   5.584   7.870  0.0944  0.3840  0.0763
 1194ERGO   ROH15261   3.301  14.060  10.026 -0.1883 -0.5148 -0.1686
 1194ERGO    R115262   3.127  14.010   9.809 -0.1429 -0.3582 -0.2422
 1194ERGO    R215263   2.973  14.209   9.692 -0.0501 -0.2574 -0.1890
 1194ERGO    R315264   3.094  14.123   9.464 -0.0148 -0.1831 -0.1990
 1194ERGO    R415265   2.842  14.243   9.374  0.0734  0.0049 -0.2140
 1194ERGO    R515266   2.914  14.043   9.328 -0.0139 -0.0083 -0.3098
 1194ERGO    C115267   2.880  14.184   8.975  0.1784  0.2275 -0.2379
 1194ERGO    C215268   2.942  14.208   8.664  0.2237 -0.0034 -0.0438
 1195ERGO   ROH15269   7.441  13.346  10.050 -0.0141  0.0406 -0.0367
 1195ERGO    R115270   7.450  13.192   9.813 -0.1984  0.0070 -0.0233
 1195ERGO    R215271   7.269  13.226   9.607 -0.1281  0.2454 -0.0499
 1195ERGO    R315272   7.494  13.257   9.458 -0.0606 -0.0802 -0.0226
 1195ERGO    R415273   7.273  13.273   9.265 -0.0269  0.3812 -0.0306
 1195ERGO    R515274   7.446  13.140   9.254 -0.2515  0.0841 -0.0740
 1195ERGO    C115275   7.487  13.330   8.925  0.0955  0.1546  0.0063
 1195ERGO    C215276   7.546  13.261   8.461  0.3953  0.2868  0.0308
 1196ERGO   ROH15277   7.576   5.050   5.988  0.0594  0.1132  0.1635
 1196ERGO    R115278   7.574   4.918   6.238 -0.0832  0.0969  0.1543
 1196ERGO    R215279   7.800   4.890   6.394 -0.1001 -0.1984  0.1303
 1196ERGO    R315280   7.644   5.005   6.585  0.0608 -0.0142  0.1548
 1196ERGO    R415281   7.884   4.916   6.728  0.0578 -0.1468  0.0872
 1196ERGO    R515282   7.678   4.868   6.779  0.0381  0.0247  0.1882
 1196ERGO    C115283   7.787   5.039   7.102  0.3008  0.0562  0.0852
 1196ERGO    C215284   7.937   5.168   7.411  0.1608  0.0892 -0.0085
 1197ERGO   ROH15285  14.981  17.160  10.038  0.0408  0.1009  0.0821
 1197ERGO    R115286  15.128  17.171   9.796  0.0058  0.0079  0.0564
 1197ERGO    R215287  15.167  16.949   9.636 -0.1996 -0.0069  0.0281
 1197ERGO    R315288  15.062  17.110   9.443 -0.1059  0.0949  0.0607
 1197ERGO    R415289  15.188  16.889   9.296 -0.4707 -0.1094  0.0271
 1197ERGO    R515290  15.222  17.103   9.266 -0.2101 -0.1519 -0.0327
 1197ERGO    C115291  15.101  17.006   8.918 -0.5407 -0.0731  0.0570
 1197ERGO    C215292  15.170  16.961   8.534  0.5171  0.0612 -0.0005
 1198ERGO   ROH15293  16.055  11.456   9.930  0.0396  0.0035 -0.1420
 1198ERGO    R115294  16.230  11.435   9.709  0.0229 -0.1418 -0.1427
 1198ERGO    R215295  16.221  11.222   9.532 -0.2017 -0.1014 -0.1841
 1198ERGO    R315296  16.197  11.419   9.347  0.0125 -0.0379 -0.1467
 1198ERGO    R415297  16.346  11.207   9.210 -0.0632 -0.1058 -0.1303
 1198ERGO    R515298  16.406  11.416   9.229  0.0667 -0.1469 -0.0515
 1198ERGO    C115299  16.396  11.382   8.849  0.2185 -0.0488 -0.0640
 1198ERGO    C215300  16.453  11.280   8.502 -0.0707  0.0308  0.0518
 1199ERGO   ROH15301  10.301   1.043   9.635  0.0681  0.2117 -0.0102
 1199ERGO    R115302  10.383   1.038   9.364  0.0692 -0.0481 -0.0064
 1199ERGO    R215303  10.405   0.803   9.220 -0.2132 -0.1612  0.1359
 1199ERGO    R315304  10.239   0.932   9.047 -0.0521 -0.0619  0.0508
 1199ERGO    R415305  10.428   0.788   8.875 -0.0840 -0.2350  0.1462
 1199ERGO    R515306  10.382   1.001   8.867  0.0765 -0.1957  0.0950
 1199ERGO    C115307  10.285   0.900   8.512  0.1425 -0.1848  0.0723
 1199ERGO    C215308  10.312   1.065   8.238  0.0492 -0.3620  0.2485
 1200ERGO   ROH15309  14.683  16.122   6.522 -0.1107 -0.3049  0.1567
 1200ERGO    R115310  14.839  16.136   6.758 -0.0417 -0.1694  0.1035
 1200ERGO    R215311  14.862  16.367   6.908 -0.1111 -0.1239  0.0387
 1200ERGO    R315312  14.780  16.205   7.111  0.0384 -0.1156  0.1076
 1200ERGO    R415313  14.895  16.440   7.244  0.0376 -0.0504  0.0091
 1200ERGO    R515314  14.949  16.231   7.279  0.1195 -0.0324  0.0190
 1200ERGO    C115315  14.838  16.331   7.630  0.2646 -0.0001  0.0566
 1200ERGO    C215316  14.720  16.535   7.909 -0.0091 -0.1151  0.0068
 1201ERGO   ROH15317   4.641   8.234   9.595  0.0909  0.1219  0.1058
 1201ERGO    R115318   4.683   8.215   9.316  0.0327  0.0682  0.1005
 1201ERGO    R215319   4.899   8.083   9.206  0.0324  0.0835  0.0808
 1201ERGO    R315320   4.707   7.948   9.069  0.0270  0.0189  0.1533
 1201ERGO    R415321   4.953   7.907   8.914  0.0031  0.0198  0.1141
 1201ERGO    R515322   4.763   7.983   8.839 -0.0242 -0.0294  0.1333
 1201ERGO    C115323   4.804   7.677   8.615 -0.0190 -0.0780  0.2013
 1201ERGO    C215324   4.956   7.464   8.390 -0.0009  0.3085 -0.0216
 1202ERGO   ROH15325   8.195  14.103   9.949  0.0934  0.0776 -0.0908
 1202ERGO    R115326   8.336  14.039   9.712  0.1507  0.2190 -0.0946
 1202ERGO    R215327   8.209  13.994   9.470  0.1845  0.0544 -0.0781
 1202ERGO    R315328   8.380  14.187   9.383 -0.0386  0.2419 -0.1119
 1202ERGO    R415329   8.275  14.065   9.138  0.1619  0.0069 -0.0935
 1202ERGO    R515330   8.485  14.091   9.190  0.1253  0.2941 -0.0548
 1202ERGO    C115331   8.473  14.287   8.863 -0.0608  0.1552 -0.1340
 1202ERGO    C215332   8.528  14.502   8.594 -0.1482 -0.1370  0.0567
 1203ERGO   ROH15333  14.183   4.481   6.519  0.1199 -0.0525 -0.0407
 1203ERGO    R115334  14.240   4.488   6.796  0.0507  0.0192 -0.0281
 1203ERGO    R215335  14.493   4.539   6.895  0.0449 -0.0443  0.0196
 1203ERGO    R315336  14.363   4.733   7.034  0.0830  0.0526 -0.0789
 1203ERGO    R415337  14.577   4.645   7.214 -0.0488 -0.0296  0.0396
 1203ERGO    R515338  14.365   4.656   7.261 -0.0661  0.0941 -0.0627
 1203ERGO    C115339  14.504   4.888   7.529 -0.0676  0.0700 -0.0411
 1203ERGO    C215340  14.390   4.904   7.879  0.1096  0.0762 -0.0889
 1204ERGO   ROH15341   3.967  14.073   6.420  0.2474 -0.4437  0.1015
 1204ERGO    R115342   3.984  14.001   6.693  0.1702 -0.2482  0.1611
 1204ERGO    R215343   4.125  14.150   6.878  0.1924 -0.1569  0.0836
 1204ERGO    R315344   3.888  14.148   7.012  0.1616  0.0276  0.0310
 1204ERGO    R415345   4.092  14.163   7.222  0.1062 -0.0017  0.0693
 1204ERGO    R515346   3.931  14.017   7.207  0.0344  0.0866  0.0927
 1204ERGO    C115347   3.852  14.168   7.548  0.0271  0.2619  0.0117
 1204ERGO    C215348   3.831  14.036   7.837  0.0918 -0.3434 -0.0285
 1205ERGO   ROH15349   4.558  13.441   9.616 -0.0456  0.1985  0.1582
 1205ERGO    R115350   4.441  13.552   9.384 -0.0865  0.0199  0.0931
 1205ERGO    R215351   4.562  13.752   9.237 -0.2021  0.0390  0.0290
 1205ERGO    R315352   4.527  13.578   9.031 -0.0531 -0.0699  0.0933
 1205ERGO    R415353   4.600  13.830   8.902 -0.4102 -0.0037 -0.0068
 1205ERGO    R515354   4.425  13.709   8.859 -0.2787 -0.2416  0.0873
 1205ERGO    C115355   4.590  13.712   8.515 -0.3916 -0.1308  0.0327
 1205ERGO    C215356   4.669  13.780   8.156  0.0691 -0.1433  0.0686
 1206ERGO   ROH15357   6.625   5.249   9.332 -0.2261 -0.3585 -0.0691
 1206ERGO    R115358   6.727   5.231   9.069 -0.1286 -0.0915 -0.0524
 1206ERGO    R215359   6.693   5.007   8.911  0.0951 -0.0074 -0.2236
 1206ERGO    R315360   6.591   5.186   8.735  0.0112  0.0392 -0.1287
 1206ERGO    R415361   6.717   4.980   8.567  0.2274  0.2517 -0.2370
 1206ERGO    R515362   6.753   5.195   8.558  0.0632  0.2900 -0.0727
 1206ERGO    C115363   6.634   5.133   8.201  0.2258  0.4463 -0.1557
 1206ERGO    C215364   6.699   5.132   7.850 -0.0486  0.3731 -0.1374
 1207ERGO   ROH15365  13.176  14.928   6.573 -0.0883  0.0905  0.0333
 1207ERGO    R115366  13.307  14.949   6.823  0.0144  0.0289 -0.0155
 1207ERGO    R215367  13.194  15.078   7.040  0.1053 -0.0241  0.0591
 1207ERGO    R315368  13.243  14.842   7.165  0.1563 -0.0529 -0.0128
 1207ERGO    R415369  13.218  15.036   7.382  0.2893 -0.0853  0.0406
 1207ERGO    R515370  13.384  14.900   7.349  0.2644 -0.0944 -0.0778
 1207ERGO    C115371  13.278  14.790   7.698  0.4442 -0.1479 -0.0377
 1207ERGO    C215372  13.002  14.757   8.007  0.1062 -0.2880 -0.3369
 1208ERGO   ROH15373  12.494   6.768   9.730 -0.1792 -0.1344 -0.0174
 1208ERGO    R115374  12.472   6.888   9.475 -0.0340 -0.0444  0.0121
 1208ERGO    R215375  12.685   6.902   9.299 -0.0027 -0.2174  0.0356
 1208ERGO    R315376  12.511   6.782   9.129 -0.1141  0.0059 -0.0125
 1208ERGO    R415377  12.763   6.796   8.980 -0.0341 -0.3711  0.0780
 1208ERGO    R515378  12.569   6.869   8.913  0.0903 -0.1020 -0.0035
 1208ERGO    C115379  12.645   6.621   8.634 -0.1572 -0.2510  0.0575
 1208ERGO    C215380  12.756   6.335   8.394 -0.1517 -0.0164 -0.1913
 1209ERGO   ROH15381  15.217  15.129   9.989  0.3342  0.1659 -0.0854
 1209ERGO    R115382  15.330  15.076   9.735  0.2002  0.0895 -0.1302
 1209ERGO    R215383  15.249  14.863   9.578  0.0859  0.0692 -0.0433
 1209ERGO    R315384  15.212  15.058   9.392  0.0290  0.0328 -0.0699
 1209ERGO    R415385  15.294  14.823   9.237  0.1359  0.0374 -0.0327
 1209ERGO    R515386  15.385  15.021   9.231  0.0622  0.0751 -0.0477
 1209ERGO    C115387  15.284  14.982   8.865  0.1115 -0.0153 -0.0514
 1209ERGO    C215388  15.415  15.018   8.565 -0.1840  0.0518  0.2989
 1210ERGO   ROH15389  11.564   3.990   9.845 -0.2158  0.0016  0.0502
 1210ERGO    R115390  11.542   3.846   9.602 -0.0216 -0.0641  0.0680
 1210ERGO    R215391  11.385   3.934   9.391 -0.1651 -0.3139  0.0612
 1210ERGO    R315392  11.617   3.907   9.251 -0.1278  0.0058  0.0580
 1210ERGO    R415393  11.405   3.876   9.051 -0.0933 -0.4230  0.0847
 1210ERGO    R515394  11.569   3.738   9.089  0.1374 -0.1411  0.1314
 1210ERGO    C115395  11.634   3.817   8.722 -0.0165 -0.1864  0.0954
 1210ERGO    C215396  11.630   3.714   8.426 -0.2173 -0.0376  0.1801
 1211ERGO   ROH15397  15.602  17.168  10.155  0.0890 -0.2154  0.0788
 1211ERGO    R115398  15.710  17.137   9.896 -0.0447 -0.2827  0.0312
 1211ERGO    R215399  15.607  16.958   9.711 -0.3440 -0.0977  0.0199
 1211ERGO    R315400  15.593  17.179   9.554 -0.1156 -0.0336  0.0823
 1211ERGO    R415401  15.634  16.957   9.367 -0.4943 -0.0574  0.0065
 1211ERGO    R515402  15.753  17.139   9.380 -0.2376 -0.2136  0.0025
 1211ERGO    C115403  15.635  17.164   9.018 -0.3674  0.0261  0.0574
 1211ERGO    C215404  15.587  17.071   8.712 -0.3960 -0.1212  0.0775
 1212ERGO   ROH15405   0.023   6.206   6.604 -0.1300  0.1677  0.0051
 1212ERGO    R115406   0.083   6.345   6.844 -0.1245  0.1612  0.0070
 1212ERGO    R215407  -0.109   6.481   6.989 -0.1338  0.0935  0.0532
 1212ERGO    R315408  -0.018   6.326   7.193 -0.0545  0.1017  0.0251
 1212ERGO    R415409  -0.076   6.585   7.317 -0.2641  0.0338  0.0863
 1212ERGO    R515410   0.112   6.475   7.328 -0.1825  0.1640  0.0859
 1212ERGO    C115411   0.029   6.500   7.699 -0.2656  0.0067  0.0792
 1212ERGO    C215412  -0.219   6.486   8.062  0.0044  0.3060  0.0651
 1213ERGO   ROH15413  16.574  15.567  10.204  0.0561 -0.2369 -0.0841
 1213ERGO    R115414  16.534  15.432   9.959  0.0493 -0.0928 -0.1630
 1213ERGO    R215415  16.311  15.473   9.801  0.0277 -0.0287 -0.1111
 1213ERGO    R315416  16.497  15.524   9.608 -0.0030  0.1148 -0.1054
 1213ERGO    R415417  16.247  15.476   9.461 -0.0325  0.2238 -0.1001
 1213ERGO    R515418  16.438  15.375   9.429 -0.0351  0.2449 -0.2074
 1213ERGO    C115419  16.384  15.525   9.083 -0.0965  0.5054 -0.0884
 1213ERGO    C215420  16.322  15.541   8.785  0.0473 -0.1068  0.3008
 1214ERGO   ROH15421   8.040  11.644   6.292  0.2942 -0.0002 -0.0537
 1214ERGO    R115422   7.932  11.546   6.535  0.0869 -0.0321 -0.1567
 1214ERGO    R215423   8.084  11.409   6.721 -0.0823 -0.0971 -0.0671
 1214ERGO    R315424   7.989  11.600   6.890 -0.1810 -0.1177 -0.0976
 1214ERGO    R415425   8.142  11.416   7.061 -0.0120  0.0304 -0.0807
 1214ERGO    R515426   7.935  11.479   7.090 -0.0534 -0.1072 -0.0538
 1214ERGO    C115427   8.088  11.598   7.419 -0.0637  0.0852 -0.1172
 1214ERGO    C215428   8.163  11.737   7.720 -0.3887  0.1436  0.3105
 1215ERGO   ROH15429  11.966  17.223   9.988  0.3555 -0.0299 -0.0140
 1215ERGO    R115430  11.918  17.111   9.733  0.3842 -0.1252  0.0217
 1215ERGO    R215431  11.745  17.226   9.550  0.1267 -0.3834  0.0923
 1215ERGO    R315432  11.962  17.215   9.386  0.0683 -0.0947 -0.0114
 1215ERGO    R415433  11.733  17.240   9.205 -0.0375 -0.3032  0.1001
 1215ERGO    R515434  11.888  17.087   9.198  0.1319 -0.1266 -0.0114
 1215ERGO    C115435  11.930  17.238   8.850 -0.1882  0.0145  0.0073
 1215ERGO    C215436  11.993  17.356   8.542  0.0483  0.2190  0.0878
 1216ERGO   ROH15437   2.526  17.988   6.267  0.0012 -0.0721 -0.0438
 1216ERGO    R115438   2.681  18.099   6.476  0.0338 -0.0508 -0.0801
 1216ERGO    R215439   2.815  18.339   6.450  0.0047 -0.0428 -0.1164
 1216ERGO    R315440   2.677  18.404   6.675  0.0490 -0.0444 -0.0874
 1216ERGO    R415441   2.911  18.580   6.679 -0.0509  0.1051 -0.2460
 1216ERGO    R515442   2.846  18.447   6.839  0.0907  0.1214 -0.1677
 1216ERGO    C115443   2.836  18.780   7.024 -0.0416  0.1897 -0.2942
 1216ERGO    C215444   2.734  19.122   7.194  0.0886 -0.1889  0.1013
 1217ERGO   ROH15445   7.285  17.050  10.101  0.0465  0.0576  0.0301
 1217ERGO    R115446   7.182  16.896   9.887  0.0936 -0.0160  0.0596
 1217ERGO    R215447   6.975  16.985   9.726 -0.0095 -0.1576  0.1111
 1217ERGO    R315448   7.152  16.932   9.526 -0.0253 -0.0419  0.0665
 1217ERGO    R415449   6.889  16.940   9.394 -0.0303  0.0917  0.0811
 1217ERGO    R515450   7.036  16.778   9.383 -0.0548  0.0765 -0.0395
 1217ERGO    C115451   7.005  16.864   9.013 -0.0573  0.3458  0.0218
 1217ERGO    C215452   6.932  16.902   8.759 -0.0652 -0.1740 -0.1758
 1218ERGO   ROH15453   2.765   5.152   6.364 -0.1567 -0.2272 -0.1247
 1218ERGO    R115454   2.848   5.243   6.619 -0.1482 -0.1112 -0.1681
 1218ERGO    R215455   2.807   5.097   6.849 -0.0776 -0.0389 -0.1088
 1218ERGO    R315456   3.075   5.130   6.879 -0.0826  0.0463 -0.1558
 1218ERGO    R415457   2.978   5.066   7.148 -0.0176  0.0335 -0.1352
 1218ERGO    R515458   3.099   5.238   7.092 -0.0805  0.0674 -0.1668
 1218ERGO    C115459   3.329   5.078   7.350  0.0127  0.1555 -0.1947
 1218ERGO    C215460   3.196   4.874   7.676 -0.0038  0.1620 -0.2096
 1219ERGO   ROH15461   0.182   0.748   9.906 -0.0161  0.0462 -0.1211
 1219ERGO    R115462   0.000   0.788   9.693  0.0113  0.0223 -0.1490
 1219ERGO    R215463  -0.010   1.022   9.547 -0.0427  0.0479 -0.1064
 1219ERGO    R315464   0.021   0.854   9.335  0.0588  0.0976 -0.1320
 1219ERGO    R415465  -0.045   1.113   9.215  0.0608  0.1080 -0.1018
 1219ERGO    R515466  -0.146   0.923   9.179  0.1046  0.1011 -0.1775
 1219ERGO    C115467  -0.037   1.007   8.823  0.2164  0.1897 -0.1230
 1219ERGO    C215468  -0.042   1.330   8.609  0.2122  0.0792 -0.1449
 1220ERGO   ROH15469   3.172   9.269   9.224  0.1891  0.0033 -0.0521
 1220ERGO    R115470   3.018   9.279   8.986  0.1397 -0.1207 -0.0266
 1220ERGO    R215471   2.956   9.517   8.859 -0.0506 -0.1706 -0.0333
 1220ERGO    R315472   3.067   9.394   8.644  0.0010 -0.1079 -0.0422
 1220ERGO    R415473   2.961   9.645   8.539 -0.0506 -0.1208 -0.0131
 1220ERGO    R515474   2.920   9.445   8.463  0.0076 -0.1174 -0.0484
 1220ERGO    C115475   3.068   9.604   8.150 -0.0021 -0.0329 -0.0098
 1220ERGO    C215476   3.237   9.437   7.843 -0.0764  0.0309  0.1265
 1221ERGO   ROH15477  16.160   6.692   6.624 -0.0785  0.1261 -0.0386
 1221ERGO    R115478  16.243   6.676   6.894 -0.1520 -0.0266 -0.0227
 1221ERGO    R215479  16.452   6.826   6.995 -0.0388 -0.2338  0.0724
 1221ERGO    R315480  16.266   6.903   7.178 -0.0186 -0.1273  0.0465
 1221ERGO    R415481  16.515   6.877   7.331 -0.0243 -0.1047  0.0492
 1221ERGO    R515482  16.324   6.782   7.376 -0.0356 -0.0519  0.0942
 1221ERGO    C115483  16.377   6.979   7.698  0.0029  0.0706  0.0113
 1221ERGO    C215484  16.734   7.077   7.992  0.3436  0.1914 -0.2890
 1222ERGO   ROH15485  17.411  14.192  10.379 -0.2383  0.3117  0.1549
 1222ERGO    R115486  17.293  14.081  10.147 -0.0503  0.1736  0.1224
 1222ERGO    R215487  17.082  14.202  10.015 -0.1181 -0.0384  0.0322
 1222ERGO    R315488  17.247  14.181   9.800 -0.0185  0.0932  0.0945
 1222ERGO    R415489  16.995  14.281   9.690 -0.1201 -0.2786 -0.0276
 1222ERGO    R515490  17.105  14.106   9.623  0.1341 -0.1643  0.0760
 1222ERGO    C115491  17.099  14.308   9.299 -0.0278 -0.2948 -0.0041
 1222ERGO    C215492  17.080  14.433   8.912  0.0463 -0.1909 -0.1937
 1223ERGO   ROH15493   0.042   3.869   6.280 -0.0462 -0.1681 -0.0343
 1223ERGO    R115494   0.074   3.904   6.559 -0.0352 -0.1006 -0.0441
 1223ERGO    R215495  -0.031   4.120   6.695 -0.0170 -0.0597 -0.0949
 1223ERGO    R315496  -0.143   3.927   6.850 -0.0244 -0.0140 -0.0426
 1223ERGO    R415497  -0.221   4.179   6.979  0.0506  0.0201 -0.0657
 1223ERGO    R515498  -0.121   4.010   7.074  0.0360  0.0155 -0.0595
 1223ERGO    C115499  -0.436   4.032   7.289  0.0825  0.1096  0.0004
 1223ERGO    C215500  -0.555   4.207   7.575 -0.3011  0.1802  0.0179
 1224ERGO   ROH15501  15.160   7.542   9.961 -0.2841 -0.1269 -0.1184
 1224ERGO    R115502  15.250   7.582   9.695 -0.1779 -0.0986 -0.0769
 1224ERGO    R215503  15.315   7.373   9.527 -0.3277 -0.0846 -0.1394
 1224ERGO    R315504  15.136   7.493   9.361 -0.1703  0.1471 -0.1498
 1224ERGO    R415505  15.317   7.345   9.183 -0.3787 -0.1650 -0.1346
 1224ERGO    R515506  15.267   7.557   9.170 -0.0739 -0.0800 -0.1726
 1224ERGO    C115507  15.150   7.440   8.826 -0.2606  0.0056 -0.1417
 1224ERGO    C215508  15.177   7.391   8.448 -0.1047 -0.0158 -0.4971
 1225ERGO   ROH15509  14.220  13.387  10.057  0.0092  0.0498 -0.0625
 1225ERGO    R115510  14.060  13.365   9.825 -0.0148 -0.0146 -0.0420
 1225ERGO    R215511  13.960  13.585   9.690 -0.1962 -0.0507  0.0155
 1225ERGO    R315512  14.083  13.470   9.477 -0.1421  0.0775 -0.0209
 1225ERGO    R415513  13.947  13.705   9.367 -0.3754 -0.0496  0.0236
 1225ERGO    R515514  13.929  13.499   9.296 -0.2034 -0.0549  0.0168
 1225ERGO    C115515  14.055  13.667   8.978 -0.4291  0.0715 -0.0058
 1225ERGO    C215516  13.930  13.780   8.650 -0.1127 -0.1795 -0.0196
 1226ERGO   ROH15517   5.963   6.306   9.647 -0.1690 -0.2299 -0.0148
 1226ERGO    R115518   5.959   6.254   9.369 -0.1364 -0.2617 -0.0054
 1226ERGO    R215519   5.726   6.256   9.220 -0.0793 -0.0526 -0.0633
 1226ERGO    R315520   5.863   6.434   9.067  0.1332 -0.2108 -0.0697
 1226ERGO    R415521   5.645   6.340   8.895 -0.3685  0.4425  0.1221
 1226ERGO    R515522   5.858   6.340   8.847 -0.4031 -0.0113 -0.1722
 1226ERGO    C115523   5.726   6.556   8.562 -0.3375  0.5824  0.2241
 1226ERGO    C215524   5.687   6.852   8.403 -0.1716  0.1970 -0.2218
 1227ERGO   ROH15525  15.606   3.600  10.170  0.3430  0.0002  0.0883
 1227ERGO    R115526  15.428   3.643   9.954  0.1873 -0.1563  0.1830
 1227ERGO    R215527  15.502   3.778   9.725 -0.0929  0.0288  0.2003
 1227ERGO    R315528  15.413   3.553   9.602  0.1509 -0.0468  0.1549
 1227ERGO    R415529  15.402   3.760   9.395 -0.1313  0.0103  0.2126
 1227ERGO    R515530  15.238   3.630   9.457  0.0290 -0.2055  0.2087
 1227ERGO    C115531  15.259   3.539   9.087  0.0751 -0.0714  0.1771
 1227ERGO    C215532  15.154   3.731   8.847 -0.0249  0.3418 -0.0274
 1228ERGO   ROH15533   1.510   5.555   9.854  0.0775 -0.2936 -0.1548
 1228ERGO    R115534   1.609   5.580   9.590 -0.1015 -0.1860 -0.2129
 1228ERGO    R215535   1.592   5.375   9.405 -0.0141 -0.1933 -0.2080
 1228ERGO    R315536   1.471   5.566   9.254 -0.2870 -0.3028 -0.1347
 1228ERGO    R415537   1.602   5.388   9.060 -0.1531 -0.1342 -0.2108
 1228ERGO    R515538   1.625   5.604   9.074 -0.3910 -0.1040 -0.1872
 1228ERGO    C115539   1.493   5.574   8.717 -0.4902 -0.2024 -0.1435
 1228ERGO    C215540   1.571   5.454   8.458 -0.0274 -0.3282 -0.0213
 1229ERGO   ROH15541   0.148  10.368   9.989  0.1428  0.3124 -0.0908
 1229ERGO    R115542  -0.061  10.389   9.799  0.0553  0.0066 -0.0304
 1229ERGO    R215543  -0.038  10.536   9.567 -0.2081 -0.0038 -0.0542
 1229ERGO    R315544  -0.111  10.302   9.449  0.0526 -0.1173 -0.0032
 1229ERGO    R415545  -0.123  10.501   9.234 -0.5068 -0.0723  0.0247
 1229ERGO    R515546  -0.282  10.365   9.294 -0.2320 -0.3594  0.1859
 1229ERGO    C115547  -0.241  10.261   8.929 -0.4358 -0.2187  0.1185
 1229ERGO    C215548  -0.274  10.205   8.611  0.1636 -0.1886 -0.0368
 1230ERGO   ROH15549  14.670  10.161   6.819  0.0318 -0.3085 -0.1255
 1230ERGO    R115550  14.654  10.194   7.100 -0.0115 -0.0293 -0.1575
 1230ERGO    R215551  14.752  10.006   7.278 -0.2570  0.0280  0.0472
 1230ERGO    R315552  14.889  10.219   7.377 -0.0586 -0.0198 -0.1192
 1230ERGO    R415553  14.851  10.043   7.607 -0.3941  0.2839  0.0626
 1230ERGO    R515554  14.798  10.253   7.595 -0.1388  0.3372 -0.2043
 1230ERGO    C115555  15.038  10.264   7.891 -0.2876  0.3880 -0.0846
 1230ERGO    C215556  15.243  10.158   8.068  0.4436 -0.2781  0.0634
 1231ERGO   ROH15557   9.433  17.345   6.808 -0.0209 -0.0394 -0.0554
 1231ERGO    R115558   9.446  17.452   7.069 -0.0635 -0.2040  0.0153
 1231ERGO    R215559   9.427  17.294   7.295  0.1771 -0.3840 -0.0846
 1231ERGO    R315560   9.662  17.415   7.360  0.0652 -0.1663 -0.0749
 1231ERGO    R415561   9.558  17.314   7.615  0.2047 -0.3696 -0.0968
 1231ERGO    R515562   9.619  17.519   7.571 -0.0107 -0.2884 -0.0298
 1231ERGO    C115563   9.854  17.439   7.861  0.1156 -0.1571 -0.0948
 1231ERGO    C215564  10.031  17.525   8.126 -0.3693 -0.0749  0.2673
 1232ERGO   ROH15565  13.693   4.635   9.988 -0.1831  0.1418 -0.0900
 1232ERGO    R115566  13.585   4.717   9.740 -0.1817 -0.0300 -0.1489
 1232ERGO    R215567  13.664   4.949   9.613 -0.3209 -0.0178 -0.2134
 1232ERGO    R315568  13.710   4.781   9.405 -0.1431 -0.0612 -0.1408
 1232ERGO    R415569  13.739   5.049   9.291 -0.1444 -0.0807 -0.1929
 1232ERGO    R515570  13.610   4.890   9.217 -0.0554 -0.1365 -0.2333
 1232ERGO    C115571  13.826   4.949   8.908  0.1252 -0.1581 -0.1128
 1232ERGO    C215572  13.872   4.920   8.552  0.0403  0.0210  0.1562
 1233ERGO   ROH15573  10.801  16.556  10.028  0.0763 -0.2849 -0.0934
 1233ERGO    R115574  10.748  16.597   9.753  0.0315 -0.2033 -0.0735
 1233ERGO    R215575  10.861  16.805   9.609  0.0081 -0.1583 -0.0327
 1233ERGO    R315576  10.941  16.604   9.444 -0.0172 -0.1107 -0.1017
 1233ERGO    R415577  10.864  16.822   9.264  0.0622 -0.0217 -0.0254
 1233ERGO    R515578  10.791  16.616   9.258  0.0141 -0.0004 -0.1183
 1233ERGO    C115579  10.941  16.643   8.908  0.0699  0.1023 -0.0860
 1233ERGO    C215580  11.085  16.833   8.749 -0.1520  0.0056  0.0601
 1234ERGO   ROH15581   1.696  14.051   6.840  0.2741 -0.2671 -0.0979
 1234ERGO    R115582   1.666  13.916   7.087  0.1705 -0.1093 -0.0207
 1234ERGO    R215583   1.855  13.741   7.185  0.0388 -0.2148  0.0751
 1234ERGO    R315584   1.844  13.902   7.404  0.1700 -0.0748 -0.0216
 1234ERGO    R415585   1.925  13.640   7.509 -0.1532 -0.0968  0.1533
 1234ERGO    R515586   1.757  13.761   7.577 -0.0281  0.1314  0.0434
 1234ERGO    C115587   1.955  13.733   7.902 -0.1418  0.1033  0.1080
 1234ERGO    C215588   2.293  13.843   8.046 -0.1522  0.2231 -0.3904
 1235ERGO   ROH15589  14.258   2.080  10.368  0.0188 -0.3239 -0.1245
 1235ERGO    R115590  14.245   2.153  10.095 -0.2621 -0.3041 -0.1084
 1235ERGO    R215591  14.458   2.121   9.922 -0.1940  0.3422 -0.1693
 1235ERGO    R315592  14.275   1.984   9.774  0.1504 -0.1695 -0.1464
 1235ERGO    R415593  14.459   2.100   9.577 -0.2213  0.4180 -0.1741
 1235ERGO    R515594  14.242   2.120   9.580 -0.2993 -0.2128 -0.1100
 1235ERGO    C115595  14.288   1.958   9.237  0.0861 -0.0183 -0.1554
 1235ERGO    C215596  14.307   1.833   8.878  0.2504  0.0319  0.1571
 1236ERGO   ROH15597   7.539  10.589   6.478  0.1637 -0.2600  0.0688
 1236ERGO    R115598   7.526  10.644   6.756 -0.0385 -0.1057  0.0311
 1236ERGO    R215599   7.319  10.554   6.915 -0.0080 -0.2612 -0.0181
 1236ERGO    R315600   7.522  10.450   7.064  0.0492  0.0752  0.1488
 1236ERGO    R415601   7.298  10.477   7.252 -0.2545 -0.5246 -0.0902
 1236ERGO    R515602   7.499  10.556   7.277 -0.4396 -0.1015  0.2013
 1236ERGO    C115603   7.476  10.334   7.587 -0.3444 -0.3624  0.0245
 1236ERGO    C215604   7.567  10.221   7.846  0.2556 -0.0316 -0.1265
 1237ERGO   ROH15605   5.662   9.594   9.757  0.0211  0.1156 -0.0518
 1237ERGO    R115606   5.603   9.650   9.485 -0.0433 -0.0147 -0.0656
 1237ERGO    R215607   5.769   9.803   9.325 -0.1697  0.0608 -0.1289
 1237ERGO    R315608   5.759   9.585   9.163 -0.0198 -0.0012 -0.0563
 1237ERGO    R415609   5.812   9.809   8.983 -0.2351 -0.0186 -0.1388
 1237ERGO    R515610   5.652   9.663   8.964 -0.1184 -0.1558 -0.0638
 1237ERGO    C115611   5.828   9.609   8.631 -0.1324 -0.1230 -0.0763
 1237ERGO    C215612   5.998   9.599   8.364  0.1021  0.0028 -0.0482
 1238ERGO   ROH15613   2.007   4.653   9.806 -0.1684  0.0872  0.0905
 1238ERGO    R115614   2.131   4.657   9.551 -0.0116 -0.1203  0.1597
 1238ERGO    R215615   2.149   4.433   9.391 -0.3143 -0.1555  0.1632
 1238ERGO    R315616   2.031   4.594   9.207  0.0679  0.0680  0.1019
 1238ERGO    R415617   2.134   4.367   9.052 -0.5366 -0.2865  0.1975
 1238ERGO    R515618   2.173   4.578   9.014  0.0058 -0.3941  0.0864
 1238ERGO    C115619   2.013   4.479   8.682 -0.3073 -0.1530  0.1600
 1238ERGO    C215620   1.985   4.563   8.385  0.1601 -0.0482 -0.2270
 1239ERGO   ROH15621   2.941   2.247   6.869 -0.3966 -0.0837 -0.1101
 1239ERGO    R115622   2.906   2.182   7.142 -0.1746 -0.1253 -0.0893
 1239ERGO    R215623   2.658   2.179   7.264 -0.0658 -0.0158  0.1452
 1239ERGO    R315624   2.731   1.926   7.333 -0.1368 -0.0722  0.0170
 1239ERGO    R415625   2.506   1.991   7.510  0.0335 -0.0080  0.2126
 1239ERGO    R515626   2.703   1.920   7.571  0.0471 -0.1242  0.0380
 1239ERGO    C115627   2.485   1.644   7.719  0.0246 -0.0562  0.1315
 1239ERGO    C215628   2.425   1.539   8.067  0.0492 -0.3181 -0.0307
 1240ERGO   ROH15629   7.860  16.362   6.541  0.0748  0.0191 -0.0642
 1240ERGO    R115630   7.892  16.157   6.734 -0.0455 -0.0232 -0.0897
 1240ERGO    R215631   7.917  16.209   7.004  0.0769 -0.0649 -0.0965
 1240ERGO    R315632   7.708  16.037   7.024 -0.0656  0.1095 -0.0452
 1240ERGO    R415633   7.788  16.090   7.301  0.2522 -0.1850 -0.0661
 1240ERGO    R515634   7.767  15.894   7.208 -0.0156 -0.0959 -0.2120
 1240ERGO    C115635   7.517  15.859   7.494  0.2205 -0.0911 -0.0003
 1240ERGO    C215636   7.518  15.866   7.928  0.2901  0.2909  0.1200
 1241ERGO   ROH15637  11.339  11.762   6.929 -0.0565  0.0208 -0.0790
 1241ERGO    R115638  11.294  11.615   7.167 -0.0030  0.0317 -0.0614
 1241ERGO    R215639  11.157  11.720   7.383 -0.0169  0.0169 -0.0597
 1241ERGO    R315640  11.005  11.497   7.353  0.0400 -0.0240 -0.0319
 1241ERGO    R415641  10.969  11.574   7.633 -0.0874  0.0725 -0.0806
 1241ERGO    R515642  11.031  11.379   7.559 -0.0206  0.0601  0.0208
 1241ERGO    C115643  10.716  11.279   7.751 -0.0749  0.0666 -0.0667
 1241ERGO    C215644  10.551  10.996   7.921 -0.2275 -0.1175  0.0212
 1242ERGO   ROH15645   8.942   4.275   9.373  0.2004  0.1385 -0.0875
 1242ERGO    R115646   8.890   4.365   9.110  0.0898  0.0828 -0.0853
 1242ERGO    R215647   9.075   4.344   8.905  0.0750  0.2106 -0.1137
 1242ERGO    R315648   8.871   4.216   8.778  0.1504  0.0469 -0.0729
 1242ERGO    R415649   9.031   4.333   8.562  0.0694  0.0942 -0.1094
 1242ERGO    R515650   8.817   4.359   8.593  0.0525 -0.0342 -0.1083
 1242ERGO    C115651   8.815   4.207   8.244  0.1369 -0.1273 -0.0685
 1242ERGO    C215652   8.548   4.286   8.070  0.1809 -0.0599  0.2840
 1243ERGO   ROH15653   2.194   7.578   9.837 -0.0907  0.1530 -0.1508
 1243ERGO    R115654   2.131   7.636   9.567 -0.1625  0.0779 -0.1495
 1243ERGO    R215655   2.314   7.608   9.362 -0.1828  0.1375 -0.1711
 1243ERGO    R315656   2.120   7.452   9.253 -0.1211  0.0232 -0.1204
 1243ERGO    R415657   2.306   7.503   9.033 -0.1527  0.0604 -0.1478
 1243ERGO    R515658   2.091   7.538   9.032 -0.1736 -0.0366 -0.1408
 1243ERGO    C115659   2.120   7.295   8.739 -0.0773 -0.0918 -0.0868
 1243ERGO    C215660   2.107   7.294   8.409 -0.0427  0.0922  0.0618
 1244ERGO   ROH15661   3.075   4.089   9.894  0.0999  0.0688  0.0803
 1244ERGO    R115662   3.130   4.070   9.617  0.2257  0.0251  0.1069
 1244ERGO    R215663   2.931   4.081   9.425  0.2699 -0.3396  0.0276
 1244ERGO    R315664   3.086   4.280   9.323  0.0267 -0.1593  0.0031
 1244ERGO    R415665   2.989   4.133   9.089  0.2653 -0.3482  0.0260
 1244ERGO    R515666   3.197   4.179   9.136  0.1960 -0.0599  0.0512
 1244ERGO    C115667   3.168   4.350   8.797  0.0342 -0.1840  0.0021
 1244ERGO    C215668   3.210   4.553   8.554  0.3236  0.0415 -0.0713
 1245ERGO   ROH15669   2.967   7.048   9.732 -0.0970  0.0810  0.2121
 1245ERGO    R115670   3.009   6.900   9.494 -0.0889  0.0720  0.2173
 1245ERGO    R215671   2.809   6.859   9.307 -0.1218 -0.0376  0.2630
 1245ERGO    R315672   2.992   6.965   9.136 -0.2051  0.0309  0.2179
 1245ERGO    R415673   2.806   6.817   8.964 -0.1182 -0.1086  0.2724
 1245ERGO    R515674   3.023   6.795   8.970 -0.1151  0.0234  0.2532
 1245ERGO    C115675   2.976   6.892   8.604 -0.1944 -0.0857  0.2356
 1245ERGO    C215676   2.855   6.843   8.321 -0.0390 -0.1249  0.1370
 1246ERGO   ROH15677   1.189   8.779   6.501  0.0497  0.0635  0.0215
 1246ERGO    R115678   1.090   8.849   6.757 -0.0013 -0.0876  0.0441
 1246ERGO    R215679   1.071   8.666   6.964  0.2197 -0.1461  0.0167
 1246ERGO    R315680   1.218   8.852   7.098  0.0320 -0.0060  0.0307
 1246ERGO    R415681   1.037   8.741   7.300  0.0331 -0.0866 -0.0145
 1246ERGO    R515682   1.063   8.951   7.251 -0.1006 -0.0801 -0.0549
 1246ERGO    C115683   1.155   8.959   7.621 -0.2516  0.0795 -0.0196
 1246ERGO    C215684   1.248   9.061   7.869 -0.0296  0.2999  0.2151
 1247ERGO   ROH15685  16.817   4.489   7.046 -0.3807 -0.0296  0.0869
 1247ERGO    R115686  16.818   4.555   7.321 -0.1102 -0.1040  0.1052
 1247ERGO    R215687  17.051   4.583   7.467  0.0455  0.1909 -0.2010
 1247ERGO    R315688  16.945   4.826   7.528 -0.2251  0.0267  0.0091
 1247ERGO    R415689  17.145   4.778   7.737  0.2092  0.2802 -0.3187
 1247ERGO    R515690  16.935   4.828   7.767  0.1675 -0.0383  0.0369
 1247ERGO    C115691  17.100   5.118   7.951  0.0503  0.1780 -0.1900
 1247ERGO    C215692  17.219   5.432   8.023  0.0391 -0.1740  0.2405
 1248ERGO   ROH15693  14.504  11.340  10.097  0.1461 -0.2699  0.0259
 1248ERGO    R115694  14.510  11.482   9.852 -0.1224 -0.1504  0.0844
 1248ERGO    R215695  14.706  11.440   9.661 -0.1267  0.1935  0.0007
 1248ERGO    R315696  14.493  11.398   9.498 -0.1274 -0.0179  0.0523
 1248ERGO    R415697  14.727  11.351   9.328 -0.1199  0.1192  0.0204
 1248ERGO    R515698  14.562  11.487   9.286 -0.2361 -0.0197  0.0144
 1248ERGO    C115699  14.540  11.260   8.981 -0.1164 -0.1225  0.0804
 1248ERGO    C215700  14.514  11.094   8.689  0.0620 -0.2047 -0.1270
 1249ERGO   ROH15701   7.824   6.392   5.789  0.0639  0.3264  0.0986
 1249ERGO    R115702   7.748   6.226   6.005  0.0315  0.2027 -0.0076
 1249ERGO    R215703   7.908   6.021   6.098 -0.0280  0.0891 -0.1647
 1249ERGO    R315704   7.876   6.148   6.337  0.0367 -0.0688 -0.0692
 1249ERGO    R415705   7.956   5.875   6.408 -0.0016 -0.1446 -0.2768
 1249ERGO    R515706   7.780   5.982   6.480  0.0268 -0.1572 -0.1706
 1249ERGO    C115707   7.954   5.909   6.811  0.0745 -0.4288 -0.2524
 1249ERGO    C215708   8.152   5.799   7.062 -0.1831  0.0607 -0.1596
 1250ERGO   ROH15709  12.611  14.866   9.695 -0.0945 -0.2489  0.0403
 1250ERGO    R115710  12.756  14.862   9.453 -0.0415 -0.0299  0.0649
 1250ERGO    R215711  12.798  14.630   9.308  0.2358  0.0464  0.0093
 1250ERGO    R315712  12.689  14.775   9.106  0.1148 -0.0141  0.0310
 1250ERGO    R415713  12.830  14.554   8.973  0.3623  0.1702 -0.0069
 1250ERGO    R515714  12.854  14.767   8.932  0.1462  0.2046  0.0525
 1250ERGO    C115715  12.747  14.646   8.587  0.3225  0.1854  0.0042
 1250ERGO    C215716  12.679  14.670   8.341 -0.0236 -0.1863 -0.1501
 1251ERGO   ROH15717   2.909   3.307   6.651  0.1988 -0.1001 -0.0732
 1251ERGO    R115718   3.060   3.273   6.888  0.1069 -0.0237 -0.0025
 1251ERGO    R215719   3.324   3.194   6.887  0.0681 -0.1735  0.1317
 1251ERGO    R315720   3.359   3.419   7.035  0.1424 -0.0888 -0.0125
 1251ERGO    R415721   3.605   3.263   7.076  0.0423 -0.1885  0.1749
 1251ERGO    R515722   3.474   3.342   7.232  0.0377 -0.0107  0.0768
 1251ERGO    C115723   3.801   3.514   7.326  0.0971 -0.1176  0.0647
 1251ERGO    C215724   4.063   3.649   7.336  0.4158  0.0896 -0.2415
 1252ERGO   ROH15725  11.008   5.531   6.037 -0.1939 -0.0564  0.1724
 1252ERGO    R115726  10.888   5.476   6.288 -0.0804 -0.1613  0.2052
 1252ERGO    R215727  10.982   5.280   6.458  0.0873 -0.1354  0.1463
 1252ERGO    R315728  10.990   5.484   6.637  0.0327 -0.1563  0.1722
 1252ERGO    R415729  10.921   5.248   6.796  0.0239 -0.1815  0.1303
 1252ERGO    R515730  10.812   5.437   6.789  0.0076 -0.1914  0.1315
 1252ERGO    C115731  10.893   5.421   7.162 -0.0642 -0.2279  0.1452
 1252ERGO    C215732  10.905   5.431   7.585 -0.0559  0.1416 -0.1641
 1253ERGO   ROH15733   5.729   4.964   9.507  0.3013 -0.0013 -0.0429
 1253ERGO    R115734   5.851   4.833   9.288  0.2693 -0.1046 -0.0011
 1253ERGO    R215735   5.824   4.562   9.242  0.0687 -0.0906 -0.0033
 1253ERGO    R315736   5.739   4.645   8.997  0.2090 -0.0238 -0.0289
 1253ERGO    R415737   5.828   4.369   8.955  0.0087 -0.0833 -0.0082
 1253ERGO    R515738   5.893   4.544   8.844  0.1758 -0.1353  0.0164
 1253ERGO    C115739   5.751   4.335   8.558  0.1054 -0.0165 -0.0352
 1253ERGO    C215740   5.811   4.270   8.174 -0.0797 -0.0709  0.0052
 1254ERGO   ROH15741   1.465  17.160  10.004 -0.3212  0.0848  0.1926
 1254ERGO    R115742   1.362  17.276   9.767 -0.2373 -0.0629  0.0827
 1254ERGO    R215743   1.522  17.342   9.551 -0.1560 -0.1681  0.1118
 1254ERGO    R315744   1.346  17.187   9.414 -0.0809 -0.2672  0.1251
 1254ERGO    R415745   1.495  17.329   9.207 -0.1636 -0.1937  0.1130
 1254ERGO    R515746   1.279  17.322   9.229 -0.1608 -0.3076  0.1229
 1254ERGO    C115747   1.314  17.176   8.878 -0.0977 -0.3019  0.1261
 1254ERGO    C215748   1.447  17.249   8.716 -0.2432 -0.2328  0.0975
 1255ERGO   ROH15749   9.007  16.501   6.703 -0.1311  0.0611  0.0141
 1255ERGO    R115750   8.844  16.510   6.935 -0.1069  0.0826  0.0315
 1255ERGO    R215751   8.916  16.388   7.172 -0.1920 -0.1039 -0.0325
 1255ERGO    R315752   8.873  16.636   7.275  0.0315 -0.1173  0.0948
 1255ERGO    R415753   8.848  16.454   7.504 -0.4298 -0.2464 -0.0510
 1255ERGO    R515754   8.702  16.603   7.439 -0.1741 -0.0105 -0.0947
 1255ERGO    C115755   8.769  16.725   7.794 -0.3585 -0.3419  0.0577
 1255ERGO    C215756   8.735  16.791   8.107  0.1215  0.0187  0.2874
 1256ERGO   ROH15757  10.132  12.929   9.984 -0.0267 -0.1178  0.1161
 1256ERGO    R115758  10.290  12.951   9.749 -0.0485 -0.2757  0.0864
 1256ERGO    R215759  10.200  12.871   9.501 -0.2115 -0.1048  0.0920
 1256ERGO    R315760  10.267  13.124   9.430  0.1090 -0.1748  0.1271
 1256ERGO    R415761  10.261  12.976   9.177 -0.5397 -0.0495  0.0440
 1256ERGO    R515762  10.425  13.097   9.253 -0.2051 -0.3620 -0.1413
 1256ERGO    C115763  10.359  13.276   8.923 -0.4298 -0.0830  0.0491
 1256ERGO    C215764  10.587  13.367   8.712 -0.0062 -0.0398  0.0290
 1257ERGO   ROH15765   8.434  17.109  10.081 -0.1419 -0.1410  0.0821
 1257ERGO    R115766   8.335  17.062   9.820 -0.1849  0.0084  0.0715
 1257ERGO    R215767   8.198  17.254   9.676  0.1221  0.2166  0.0584
 1257ERGO    R315768   8.388  17.202   9.488  0.0638 -0.0702  0.0741
 1257ERGO    R415769   8.154  17.287   9.334  0.1749  0.2465  0.0535
 1257ERGO    R515770   8.267  17.103   9.307 -0.0752  0.0760  0.0786
 1257ERGO    C115771   8.306  17.256   8.960  0.1510 -0.0054  0.0654
 1257ERGO    C215772   8.142  17.448   8.768 -0.0477  0.0610 -0.2183
 1258ERGO   ROH15773   6.858   6.566   6.336  0.0492 -0.0586 -0.0172
 1258ERGO    R115774   6.983   6.455   6.565 -0.0576 -0.1416  0.0012
 1258ERGO    R215775   7.054   6.607   6.784  0.1041 -0.1700 -0.0312
 1258ERGO    R315776   6.905   6.424   6.919 -0.0806  0.0072  0.0100
 1258ERGO    R415777   7.098   6.523   7.117  0.0123 -0.1293 -0.0083
 1258ERGO    R515778   7.062   6.315   7.063 -0.1895 -0.1102  0.0424
 1258ERGO    C115779   6.984   6.302   7.437 -0.2146  0.0608  0.0438
 1258ERGO    C215780   7.122   6.214   7.674 -0.0907  0.1498  0.1104
 1259ERGO   ROH15781   0.759   5.684  10.126 -0.1527  0.0662  0.0479
 1259ERGO    R115782   0.581   5.608   9.920 -0.1040  0.0221  0.0219
 1259ERGO    R215783   0.487   5.786   9.731 -0.1219 -0.0003  0.0096
 1259ERGO    R315784   0.584   5.602   9.556 -0.0501  0.0251  0.0223
 1259ERGO    R415785   0.427   5.785   9.390 -0.0804 -0.0203  0.0021
 1259ERGO    R515786   0.406   5.568   9.400 -0.0217 -0.0257  0.0010
 1259ERGO    C115787   0.482   5.611   9.029  0.0113 -0.0081  0.0096
 1259ERGO    C215788   0.519   5.698   8.599  0.0638  0.0674 -0.0375
 1260ERGO   ROH15789   8.725   9.551   9.532 -0.3165 -0.0840 -0.0952
 1260ERGO    R115790   8.678   9.496   9.258 -0.2138 -0.0120 -0.1277
 1260ERGO    R215791   8.662   9.695   9.067  0.1320  0.0193 -0.1265
 1260ERGO    R315792   8.854   9.547   8.944  0.0382 -0.1952 -0.0201
 1260ERGO    R415793   8.736   9.710   8.730  0.2254 -0.1784 -0.1161
 1260ERGO    R515794   8.759   9.493   8.731  0.0416 -0.2010 -0.0216
 1260ERGO    C115795   8.959   9.579   8.418  0.1917 -0.4950 -0.0101
 1260ERGO    C215796   9.046   9.731   8.152  0.2441 -0.0629 -0.2148
 1261ERGO   ROH15797   0.168   0.244   6.398  0.1077 -0.1494 -0.2714
 1261ERGO    R115798   0.185  -0.028   6.474  0.2972 -0.1113 -0.1739
 1261ERGO    R215799   0.354  -0.116   6.674  0.0356  0.1463  0.1687
 1261ERGO    R315800   0.125  -0.223   6.776 -0.0340 -0.1065 -0.2319
 1261ERGO    R415801   0.342  -0.365   6.914 -0.1042  0.1348  0.1507
 1261ERGO    R515802   0.176  -0.455   6.805  0.1795 -0.0529 -0.1470
 1261ERGO    C115803   0.121  -0.610   7.149 -0.2509 -0.1088 -0.2358
 1261ERGO    C215804   0.179  -0.780   7.422 -0.1009 -0.1138 -0.2465
 1262ERGO   ROH15805  17.644   8.036   6.512 -0.0764 -0.0980  0.0938
 1262ERGO    R115806  17.813   7.971   6.730 -0.0207  0.0084  0.0820
 1262ERGO    R215807  17.898   8.159   6.914 -0.1891  0.0471  0.1148
 1262ERGO    R315808  17.792   7.984   7.093 -0.0335 -0.0805  0.0862
 1262ERGO    R415809  17.984   8.141   7.248 -0.1883  0.0953  0.1180
 1262ERGO    R515810  17.976   7.924   7.234  0.0233  0.0818  0.0899
 1262ERGO    C115811  17.935   7.966   7.611 -0.0415  0.0036  0.0930
 1262ERGO    C215812  17.952   8.057   7.935 -0.3761 -0.1651 -0.1780
 1263ERGO   ROH15813   2.910  11.888   6.262 -0.1998  0.0135  0.1104
 1263ERGO    R115814   2.775  11.708   6.434 -0.0159 -0.1938  0.0382
 1263ERGO    R215815   2.907  11.547   6.614  0.1272  0.1421  0.2216
 1263ERGO    R315816   2.737  11.662   6.793 -0.2899 -0.1362  0.0225
 1263ERGO    R415817   2.847  11.427   6.933  0.4744  0.3724  0.3822
 1263ERGO    R515818   2.636  11.475   6.905  0.2889 -0.3430  0.2601
 1263ERGO    C115819   2.653  11.464   7.286  0.2850  0.2453  0.2888
 1263ERGO    C215820   2.539  11.327   7.550 -0.0301  0.0219 -0.0822
 1264ERGO   ROH15821   2.247  13.038   9.736  0.1056  0.0443  0.0279
 1264ERGO    R115822   2.248  13.188   9.495  0.3997  0.0271  0.0153
 1264ERGO    R215823   2.370  13.097   9.264 -0.0094 -0.3732 -0.0566
 1264ERGO    R315824   2.125  13.143   9.156  0.0351  0.3546  0.0960
 1264ERGO    R415825   2.313  13.195   8.938  0.0788 -0.5391 -0.1233
 1264ERGO    R515826   2.158  13.330   9.010  0.5794  0.0991 -0.1397
 1264ERGO    C115827   2.049  13.296   8.646  0.1720  0.0475 -0.0188
 1264ERGO    C215828   2.009  13.445   8.315 -0.0854 -0.1166  0.1851
 1265ERGO   ROH15829  11.851   5.783   9.899  0.0881  0.0506  0.0415
 1265ERGO    R115830  11.866   5.806   9.617 -0.1523 -0.1799  0.0046
 1265ERGO    R215831  12.070   5.942   9.490 -0.4831  0.0944 -0.2647
 1265ERGO    R315832  12.099   5.707   9.356 -0.1401  0.0118 -0.0565
 1265ERGO    R415833  12.145   5.915   9.154 -0.2909 -0.1114 -0.2068
 1265ERGO    R515834  12.003   5.749   9.141 -0.0867 -0.2892 -0.1393
 1265ERGO    C115835  12.216   5.678   8.832  0.1429 -0.3088  0.0222
 1265ERGO    C215836  12.253   5.644   8.450  0.1948  0.1587 -0.0133
 1266ERGO   ROH15837   4.044   2.854   6.560  0.0560  0.2045  0.1132
 1266ERGO    R115838   4.106   3.017   6.783  0.0454  0.1087  0.1881
 1266ERGO    R215839   3.957   3.012   7.016 -0.0434  0.0990  0.1373
 1266ERGO    R315840   4.199   2.964   7.131 -0.1044 -0.0444  0.2052
 1266ERGO    R415841   4.044   3.104   7.337  0.0726  0.4569  0.0075
 1266ERGO    R515842   4.241   3.160   7.263  0.1458  0.0967 -0.0769
 1266ERGO    C115843   4.321   3.113   7.633  0.0830  0.5308 -0.0043
 1266ERGO    C215844   4.304   3.123   7.938 -0.3759  0.0979 -0.0048
 1267ERGO   ROH15845   5.860   8.333   9.621 -0.2944 -0.0502  0.0391
 1267ERGO    R115846   5.875   8.426   9.354 -0.1153 -0.0276  0.0567
 1267ERGO    R215847   6.115   8.476   9.227 -0.0257 -0.2170  0.1551
 1267ERGO    R315848   6.014   8.306   9.040 -0.1008 -0.1054  0.0919
 1267ERGO    R415849   6.162   8.506   8.886 -0.0688 -0.0706  0.1609
 1267ERGO    R515850   5.954   8.447   8.857 -0.0917 -0.0021  0.1654
 1267ERGO    C115851   6.094   8.364   8.512 -0.1644  0.1192  0.1048
 1267ERGO    C215852   6.195   8.213   8.257 -0.0724  0.0885 -0.1108
 1268ERGO   ROH15853   4.725   0.484   6.914  0.0642 -0.0522  0.0492
 1268ERGO    R115854   4.773   0.599   7.168 -0.1233 -0.0396  0.0813
 1268ERGO    R215855   4.661   0.499   7.400 -0.1207 -0.1652  0.0330
 1268ERGO    R315856   4.920   0.491   7.483 -0.1402  0.0466  0.1179
 1268ERGO    R415857   4.761   0.464   7.729 -0.1960 -0.2644  0.0454
 1268ERGO    R515858   4.919   0.610   7.691 -0.3312 -0.0819  0.1905
 1268ERGO    C115859   5.063   0.436   7.998 -0.2580 -0.1234  0.1323
 1268ERGO    C215860   5.092   0.339   8.338 -0.1730 -0.1789 -0.1323
 1269ERGO   ROH15861   9.012  15.965   9.968 -0.2746 -0.0303  0.0161
 1269ERGO    R115862   8.856  15.964   9.732 -0.2152  0.0493 -0.0237
 1269ERGO    R215863   8.771  16.196   9.609 -0.0128  0.0926 -0.0799
 1269ERGO    R315864   8.891  16.086   9.391 -0.0386 -0.0274 -0.0349
 1269ERGO    R415865   8.742  16.317   9.286  0.2324  0.1319 -0.0897
 1269ERGO    R515866   8.729  16.110   9.216  0.0490  0.1422 -0.0973
 1269ERGO    C115867   8.837  16.284   8.894  0.3509  0.0423 -0.0532
 1269ERGO    C215868   8.936  16.490   8.520 -0.0172  0.0723 -0.1591
 1270ERGO   ROH15869   4.723   6.274   6.316  0.2588 -0.1041  0.0653
 1270ERGO    R115870   4.805   6.163   6.563  0.1359 -0.0322  0.1388
 1270ERGO    R215871   4.940   6.309   6.754  0.2080 -0.0270  0.0815
 1270ERGO    R315872   4.738   6.224   6.915  0.1186  0.2038  0.0970
 1270ERGO    R415873   4.941   6.332   7.099  0.3241 -0.1473  0.0906
 1270ERGO    R515874   4.851   6.133   7.107  0.0383 -0.0267  0.0402
 1270ERGO    C115875   4.752   6.265   7.451  0.3077 -0.0006  0.1104
 1270ERGO    C215876   4.531   6.271   7.776 -0.4020  0.0595  0.1489
 1271ERGO   ROH15877  16.901   4.141  10.223  0.1377  0.1351  0.0233
 1271ERGO    R115878  16.968   4.225   9.961  0.0665  0.0798 -0.0122
 1271ERGO    R215879  16.910   4.073   9.737  0.0105  0.0312  0.0377
 1271ERGO    R315880  16.788   4.302   9.654 -0.0158  0.0105  0.0174
 1271ERGO    R415881  16.858   4.160   9.407 -0.0707 -0.0449  0.0294
 1271ERGO    R515882  16.910   4.366   9.458 -0.0626 -0.0303 -0.0274
 1271ERGO    C115883  16.714   4.425   9.136 -0.1425 -0.1088  0.0055
 1271ERGO    C215884  16.654   4.438   8.719 -0.0446 -0.3274  0.0174
 1272ERGO   ROH15885   8.133  12.655   9.734 -0.0461  0.1059  0.0127
 1272ERGO    R115886   8.109  12.693   9.455  0.1013  0.0930 -0.0021
 1272ERGO    R215887   8.286  12.582   9.274  0.0903 -0.0683  0.0859
 1272ERGO    R315888   8.060  12.481   9.163  0.0559  0.0980  0.0016
 1272ERGO    R415889   8.257  12.480   8.945  0.0977  0.0819  0.0376
 1272ERGO    R515890   8.058  12.570   8.940  0.1458  0.1911  0.0367
 1272ERGO    C115891   8.027  12.326   8.649  0.0697  0.3258 -0.0698
 1272ERGO    C215892   7.879  12.264   8.252 -0.0759 -0.3758  0.1401
 1273ERGO   ROH15893   2.835   0.873   9.954  0.1578 -0.2457 -0.0249
 1273ERGO    R115894   2.868   0.807   9.680 -0.0428 -0.1735 -0.0700
 1273ERGO    R215895   2.655   0.774   9.508 -0.1685  0.0796  0.0219
 1273ERGO    R315896   2.788   0.959   9.360 -0.0790  0.0223  0.0328
 1273ERGO    R415897   2.645   0.796   9.163 -0.0169  0.0149  0.0135
 1273ERGO    R515898   2.858   0.839   9.164 -0.0184 -0.0224  0.0891
 1273ERGO    C115899   2.764   0.982   8.823  0.1554 -0.0766  0.0188
 1273ERGO    C215900   2.731   0.960   8.492 -0.1487 -0.1098 -0.0756
 1274ERGO   ROH15901  17.281   0.383   9.987 -0.0879 -0.1600  0.0119
 1274ERGO    R115902  17.138   0.308   9.754 -0.0341 -0.1451 -0.0259
 1274ERGO    R215903  17.152   0.450   9.518 -0.0128 -0.1068  0.0003
 1274ERGO    R315904  17.221   0.209   9.414  0.0413 -0.0797 -0.0277
 1274ERGO    R415905  17.123   0.362   9.185 -0.3349 -0.1884  0.0462
 1274ERGO    R515906  17.055   0.166   9.247 -0.1253 -0.2291  0.1689
 1274ERGO    C115907  17.171   0.085   8.893 -0.4717 -0.2105  0.0466
 1274ERGO    C215908  17.111   0.166   8.545 -0.4896 -0.0760  0.0788
 1275ERGO   ROH15909   3.811   2.932   9.903  0.1983  0.0245 -0.0013
 1275ERGO    R115910   3.690   2.907   9.649  0.0649 -0.0557  0.0686
 1275ERGO    R215911   3.529   3.103   9.540  0.0130 -0.0847  0.0858
 1275ERGO    R315912   3.702   3.084   9.331 -0.0929 -0.1592  0.0044
 1275ERGO    R415913   3.470   3.229   9.223 -0.0333  0.0302  0.1397
 1275ERGO    R515914   3.561   3.049   9.141 -0.1995 -0.0134  0.0573
 1275ERGO    C115915   3.598   3.284   8.843 -0.1596  0.0271  0.0948
 1275ERGO    C215916   3.535   3.425   8.587 -0.0666 -0.1539 -0.0852
 1276ERGO   ROH15917  10.372   6.457   5.992 -0.1788 -0.2386  0.0819
 1276ERGO    R115918  10.349   6.312   6.234 -0.0321 -0.2257  0.1061
 1276ERGO    R215919  10.549   6.306   6.423  0.0064 -0.0484  0.0819
 1276ERGO    R315920  10.351   6.390   6.590 -0.0354 -0.1725  0.0928
 1276ERGO    R415921  10.548   6.263   6.766  0.1153  0.0860  0.0990
 1276ERGO    R515922  10.335   6.217   6.755  0.1607 -0.1189  0.1637
 1276ERGO    C115923  10.361   6.316   7.122  0.1394  0.0478  0.1193
 1276ERGO    C215924  10.195   6.454   7.416  0.1074 -0.3527 -0.2258
 1277ERGO   ROH15925   0.864   8.333   9.835  0.0854 -0.1026 -0.0837
 1277ERGO    R115926   0.834   8.411   9.565  0.0344 -0.0804 -0.0736
 1277ERGO    R215927   0.997   8.314   9.362  0.0259 -0.0349 -0.1122
 1277ERGO    R315928   0.759   8.246   9.249  0.0197 -0.0653 -0.0760
 1277ERGO    R415929   0.932   8.312   9.023 -0.0559  0.0290 -0.0957
 1277ERGO    R515930   0.736   8.395   9.064 -0.0622 -0.0320 -0.0331
 1277ERGO    C115931   0.671   8.246   8.719 -0.1094  0.0376 -0.0520
 1277ERGO    C215932   0.556   8.282   8.459  0.0625 -0.1480  0.1338
 1278ERGO   ROH15933   4.787  11.008   6.675  0.0186 -0.1194  0.1062
 1278ERGO    R115934   4.713  11.041   6.946  0.0190 -0.0317  0.0955
 1278ERGO    R215935   4.898  11.074   7.148  0.0132  0.1112  0.0720
 1278ERGO    R315936   4.752  11.297   7.202 -0.0559  0.0860 -0.0069
 1278ERGO    R415937   4.898  11.239   7.452 -0.0879  0.1627  0.0443
 1278ERGO    R515938   4.682  11.267   7.430 -0.0973  0.1051 -0.0117
 1278ERGO    C115939   4.760  11.544   7.680 -0.2117  0.1688 -0.0459
 1278ERGO    C215940   4.871  11.801   7.774 -0.0917 -0.2030 -0.0677
 1279ERGO   ROH15941  10.739  11.571   9.767  0.0847  0.1723  0.0332
 1279ERGO    R115942  10.682  11.660   9.505  0.1655  0.1215 -0.0017
 1279ERGO    R215943  10.879  11.745   9.331  0.2283  0.0019  0.0113
 1279ERGO    R315944  10.769  11.559   9.166  0.1903 -0.0029  0.0413
 1279ERGO    R415945  10.931  11.728   8.990  0.1987 -0.0438  0.0085
 1279ERGO    R515946  10.720  11.680   8.965  0.1897 -0.0192  0.0313
 1279ERGO    C115947  10.859  11.544   8.636  0.1459 -0.0750  0.0353
 1279ERGO    C215948  10.845  11.459   8.254  0.0396  0.0976 -0.3204
 1280ERGO   ROH15949   8.646   2.283   9.766  0.0081 -0.1050  0.0121
 1280ERGO    R115950   8.695   2.095   9.561 -0.0446 -0.0551 -0.0482
 1280ERGO    R215951   8.493   1.987   9.406 -0.0869 -0.0136 -0.0316
 1280ERGO    R315952   8.646   2.078   9.200 -0.1319  0.0399 -0.0397
 1280ERGO    R415953   8.434   1.924   9.071 -0.0923 -0.0118 -0.0296
 1280ERGO    R515954   8.648   1.898   9.043 -0.0914  0.0527 -0.0488
 1280ERGO    C115955   8.544   1.972   8.684 -0.1378  0.0395 -0.0360
 1280ERGO    C215956   8.314   2.033   8.443  0.2857  0.0853  0.2574
 1281ERGO   ROH15957  16.968  12.671   6.719 -0.0938 -0.1441  0.1688
 1281ERGO    R115958  17.147  12.682   6.938 -0.0503 -0.1276  0.1333
 1281ERGO    R215959  17.095  12.831   7.165  0.0445 -0.0213  0.0894
 1281ERGO    R315960  17.139  12.594   7.291 -0.0226  0.0082  0.1678
 1281ERGO    R415961  17.300  12.788   7.440  0.0402  0.0057  0.0960
 1281ERGO    R515962  17.370  12.601   7.353 -0.0199 -0.0432  0.1576
 1281ERGO    C115963  17.461  12.542   7.719 -0.0247  0.0491  0.1734
 1281ERGO    C215964  17.627  12.594   8.108 -0.0017 -0.2075 -0.1572
 1282ERGO   ROH15965  16.885   8.895   9.853  0.1686 -0.0190 -0.0149
 1282ERGO    R115966  16.665   8.920   9.677  0.1373 -0.1317  0.0082
 1282ERGO    R215967  16.593   9.161   9.562 -0.1089 -0.1309  0.1610
 1282ERGO    R315968  16.614   9.019   9.331  0.0270  0.0326  0.0700
 1282ERGO    R415969  16.398   9.211   9.282  0.0733  0.0876  0.0696
 1282ERGO    R515970  16.388   8.995   9.256  0.0708  0.1047 -0.0925
 1282ERGO    C115971  16.303   9.108   8.901  0.3070  0.3685 -0.0689
 1282ERGO    C215972  16.149   9.167   8.586 -0.0082  0.0380 -0.0042
 1283ERGO   ROH15973   5.542  14.018   9.582 -0.0593 -0.0518  0.0522
 1283ERGO    R115974   5.384  13.952   9.356 -0.0121 -0.0113  0.0072
 1283ERGO    R215975   5.423  14.069   9.108  0.0928 -0.0259  0.0162
 1283ERGO    R315976   5.442  13.811   9.026  0.0447 -0.0328  0.0263
 1283ERGO    R415977   5.426  13.966   8.778 -0.0432 -0.0489  0.0213
 1283ERGO    R515978   5.299  13.799   8.834 -0.0317 -0.0374  0.0829
 1283ERGO    C115979   5.446  13.664   8.509 -0.1676 -0.0689  0.0337
 1283ERGO    C215980   5.556  13.575   8.214  0.0298 -0.2383  0.0949
 1284ERGO   ROH15981   6.676  10.382   9.752 -0.0474 -0.0934  0.0715
 1284ERGO    R115982   6.580  10.286   9.503 -0.0671  0.0508  0.0224
 1284ERGO    R215983   6.530  10.454   9.289  0.0907  0.1550  0.0626
 1284ERGO    R315984   6.697  10.283   9.159 -0.0015  0.0780  0.0447
 1284ERGO    R415985   6.555  10.427   8.946  0.0491  0.1458  0.0605
 1284ERGO    R515986   6.570  10.211   8.968 -0.0511  0.1398  0.0554
 1284ERGO    C115987   6.727  10.252   8.623 -0.0618  0.0681  0.0423
 1284ERGO    C215988   6.742  10.212   8.296 -0.2988 -0.2069  0.3932
 1285ERGO   ROH15989  16.194   6.386  10.315  0.0808  0.0641  0.0702
 1285ERGO    R115990  16.264   6.356  10.043  0.0941 -0.0355  0.0838
 1285ERGO    R215991  16.218   6.122   9.902 -0.0194 -0.0439  0.1295
 1285ERGO    R315992  16.090   6.290   9.730  0.0902 -0.0093  0.0813
 1285ERGO    R415993  16.254   6.119   9.558 -0.0008 -0.1441  0.1325
 1285ERGO    R515994  16.252   6.337   9.561  0.1266 -0.1437  0.0801
 1285ERGO    C115995  16.154   6.275   9.197  0.1129 -0.1698  0.0888
 1285ERGO    C215996  16.167   6.319   8.880 -0.1601 -0.2633  0.3024
 1286ERGO   ROH15997  12.588   1.198   6.363 -0.4663  0.1942  0.1818
 1286ERGO    R115998  12.804   1.139   6.537 -0.3591  0.0969  0.0190
 1286ERGO    R215999  12.953   1.335   6.663 -0.1558  0.0324 -0.1102
 1286ERGO    R316000  12.885   1.197   6.887 -0.0560  0.0852 -0.0477
 1286ERGO    R416001  13.069   1.404   6.981  0.1005  0.0086 -0.1967
 1286ERGO    R516002  13.086   1.190   7.016  0.0311  0.0077 -0.1892
 1286ERGO    C116003  13.073   1.316   7.376  0.3433  0.0442 -0.1884
 1286ERGO    C216004  12.864   1.636   7.592 -0.0562  0.0418 -0.2052
 1287ERGO   ROH16005   9.434   0.459   6.256  0.1559 -0.3238  0.1042
 1287ERGO    R116006   9.376   0.660   6.446  0.1831 -0.2979  0.0848
 1287ERGO    R216007   9.150   0.653   6.605  0.0903 -0.1603 -0.0409
 1287ERGO    R316008   9.330   0.677   6.807 -0.0048 -0.2921  0.0621
 1287ERGO    R416009   9.077   0.770   6.922  0.0297  0.0698 -0.1377
 1287ERGO    R516010   9.266   0.879   6.920  0.1668 -0.1604 -0.0684
 1287ERGO    C116011   9.204   0.861   7.296 -0.0950  0.0799 -0.0973
 1287ERGO    C216012   9.016   1.010   7.568  0.1647  0.0861  0.3647
 1288ERGO   ROH16013  11.262   8.123   6.321  0.2683 -0.0753  0.0334
 1288ERGO    R116014  11.314   8.128   6.599  0.1493 -0.0448  0.0545
 1288ERGO    R216015  11.133   8.227   6.783  0.0398 -0.1008 -0.0297
 1288ERGO    R316016  11.166   7.984   6.899  0.0751 -0.0827  0.0014
 1288ERGO    R416017  10.985   8.129   7.079  0.0112 -0.0971 -0.0413
 1288ERGO    R516018  11.173   8.031   7.134  0.0278 -0.0520 -0.0002
 1288ERGO    C116019  10.931   7.843   7.361  0.0278 -0.0778 -0.0190
 1288ERGO    C216020  10.673   7.847   7.584 -0.0489  0.0180 -0.1051
 1289ERGO   ROH16021   0.736  10.180   6.502 -0.1965  0.0649  0.0991
 1289ERGO    R116022   0.846  10.194   6.762  0.0317  0.0457  0.0054
 1289ERGO    R216023   1.003  10.406   6.846 -0.1440  0.1882 -0.0224
 1289ERGO    R316024   0.821  10.417   7.048  0.0267 -0.1486  0.1589
 1289ERGO    R416025   1.066  10.535   7.160 -0.0626  0.2905 -0.0801
 1289ERGO    R516026   0.949  10.371   7.245  0.3111  0.0704  0.0334
 1289ERGO    C116027   0.933  10.621   7.533  0.1450  0.0339  0.0565
 1289ERGO    C216028   0.982  10.708   7.811  0.1757 -0.3490  0.2408
 1290ERGO   ROH16029   5.026   2.324   6.699 -0.1062  0.0640 -0.0881
 1290ERGO    R116030   5.123   2.419   6.947 -0.0908  0.1488 -0.1264
 1290ERGO    R216031   5.018   2.642   7.071 -0.2395  0.0571 -0.0853
 1290ERGO    R316032   4.987   2.471   7.281 -0.0055  0.0279 -0.0719
 1290ERGO    R416033   5.083   2.721   7.402 -0.0737  0.0795 -0.1224
 1290ERGO    R516034   5.171   2.523   7.427  0.0596  0.1284 -0.1867
 1290ERGO    C116035   5.092   2.607   7.790  0.2426  0.0651 -0.1313
 1290ERGO    C216036   5.102   2.609   8.191  0.2508 -0.1340 -0.2452
 1291ERGO   ROH16037   0.233   6.588  10.361  0.0079 -0.2202  0.0157
 1291ERGO    R116038   0.064   6.513  10.147 -0.1312  0.0245  0.0347
 1291ERGO    R216039  -0.081   6.698  10.000  0.1556  0.2506  0.0112
 1291ERGO    R316040   0.045   6.580   9.790 -0.0358  0.0099  0.0296
 1291ERGO    R416041  -0.151   6.758   9.667  0.1535  0.1756 -0.0005
 1291ERGO    R516042  -0.127   6.545   9.628 -0.1064  0.1373  0.0874
 1291ERGO    C116043  -0.075   6.681   9.276 -0.0272 -0.0940  0.0100
 1291ERGO    C216044   0.119   6.588   8.974 -0.1257 -0.4631 -0.1199
 1292ERGO   ROH16045  17.320   9.305   6.767  0.1063 -0.1161  0.1860
 1292ERGO    R116046  17.292   9.288   7.048 -0.1078 -0.0165  0.1735
 1292ERGO    R216047  17.072   9.388   7.182 -0.2738 -0.0772 -0.0380
 1292ERGO    R316048  17.058   9.136   7.281 -0.2143 -0.0467  0.0461
 1292ERGO    R416049  16.888   9.295   7.459 -0.3650 -0.0629 -0.0942
 1292ERGO    R516050  17.053   9.166   7.519 -0.3420  0.0309  0.0305
 1292ERGO    C116051  16.768   9.004   7.714 -0.3624 -0.0259 -0.0480
 1292ERGO    C216052  16.759   8.765   7.853  0.0316  0.0527  0.0431
 1293ERGO   ROH16053   5.724  17.622   6.889 -0.4013  0.2996 -0.2429
 1293ERGO    R116054   5.609  17.503   7.119 -0.2365  0.2439 -0.1886
 1293ERGO    R216055   5.761  17.394   7.322 -0.0905  0.1995 -0.3231
 1293ERGO    R316056   5.615  17.561   7.478  0.0163  0.1588 -0.1765
 1293ERGO    R416057   5.717  17.357   7.663 -0.0026  0.0044 -0.3309
 1293ERGO    R516058   5.509  17.416   7.637  0.0097  0.0978 -0.2343
 1293ERGO    C116059   5.555  17.493   8.008  0.1489 -0.1474 -0.1979
 1293ERGO    C216060   5.472  17.419   8.333 -0.0520 -0.0278  0.2901
 1294ERGO   ROH16061   1.828   3.677   9.680  0.1334  0.2230  0.0764
 1294ERGO    R116062   1.684   3.548   9.475  0.1087  0.2013  0.1067
 1294ERGO    R216063   1.501   3.680   9.315  0.0633  0.1784  0.1343
 1294ERGO    R316064   1.653   3.578   9.113  0.0401  0.1888  0.1123
 1294ERGO    R416065   1.402   3.661   8.984  0.0597  0.2591  0.1308
 1294ERGO    R516066   1.496   3.464   8.973  0.0205  0.2464  0.0914
 1294ERGO    C116067   1.487   3.554   8.602  0.0358  0.3157  0.1083
 1294ERGO    C216068   1.588   3.655   8.275 -0.0299 -0.0486  0.0060
 1295ERGO   ROH16069  12.874   5.735  10.033 -0.0920  0.0970 -0.1974
 1295ERGO    R116070  13.051   5.789   9.819 -0.0034 -0.2465 -0.2174
 1295ERGO    R216071  13.066   5.629   9.594 -0.4400 -0.2103 -0.2859
 1295ERGO    R316072  13.022   5.864   9.464  0.0858 -0.0416 -0.1818
 1295ERGO    R416073  13.137   5.688   9.261 -0.3093 -0.2120 -0.2580
 1295ERGO    R516074  13.208   5.886   9.316  0.1396 -0.3899 -0.1698
 1295ERGO    C116075  13.137   5.943   8.945  0.2604 -0.0547 -0.1441
 1295ERGO    C216076  13.168   5.764   8.681 -0.1347  0.0584 -0.3545
 1296ERGO   ROH16077   4.682   3.891   9.702 -0.2104 -0.1481 -0.1067
 1296ERGO    R116078   4.660   3.998   9.441 -0.1583 -0.1263 -0.1005
 1296ERGO    R216079   4.847   4.172   9.334 -0.1746 -0.0732 -0.0207
 1296ERGO    R316080   4.855   3.988   9.134 -0.0668 -0.0421 -0.0484
 1296ERGO    R416081   4.902   4.243   9.000  0.0038 -0.0027  0.0211
 1296ERGO    R516082   4.751   4.096   8.948  0.0256 -0.0017 -0.0861
 1296ERGO    C116083   4.942   4.112   8.619  0.2089  0.0675  0.0194
 1296ERGO    C216084   5.116   3.843   8.343  0.1998  0.0216  0.1244
 1297ERGO   ROH16085  16.796   8.472   9.684  0.0293  0.3259 -0.0619
 1297ERGO    R116086  16.796   8.592   9.428 -0.0488  0.2529 -0.0986
 1297ERGO    R216087  16.840   8.449   9.196  0.2552  0.2413 -0.0493
 1297ERGO    R316088  16.604   8.559   9.120  0.1122 -0.1283 -0.1605
 1297ERGO    R416089  16.781   8.600   8.891  0.2099  0.3424  0.0106
 1297ERGO    R516090  16.666   8.753   8.994 -0.1436  0.0672  0.0197
 1297ERGO    C116091  16.524   8.792   8.643  0.0494  0.0544 -0.0588
 1297ERGO    C216092  16.367   8.802   8.357  0.0531 -0.1148 -0.1530
 1298ERGO   ROH16093  12.012   0.286  10.048 -0.0417 -0.1756  0.0734
 1298ERGO    R116094  12.118   0.174   9.810 -0.1191 -0.1490  0.0257
 1298ERGO    R216095  11.957   0.084   9.603 -0.1835  0.0607 -0.0207
 1298ERGO    R316096  12.110   0.253   9.455 -0.0547  0.0164  0.0602
 1298ERGO    R416097  11.979   0.079   9.259 -0.0241  0.0769 -0.0113
 1298ERGO    R516098  12.192   0.117   9.276 -0.0195  0.0002  0.0900
 1298ERGO    C116099  12.134   0.235   8.918  0.1896  0.0448  0.0702
 1298ERGO    C216100  11.905   0.231   8.608 -0.2354 -0.0393 -0.2749
 1299ERGO   ROH16101   4.584  11.833   9.624 -0.0150  0.0799 -0.0559
 1299ERGO    R116102   4.529  11.889   9.352 -0.0231  0.1642 -0.0372
 1299ERGO    R216103   4.607  12.124   9.230 -0.0026  0.1906  0.0256
 1299ERGO    R316104   4.723  11.955   9.051 -0.0315  0.2284 -0.0288
 1299ERGO    R416105   4.620  12.176   8.889 -0.1172  0.2306  0.0274
 1299ERGO    R516106   4.579  11.964   8.860 -0.0928  0.2273  0.0168
 1299ERGO    C116107   4.735  12.048   8.522 -0.2111  0.2895 -0.0227
 1299ERGO    C216108   4.803  12.089   8.140  0.0480 -0.2020 -0.1961
 1300ERGO   ROH16109  10.537   9.541   6.245  0.0254 -0.0311 -0.0141
 1300ERGO    R116110  10.429   9.623   6.494 -0.0998  0.1707 -0.1343
 1300ERGO    R216111  10.585   9.664   6.718 -0.2577 -0.0180  0.0055
 1300ERGO    R316112  10.466   9.908   6.716  0.0942  0.1611 -0.1495
 1300ERGO    R416113  10.585   9.886   6.983 -0.2555 -0.0217  0.0098
 1300ERGO    R516114  10.377   9.933   6.937 -0.1450  0.2821 -0.2500
 1300ERGO    C116115  10.473  10.244   7.136  0.0760  0.1444 -0.1333
 1300ERGO    C216116  10.625  10.603   7.249 -0.2969  0.0640  0.0133
 1301ERGO   ROH16117   6.532  18.016   7.026 -0.0295  0.0473  0.1322
 1301ERGO    R116118   6.574  18.035   7.305  0.0549  0.2171  0.1073
 1301ERGO    R216119   6.717  17.845   7.448 -0.1848  0.1340  0.2232
 1301ERGO    R316120   6.861  18.062   7.528  0.1419 -0.0006  0.0294
 1301ERGO    R416121   6.901  17.864   7.740 -0.2430  0.1335  0.2619
 1301ERGO    R516122   6.832  18.068   7.765  0.0707  0.2909  0.0244
 1301ERGO    C116123   7.143  18.078   7.985  0.0298  0.0068  0.1025
 1301ERGO    C216124   7.144  18.323   8.173 -0.0919  0.4865  0.1430
 1302ERGO   ROH16125   1.374   0.206   9.596  0.0939  0.1389  0.0123
 1302ERGO    R116126   1.195   0.198   9.377  0.0064  0.0224  0.0882
 1302ERGO    R216127   1.281   0.199   9.115 -0.1064  0.1558  0.0553
 1302ERGO    R316128   1.128  -0.026   9.098  0.0869  0.0199  0.0691
 1302ERGO    R416129   1.138   0.078   8.824 -0.0649  0.0641  0.0719
 1302ERGO    R516130   0.959   0.029   8.938 -0.0009 -0.1076  0.1115
 1302ERGO    C116131   0.912  -0.203   8.640  0.1407 -0.1169  0.0944
 1302ERGO    C216132   0.868  -0.187   8.330  0.0909  0.3391 -0.3215
 1303ERGO   ROH16133   5.965   5.360   6.294  0.0047  0.1017  0.0443
 1303ERGO    R116134   6.145   5.171   6.405 -0.0294 -0.0176 -0.1010
 1303ERGO    R216135   6.207   5.166   6.674  0.2920  0.0344 -0.1717
 1303ERGO    R316136   6.130   4.906   6.654  0.0296  0.0931  0.0223
 1303ERGO    R416137   6.211   4.939   6.935  0.4433  0.1254 -0.0928
 1303ERGO    R516138   6.284   4.788   6.796  0.1203  0.0074 -0.1438
 1303ERGO    C116139   6.140   4.564   7.069  0.2853  0.2336  0.1352
 1303ERGO    C216140   6.055   4.424   7.304 -0.0038 -0.2832  0.1850
 1304ERGO   ROH16141  12.890   8.751   9.998  0.0911  0.2724  0.0137
 1304ERGO    R116142  12.873   8.582   9.771 -0.0762  0.1702  0.1022
 1304ERGO    R216143  12.693   8.626   9.566  0.0484  0.3107  0.0359
 1304ERGO    R316144  12.917   8.618   9.412  0.0812 -0.0919  0.0893
 1304ERGO    R416145  12.696   8.566   9.226 -0.0393  0.6159 -0.0224
 1304ERGO    R516146  12.873   8.443   9.253 -0.3268  0.1396 -0.0844
 1304ERGO    C116147  12.907   8.524   8.882 -0.0597  0.4156 -0.0062
 1304ERGO    C216148  12.944   8.568   8.593  0.0120 -0.1906 -0.0891
 1305ERGO   ROH16149  16.891  14.749   6.520 -0.1129 -0.3530  0.1812
 1305ERGO    R116150  16.860  14.988   6.669  0.0977 -0.2660  0.0893
 1305ERGO    R216151  16.627  15.051   6.803  0.1230  0.0300  0.0023
 1305ERGO    R316152  16.793  15.076   7.016  0.0911 -0.0750  0.0401
 1305ERGO    R416153  16.553  15.225   7.092  0.2944  0.3661 -0.1506
 1305ERGO    R516154  16.757  15.300   7.094  0.4161  0.0454 -0.1388
 1305ERGO    C116155  16.666  15.350   7.461  0.3643  0.4633 -0.2042
 1305ERGO    C216156  16.489  15.268   7.752 -0.1602  0.0463  0.0477
 1306ERGO   ROH16157   5.936   0.036  10.095  0.0972  0.1030 -0.1075
 1306ERGO    R116158   5.948  -0.110   9.852  0.0211  0.0496 -0.0799
 1306ERGO    R216159   5.731  -0.134   9.683 -0.0343  0.0106 -0.0077
 1306ERGO    R316160   5.905  -0.037   9.498 -0.0923 -0.0267 -0.0817
 1306ERGO    R416161   5.719  -0.204   9.344 -0.1138 -0.0865  0.0149
 1306ERGO    R516162   5.937  -0.219   9.345 -0.1144 -0.0653 -0.0379
 1306ERGO    C116163   5.877  -0.154   8.974 -0.2145 -0.1781 -0.0414
 1306ERGO    C216164   5.582  -0.197   8.834  0.3621 -0.3100  0.1512
 1307ERGO   ROH16165   7.867   3.669   5.773 -0.1382  0.2311  0.1735
 1307ERGO    R116166   7.793   3.510   5.996 -0.0250  0.1621  0.1637
 1307ERGO    R216167   7.847   3.585   6.256  0.0127  0.1344  0.1671
 1307ERGO    R316168   7.580   3.548   6.288  0.0335  0.0319  0.2230
 1307ERGO    R416169   7.690   3.530   6.559  0.0957  0.0395  0.1931
 1307ERGO    R516170   7.562   3.383   6.461  0.1296  0.0064  0.2057
 1307ERGO    C116171   7.347   3.465   6.765  0.1634 -0.1119  0.2609
 1307ERGO    C216172   7.377   3.597   6.983 -0.5109 -0.1945  0.0644
 1308ERGO   ROH16173   6.522  16.551   6.744 -0.0040 -0.1430 -0.1746
 1308ERGO    R116174   6.589  16.391   6.968 -0.0783 -0.0986 -0.1183
 1308ERGO    R216175   6.754  16.480   7.170 -0.0501 -0.0982 -0.1364
 1308ERGO    R316176   6.545  16.408   7.329 -0.0889  0.0385 -0.1260
 1308ERGO    R416177   6.776  16.422   7.510 -0.0488 -0.2116 -0.1567
 1308ERGO    R516178   6.641  16.252   7.484 -0.1997 -0.0871 -0.1837
 1308ERGO    C116179   6.593  16.320   7.857 -0.0844 -0.1495 -0.1588
 1308ERGO    C216180   6.505  16.308   8.136  0.3781 -0.0759 -0.0288
 1309ERGO   ROH16181  15.135   3.685   6.772  0.0700 -0.2106 -0.0484
 1309ERGO    R116182  15.199   3.542   7.007 -0.0702 -0.0597  0.0837
 1309ERGO    R216183  15.399   3.622   7.180 -0.0531 -0.0474  0.0563
 1309ERGO    R316184  15.201   3.609   7.365 -0.0992  0.2342  0.0318
 1309ERGO    R416185  15.449   3.618   7.522 -0.0810 -0.3443  0.0598
 1309ERGO    R516186  15.290   3.469   7.538 -0.3817 -0.0488 -0.0407
 1309ERGO    C116187  15.291   3.604   7.895 -0.1402 -0.2528  0.0389
 1309ERGO    C216188  15.249   3.399   8.232  0.0986  0.0962  0.0447
 1310ERGO   ROH16189  13.988   6.009  10.074  0.0739  0.1807 -0.0111
 1310ERGO    R116190  14.136   6.021   9.833 -0.0400  0.1086 -0.0846
 1310ERGO    R216191  14.105   5.835   9.630 -0.0912  0.0123  0.0131
 1310ERGO    R316192  14.061   6.057   9.479 -0.2109 -0.0650 -0.0682
 1310ERGO    R416193  14.106   5.842   9.285 -0.1477 -0.1225  0.0091
 1310ERGO    R516194  14.211   6.033   9.293 -0.2284 -0.0726 -0.0823
 1310ERGO    C116195  14.065   6.053   8.941 -0.2929 -0.2735 -0.0695
 1310ERGO    C216196  14.072   5.908   8.660 -0.0036 -0.0248 -0.3789
 1311ERGO   ROH16197   5.832   2.844   6.157  0.0360 -0.0430  0.0198
 1311ERGO    R116198   5.663   2.906   6.375  0.0099 -0.0248 -0.0044
 1311ERGO    R216199   5.530   2.712   6.520 -0.0197 -0.0146 -0.0091
 1311ERGO    R316200   5.653   2.832   6.731 -0.0369 -0.0089 -0.0039
 1311ERGO    R416201   5.470   2.639   6.853  0.1011 -0.1355 -0.0138
 1311ERGO    R516202   5.481   2.852   6.897 -0.0035 -0.1462  0.0425
 1311ERGO    C116203   5.550   2.709   7.244  0.1554 -0.2004 -0.0116
 1311ERGO    C216204   5.669   2.673   7.586 -0.4793  0.0673  0.3750
 1312ERGO   ROH16205  15.943   0.168  10.136 -0.0086  0.5926 -0.0348
 1312ERGO    R116206  15.806   0.077   9.905  0.1231  0.3079 -0.0040
 1312ERGO    R216207  15.715   0.249   9.709 -0.0516  0.0956 -0.1044
 1312ERGO    R316208  15.859   0.087   9.545  0.1529  0.1715 -0.0058
 1312ERGO    R416209  15.701   0.254   9.364  0.0126 -0.0514 -0.1111
 1312ERGO    R516210  15.710   0.037   9.365  0.2339 -0.0520 -0.0206
 1312ERGO    C116211  15.828   0.105   9.009  0.2419 -0.0658 -0.0222
 1312ERGO    C216212  15.809   0.126   8.613  0.0311  0.1935 -0.2385
 1313ERGO   ROH16213   1.397  10.408   9.579  0.1553 -0.1887 -0.0654
 1313ERGO    R116214   1.280  10.230   9.393 -0.0099 -0.1172 -0.0319
 1313ERGO    R216215   1.009  10.223   9.344 -0.0303  0.0501  0.0472
 1313ERGO    R316216   1.086  10.257   9.086 -0.0838  0.0030  0.0251
 1313ERGO    R416217   0.803  10.179   9.070 -0.0306 -0.2015  0.0860
 1313ERGO    R516218   0.971  10.084   8.966  0.0238 -0.1249  0.1053
 1313ERGO    C116219   0.756  10.185   8.667 -0.0810 -0.3923  0.0877
 1313ERGO    C216220   0.678  10.270   8.348 -0.1055 -0.1011 -0.1892
 1314ERGO   ROH16221   3.971  17.065   6.616 -0.2709  0.0183 -0.2156
 1314ERGO    R116222   3.817  17.152   6.837 -0.1227  0.1731 -0.1710
 1314ERGO    R216223   3.561  17.252   6.810 -0.1714  0.0801 -0.0630
 1314ERGO    R316224   3.500  17.060   6.992  0.0187  0.2237  0.1579
 1314ERGO    R416225   3.284  17.257   7.017 -0.3154 -0.0697 -0.2485
 1314ERGO    R516226   3.410  17.180   7.178 -0.2904  0.3418 -0.0589
 1314ERGO    C116227   3.066  17.078   7.309 -0.2208 -0.0220 -0.1489
 1314ERGO    C216228   2.841  17.152   7.506 -0.0630  0.0103 -0.2367
 1315ERGO   ROH16229   0.062  14.835  10.133 -0.1241 -0.1627 -0.0995
 1315ERGO    R116230   0.106  14.849   9.854 -0.0461 -0.1148 -0.0865
 1315ERGO    R216231   0.183  14.629   9.704  0.0625 -0.0789 -0.0970
 1315ERGO    R316232  -0.035  14.695   9.556  0.0833 -0.1204 -0.1434
 1315ERGO    R416233   0.162  14.602   9.360  0.1399 -0.0531 -0.1029
 1315ERGO    R516234   0.055  14.792   9.357  0.0985 -0.0848 -0.1131
 1315ERGO    C116235  -0.055  14.648   9.021  0.2045 -0.0770 -0.1498
 1315ERGO    C216236  -0.062  14.609   8.714  0.1476  0.1403 -0.0321
 1316ERGO   ROH16237   0.733  11.178   9.693  0.1378  0.0576 -0.0001
 1316ERGO    R116238   0.574  11.176   9.459  0.0423 -0.1388  0.0642
 1316ERGO    R216239   0.619  11.347   9.247 -0.2671 -0.0644  0.0512
 1316ERGO    R316240   0.627  11.116   9.104 -0.0209 -0.0521  0.0405
 1316ERGO    R416241   0.679  11.326   8.907 -0.2435  0.0093  0.0507
 1316ERGO    R516242   0.525  11.172   8.894 -0.0793 -0.1526  0.0433
 1316ERGO    C116243   0.720  11.097   8.575  0.0014  0.0638  0.0404
 1316ERGO    C216244   0.849  10.813   8.252 -0.1390 -0.0422  0.0003
 1317ERGO   ROH16245   1.373   4.882   6.448  0.2326 -0.0130  0.0895
 1317ERGO    R116246   1.362   5.098   6.631  0.2619  0.1180 -0.0627
 1317ERGO    R216247   1.276   5.068   6.892 -0.0974  0.3843 -0.1459
 1317ERGO    R316248   1.516   5.183   6.949 -0.0277  0.1382  0.0761
 1317ERGO    R416249   1.341   5.266   7.168 -0.1151  0.2070 -0.0128
 1317ERGO    R516250   1.460   5.396   7.042  0.1010  0.1541  0.1256
 1317ERGO    C116251   1.604   5.488   7.383 -0.0599 -0.1271  0.2732
 1317ERGO    C216252   1.610   5.740   7.589  0.2463 -0.0942  0.3811
 1318ERGO   ROH16253  15.498   4.670   6.712 -0.0553  0.0193  0.1540
 1318ERGO    R116254  15.398   4.641   6.976 -0.1166  0.1939  0.1519
 1318ERGO    R216255  15.545   4.525   7.179 -0.2935  0.0021  0.1787
 1318ERGO    R316256  15.490   4.758   7.308  0.0335  0.1026  0.1418
 1318ERGO    R416257  15.585   4.577   7.518  0.0239  0.0943  0.1292
 1318ERGO    R516258  15.398   4.690   7.518  0.1338  0.2725  0.2392
 1318ERGO    C116259  15.558   4.826   7.837  0.5156  0.2423  0.0658
 1318ERGO    C216260  15.551   5.091   8.038 -0.1946  0.3010 -0.1420
 1319ERGO   ROH16261   5.392  11.906   6.408 -0.1830 -0.1152  0.0932
 1319ERGO    R116262   5.141  11.905   6.539 -0.1084  0.0516  0.2406
 1319ERGO    R216263   5.081  12.077   6.747 -0.0452  0.4410 -0.0544
 1319ERGO    R316264   4.868  12.141   6.591 -0.1600  0.0641 -0.0640
 1319ERGO    R416265   4.752  12.078   6.852 -0.0299  0.1015  0.0116
 1319ERGO    R516266   4.695  11.991   6.660  0.0394 -0.1097  0.0801
 1319ERGO    C116267   4.360  12.140   6.766 -0.1288 -0.4500  0.0410
 1319ERGO    C216268   4.020  12.056   7.001 -0.2243  0.2092  0.3595
 1320ERGO   ROH16269   5.833   3.488   9.668  0.0008 -0.1673  0.2149
 1320ERGO    R116270   5.917   3.250   9.541  0.0241 -0.1426  0.1841
 1320ERGO    R216271   5.769   3.017   9.548 -0.0578 -0.0981 -0.0276
 1320ERGO    R316272   5.792   3.032   9.278  0.1607  0.0043 -0.0052
 1320ERGO    R416273   5.623   2.798   9.324  0.0652  0.0244 -0.2307
 1320ERGO    R516274   5.806   2.804   9.206  0.1625  0.0283 -0.0842
 1320ERGO    C116275   5.560   2.685   8.940  0.3418  0.1918 -0.3278
 1320ERGO    C216276   5.558   2.442   8.672  0.2407  0.1370 -0.3629
 1321ERGO   ROH16277   2.949  13.651   6.360 -0.2801 -0.0352 -0.0577
 1321ERGO    R116278   3.046  13.737   6.611 -0.0464 -0.0344 -0.1451
 1321ERGO    R216279   2.878  13.795   6.823  0.1388  0.1236 -0.0381
 1321ERGO    R316280   3.034  13.615   6.954  0.1191  0.0560 -0.1066
 1321ERGO    R416281   2.920  13.783   7.166  0.2300  0.0601 -0.0510
 1321ERGO    R516282   3.131  13.741   7.134  0.2077 -0.0011 -0.1147
 1321ERGO    C116283   3.090  13.607   7.489  0.2646 -0.0405 -0.1228
 1321ERGO    C216284   2.964  13.445   7.741  0.3150 -0.3407  0.2765
 1322ERGO   ROH16285   7.847  10.224   9.806 -0.1584 -0.0107  0.1069
 1322ERGO    R116286   7.785  10.142   9.542  0.0688 -0.1138  0.0820
 1322ERGO    R216287   7.627  10.293   9.373 -0.2137 -0.4142  0.0633
 1322ERGO    R316288   7.840  10.270   9.206 -0.1156  0.0458  0.1111
 1322ERGO    R416289   7.612  10.320   9.029 -0.1813 -0.3945  0.0639
 1322ERGO    R516290   7.753  10.155   9.015  0.1658 -0.1083  0.0721
 1322ERGO    C116291   7.803  10.313   8.672 -0.0703  0.0488  0.1091
 1322ERGO    C216292   7.640  10.422   8.331  0.1191  0.1570  0.1810
 1323ERGO   ROH16293  14.265   6.569   6.511 -0.0789 -0.1979 -0.0445
 1323ERGO    R116294  14.263   6.715   6.754 -0.0110  0.0391 -0.1822
 1323ERGO    R216295  14.276   6.592   7.001 -0.2508  0.2569 -0.0547
 1323ERGO    R316296  14.487   6.759   7.037 -0.0710  0.0518 -0.1368
 1323ERGO    R416297  14.367   6.733   7.303 -0.1761  0.4035 -0.1450
 1323ERGO    R516298  14.410   6.919   7.198  0.0623  0.2726 -0.2871
 1323ERGO    C116299  14.618   6.972   7.513  0.0360  0.2963 -0.2746
 1323ERGO    C216300  14.882   6.886   7.815  0.1330  0.1669  0.0702
 1324ERGO   ROH16301  16.743  10.297   9.967 -0.2252  0.1905 -0.0318
 1324ERGO    R116302  16.872  10.259   9.718 -0.2792  0.0041 -0.0324
 1324ERGO    R216303  16.743  10.151   9.499 -0.3931  0.0495  0.0135
 1324ERGO    R316304  16.828  10.378   9.377 -0.2058 -0.0592 -0.0647
 1324ERGO    R416305  16.769  10.193   9.157 -0.4960 -0.0423 -0.0066
 1324ERGO    R516306  16.956  10.301   9.189 -0.3655 -0.2303 -0.1070
 1324ERGO    C116307  16.863  10.432   8.843 -0.3799 -0.1978 -0.0916
 1324ERGO    C216308  16.777  10.376   8.513  0.0802 -0.0878 -0.2296
 1325ERGO   ROH16309   1.681  10.013   6.096  0.2157 -0.1152  0.0084
 1325ERGO    R116310   1.580   9.958   6.354  0.1495 -0.0333  0.0009
 1325ERGO    R216311   1.657   9.736   6.500  0.0441 -0.0380  0.0549
 1325ERGO    R316312   1.716   9.922   6.690  0.0787 -0.0240  0.0301
 1325ERGO    R416313   1.726   9.665   6.831  0.0803 -0.0047  0.0544
 1325ERGO    R516314   1.609   9.840   6.888  0.0999  0.0055  0.0510
 1325ERGO    C116315   1.822   9.797   7.202  0.1338  0.0279  0.0308
 1325ERGO    C216316   1.969   9.615   7.474 -0.1241 -0.0327  0.1960
 1326ERGO   ROH16317   1.589   1.795   9.912  0.1084 -0.1554 -0.1379
 1326ERGO    R116318   1.737   1.781   9.671  0.0596 -0.0062 -0.1770
 1326ERGO    R216319   1.653   1.633   9.454  0.1472 -0.0846 -0.1525
 1326ERGO    R316320   1.683   1.869   9.322 -0.1173 -0.0528 -0.1641
 1326ERGO    R416321   1.672   1.666   9.110  0.2936 -0.1155 -0.1485
 1326ERGO    R516322   1.828   1.816   9.138  0.0700  0.1205 -0.0768
 1326ERGO    C116323   1.711   1.907   8.787  0.1305 -0.1037 -0.1573
 1326ERGO    C216324   1.620   2.095   8.500 -0.2648  0.0706 -0.2987
 1327ERGO   ROH16325   2.697  12.279   9.789 -0.1209  0.1787  0.0102
 1327ERGO    R116326   2.764  12.323   9.518 -0.2081  0.1341 -0.0178
 1327ERGO    R216327   2.789  12.117   9.335 -0.1221  0.0941  0.0461
 1327ERGO    R316328   2.609  12.264   9.194 -0.2417 -0.0626  0.0317
 1327ERGO    R416329   2.805  12.174   8.995 -0.0756  0.1980  0.0642
 1327ERGO    R516330   2.741  12.380   9.032 -0.3116  0.1255  0.1015
 1327ERGO    C116331   2.645  12.345   8.664 -0.1608  0.1114  0.0612
 1327ERGO    C216332   2.462  12.329   8.400 -0.1981 -0.2003 -0.2459
 1328ERGO   ROH16333   8.767   7.822   9.795  0.0155  0.1149  0.1229
 1328ERGO    R116334   8.648   7.803   9.538 -0.0624  0.2015  0.1523
 1328ERGO    R216335   8.569   8.025   9.394  0.3204  0.2801  0.0539
 1328ERGO    R316336   8.727   7.916   9.201  0.0953 -0.1105  0.0812
 1328ERGO    R416337   8.495   8.020   9.056  0.1911  0.1081  0.0836
 1328ERGO    R516338   8.573   7.817   9.047 -0.1065 -0.0176  0.2192
 1328ERGO    C116339   8.600   7.914   8.679 -0.0956 -0.3587  0.1264
 1328ERGO    C216340   8.632   8.085   8.304  0.0362  0.0686 -0.0079
 1329ERGO   ROH16341   4.847   5.924   9.615 -0.0058  0.0615 -0.1276
 1329ERGO    R116342   4.829   5.800   9.360 -0.1293  0.0079 -0.0952
 1329ERGO    R216343   4.600   5.813   9.204 -0.1108  0.2251 -0.1175
 1329ERGO    R316344   4.773   5.909   9.018  0.0175 -0.0209 -0.1272
 1329ERGO    R416345   4.546   5.811   8.863  0.0288 -0.0080 -0.1389
 1329ERGO    R516346   4.755   5.757   8.834  0.0058 -0.1501 -0.0155
 1329ERGO    C116347   4.677   5.899   8.489  0.2306 -0.3746 -0.1604
 1329ERGO    C216348   4.550   5.993   8.212  0.2770 -0.0170  0.0443
 1330ERGO   ROH16349  12.980   3.788   9.848  0.0599 -0.0460 -0.2233
 1330ERGO    R116350  12.934   3.827   9.571  0.0556 -0.0603 -0.2254
 1330ERGO    R216351  13.077   4.009   9.421 -0.0532  0.0475 -0.2048
 1330ERGO    R316352  13.124   3.792   9.263  0.1056  0.0872 -0.2114
 1330ERGO    R416353  13.140   4.022   9.081 -0.3275  0.0903 -0.2560
 1330ERGO    R516354  13.016   3.845   9.056 -0.1214 -0.0755 -0.1372
 1330ERGO    C116355  13.222   3.827   8.736 -0.3382  0.1525 -0.2921
 1330ERGO    C216356  13.282   3.948   8.417  0.2112 -0.1098  0.0910
 1331ERGO   ROH16357  14.038   2.788   7.004  0.1643  0.0459  0.2562
 1331ERGO    R116358  13.913   2.645   7.214  0.2328 -0.1364  0.1756
 1331ERGO    R216359  14.050   2.562   7.439  0.2037  0.1025  0.2862
 1331ERGO    R316360  13.853   2.696   7.569 -0.1143 -0.1955  0.1289
 1331ERGO    R416361  13.947   2.496   7.762  0.2529  0.1374  0.3085
 1331ERGO    R516362  13.741   2.528   7.698  0.1959 -0.3340  0.2259
 1331ERGO    C116363  13.703   2.585   8.073 -0.0172 -0.1220  0.1737
 1331ERGO    C216364  13.506   2.627   8.384 -0.0486 -0.1924 -0.0732
 1332ERGO   ROH16365  11.703  14.415   9.904  0.1252 -0.0989 -0.0218
 1332ERGO    R116366  11.707  14.607   9.696  0.0041 -0.0777 -0.0059
 1332ERGO    R216367  11.882  14.592   9.483 -0.0018  0.0368 -0.0229
 1332ERGO    R316368  11.654  14.609   9.336 -0.0238 -0.0774 -0.0010
 1332ERGO    R416369  11.871  14.634   9.140 -0.0594  0.0284 -0.0215
 1332ERGO    R516370  11.703  14.771   9.167 -0.1233 -0.0556 -0.0072
 1332ERGO    C116371  11.649  14.674   8.803 -0.1137 -0.0838 -0.0003
 1332ERGO    C216372  11.769  14.576   8.513 -0.0439 -0.4973 -0.0956
 1333ERGO   ROH16373   9.480   8.205   9.745  0.1835  0.0087  0.1262
 1333ERGO    R116374   9.582   8.347   9.523  0.2726 -0.0505  0.1286
 1333ERGO    R216375   9.708   8.223   9.311 -0.0163 -0.1540  0.0126
 1333ERGO    R316376   9.522   8.356   9.164  0.0924  0.1723  0.1621
 1333ERGO    R416377   9.732   8.286   8.972 -0.2468 -0.3393 -0.0417
 1333ERGO    R516378   9.651   8.485   9.008  0.1971 -0.1495 -0.0260
 1333ERGO    C116379   9.573   8.448   8.637 -0.2790 -0.1409  0.0670
 1333ERGO    C216380   9.693   8.472   8.287  0.0140  0.3577 -0.1975
 1334ERGO   ROH16381   9.503  15.144   6.753 -0.0569 -0.0524  0.2222
 1334ERGO    R116382   9.673  15.142   6.979 -0.0309  0.0304  0.2053
 1334ERGO    R216383   9.776  15.372   7.090 -0.1391  0.0867  0.2045
 1334ERGO    R316384   9.664  15.275   7.318 -0.0698  0.0171  0.2078
 1334ERGO    R416385   9.916  15.397   7.405 -0.0546 -0.0141  0.1746
 1334ERGO    R516386   9.850  15.193   7.445 -0.0393 -0.0207  0.1309
 1334ERGO    C116387   9.892  15.320   7.802  0.0598 -0.1382  0.1605
 1334ERGO    C216388   9.868  15.403   8.071  0.2104  0.2237  0.1732
 1335ERGO   ROH16389   7.299   0.973  10.140  0.2427  0.0759  0.0663
 1335ERGO    R116390   7.360   1.050   9.874 -0.1024 -0.0074 -0.0411
 1335ERGO    R216391   7.551   0.923   9.722  0.1398  0.3271 -0.0245
 1335ERGO    R316392   7.347   0.897   9.544  0.0880 -0.3486  0.1039
 1335ERGO    R416393   7.585   0.943   9.378 -0.1484  0.5497 -0.0444
 1335ERGO    R516394   7.398   1.056   9.372 -0.5786 -0.0952  0.1070
 1335ERGO    C116395   7.413   0.931   9.012 -0.3649  0.0450  0.0646
 1335ERGO    C216396   7.306   0.863   8.673  0.0000  0.0259 -0.1157
 1336ERGO   ROH16397   4.813  14.017   6.180 -0.0303 -0.2064 -0.0254
 1336ERGO    R116398   4.932  13.950   6.427 -0.0035  0.0415  0.0321
 1336ERGO    R216399   4.990  14.138   6.621 -0.2091  0.2057 -0.0599
 1336ERGO    R316400   4.843  13.973   6.779 -0.0810  0.1528  0.0048
 1336ERGO    R416401   5.063  14.064   6.951 -0.0397  0.2259 -0.0920
 1336ERGO    R516402   5.005  13.857   6.912  0.0159  0.2081 -0.0672
 1336ERGO    C116403   4.967  13.866   7.291  0.1791  0.1881 -0.0499
 1336ERGO    C216404   4.869  13.748   7.693 -0.2244 -0.0767 -0.1457
 1337ERGO   ROH16405  12.146  12.488  10.210 -0.1320 -0.0415 -0.1264
 1337ERGO    R116406  12.321  12.448   9.991 -0.0963 -0.0158 -0.1035
 1337ERGO    R216407  12.230  12.385   9.738 -0.0510 -0.0882 -0.1061
 1337ERGO    R316408  12.378  12.602   9.667 -0.1206 -0.0463 -0.1214
 1337ERGO    R416409  12.401  12.419   9.439  0.0891 -0.1266 -0.0307
 1337ERGO    R516410  12.565  12.511   9.549 -0.0148 -0.0007  0.0145
 1337ERGO    C116411  12.639  12.642   9.199  0.1052 -0.1098 -0.0010
 1337ERGO    C216412  12.643  12.587   8.927 -0.0478 -0.2451  0.2106
 1338ERGO   ROH16413   6.834   1.156  10.171  0.1115 -0.1342  0.1172
 1338ERGO    R116414   6.905   1.012   9.937 -0.0189 -0.1160  0.0659
 1338ERGO    R216415   6.717   0.920   9.757 -0.1048  0.1139  0.0352
 1338ERGO    R316416   6.868   1.057   9.578  0.0163  0.0430  0.0816
 1338ERGO    R416417   6.716   0.866   9.415  0.1127 -0.0099  0.0523
 1338ERGO    R516418   6.933   0.893   9.416  0.1146 -0.0189  0.1815
 1338ERGO    C116419   6.858   0.964   9.049  0.3530 -0.1486  0.1059
 1338ERGO    C216420   6.913   1.082   8.756 -0.1793  0.1882 -0.1831
 1339ERGO   ROH16421  15.599  10.121   6.588  0.0296  0.3880  0.1602
 1339ERGO    R116422  15.681   9.933   6.782 -0.2850  0.1448  0.0658
 1339ERGO    R216423  15.897   9.975   6.949 -0.0583 -0.3987 -0.0639
 1339ERGO    R316424  15.715   9.924   7.145 -0.0630 -0.0045  0.0428
 1339ERGO    R416425  15.968   9.816   7.248 -0.2507 -0.7010 -0.1744
 1339ERGO    R516426  15.779   9.709   7.230 -0.5512 -0.2132 -0.0859
 1339ERGO    C116427  15.839   9.676   7.605 -0.3672 -0.5070 -0.1387
 1339ERGO    C216428  15.987   9.519   7.839 -0.2454 -0.0324 -0.0792
 1340ERGO   ROH16429   6.326  11.435   9.739 -0.0097 -0.1718 -0.0016
 1340ERGO    R116430   6.207  11.535   9.503 -0.1573 -0.1770  0.0701
 1340ERGO    R216431   6.356  11.613   9.283 -0.2773  0.1008  0.0884
 1340ERGO    R316432   6.195  11.438   9.152 -0.1077 -0.0074  0.0193
 1340ERGO    R416433   6.331  11.586   8.939 -0.0967  0.0762  0.0759
 1340ERGO    R516434   6.116  11.559   8.962 -0.0957 -0.0589 -0.0223
 1340ERGO    C116435   6.165  11.405   8.617  0.1677 -0.0395  0.0037
 1340ERGO    C216436   6.179  11.414   8.392 -0.2828  0.1268 -0.1780
 1341ERGO   ROH16437  10.236  17.112   6.824 -0.3335 -0.0601  0.3789
 1341ERGO    R116438  10.266  17.063   7.101 -0.2295 -0.2294  0.3389
 1341ERGO    R216439  10.317  16.812   7.203  0.3343 -0.2126  0.1254
 1341ERGO    R316440  10.527  16.937   7.321  0.0603  0.1652  0.2334
 1341ERGO    R416441  10.397  16.790   7.539  0.3409 -0.2821  0.1200
 1341ERGO    R516442  10.444  17.002   7.536 -0.1149 -0.1631  0.2756
 1341ERGO    C116443  10.641  16.895   7.845  0.0875  0.0322  0.2183
 1341ERGO    C216444  10.832  16.629   8.040  0.0621  0.2393 -0.1254
 1342ERGO   ROH16445  10.397   5.650   9.643  0.2715  0.0178 -0.0694
 1342ERGO    R116446  10.360   5.572   9.374  0.1154 -0.1057 -0.0123
 1342ERGO    R216447  10.265   5.745   9.181  0.1131 -0.1666 -0.0534
 1342ERGO    R316448  10.492   5.671   9.049  0.0165 -0.3399 -0.1296
 1342ERGO    R416449  10.313   5.771   8.839  0.1298  0.1467 -0.0308
 1342ERGO    R516450  10.413   5.578   8.843 -0.1307 -0.0120 -0.2388
 1342ERGO    C116451  10.554   5.717   8.517  0.0490  0.1664 -0.0890
 1342ERGO    C216452  10.411   5.941   8.249 -0.2791 -0.0227  0.2588
 1343ERGO   ROH16453   3.551   0.042  10.266 -0.0356 -0.2885  0.0155
 1343ERGO    R116454   3.689   0.066  10.020 -0.0901  0.0625  0.0145
 1343ERGO    R216455   3.688  -0.134   9.828  0.3025  0.1093 -0.0403
 1343ERGO    R316456   3.601   0.067   9.667 -0.1109 -0.0109  0.0179
 1343ERGO    R416457   3.701  -0.139   9.483  0.1546  0.1608 -0.0480
 1343ERGO    R516458   3.760   0.071   9.487 -0.1908  0.2693 -0.0559
 1343ERGO    C116459   3.628   0.047   9.131 -0.3196  0.0780  0.0023
 1343ERGO    C216460   3.577   0.087   8.879  0.3054 -0.3249 -0.3811
 1344ERGO   ROH16461   3.497  15.569   6.443 -0.2165 -0.2045 -0.0598
 1344ERGO    R116462   3.443  15.484   6.708 -0.0744 -0.1372 -0.0087
 1344ERGO    R216463   3.639  15.476   6.903 -0.0095  0.0898 -0.0619
 1344ERGO    R316464   3.461  15.629   7.041 -0.0853  0.0129 -0.0726
 1344ERGO    R416465   3.609  15.484   7.248  0.1173  0.2397 -0.0535
 1344ERGO    R516466   3.393  15.492   7.224  0.0998  0.0473  0.0249
 1344ERGO    C116467   3.426  15.633   7.577  0.1200  0.2548 -0.0587
 1344ERGO    C216468   3.631  15.621   7.921  0.1482 -0.2030  0.2009
 1345ERGO   ROH16469   4.215   7.185   9.611 -0.0518 -0.1222  0.0818
 1345ERGO    R116470   4.223   7.093   9.343 -0.0482 -0.0325  0.0519
 1345ERGO    R216471   3.995   7.033   9.199 -0.0414 -0.0010  0.0381
 1345ERGO    R316472   4.100   7.208   9.020 -0.0594  0.0632  0.0880
 1345ERGO    R416473   3.998   6.987   8.857  0.0670  0.0337  0.0332
 1345ERGO    R516474   4.200   7.069   8.853  0.0418  0.1151  0.0988
 1345ERGO    C116475   4.099   7.125   8.489  0.1133  0.1142  0.0772
 1345ERGO    C216476   3.793   7.122   8.318 -0.4066  0.2147 -0.3821
 1346W        W16477   5.929  10.850   4.073  0.1895  0.1115 -0.2595
 1347W        W16478   4.015   7.132  16.461  0.2467  0.0079  0.1676
 1348W        W16479  14.149   5.143  11.361  0.0895 -0.3673 -0.1972
 1349W        W16480  15.814   6.586  10.656  0.4169 -0.1352  0.5010
 1350W        W16481  12.224  14.360   0.096 -0.2959  0.1256 -0.0812
 1351W        W16482   0.923  15.378  11.592 -0.0611 -0.1300  0.0537
 1352W        W16483  16.126  15.356  15.728  0.0147 -0.0230  0.2553
 1353W        W16484  14.964   9.549   0.230  0.0929 -0.1949  0.0489
 1354W        W16485   6.630   9.210  13.416  0.1807  0.0161 -0.0707
 1355W        W16486   9.073  11.307   2.815 -0.0840 -0.3970 -0.2430
 1356W        W16487   8.368  13.873   2.261  0.2319 -0.0145 -0.0291
 1357W        W16488  13.158   0.271   1.726  0.0764 -0.0640  0.0062
 1358W        W16489  17.364   6.931  14.573  0.0771  0.1206 -0.1873
 1359W        W16490  12.904  17.172  13.836 -0.1825  0.0281  0.1705
 1360W        W16491   0.590  16.347   3.213  0.2694 -0.0858 -0.1291
 1361W        W16492  13.637   8.287   2.790 -0.1433 -0.1267  0.2643
 1362W        W16493   0.988   2.506  11.439  0.0730  0.1918  0.0624
 1363W        W16494  17.030   9.278   5.126 -0.0087  0.1514 -0.0400
 1364W        W16495   6.671  10.326  10.605 -0.1641  0.1792  0.2696
 1365W        W16496   2.999  10.696   1.556  0.2185 -0.1517 -0.2456
 1366W        W16497  12.917  10.373   0.277  0.3646  0.1229  0.3266
 1367W        W16498  11.846  17.957   5.831  0.1366 -0.5582  0.1249
 1368W        W16499  17.131  17.189  13.602 -0.1153  0.1087  0.0554
 1369W        W16500   5.842   8.522   3.315  0.2198 -0.0831 -0.0956
 1370W        W16501  16.024   1.865  16.412  0.1804  0.3012  0.0162
 1371W        W16502   7.954   8.413  12.551  0.2197  0.2636 -0.3926
 1372W        W16503   0.426  15.939  16.169  0.3523 -0.2388  0.0087
 1373W        W16504   3.833  10.955   0.461  0.1006  0.1685  0.0890
 1374W        W16505  11.573   8.997   5.814 -0.2816  0.0598  0.2996
 1375W        W16506  14.466  10.527   3.464  0.1090 -0.1540  0.0858
 1376W        W16507  10.492   5.708  13.022 -0.2537  0.1271  0.0741
 1377W        W16508  16.743   7.707   5.057  0.0511  0.0168 -0.1921
 1378W        W16509   3.634   0.959  11.276  0.3846 -0.1488  0.1205
 1379W        W16510  10.823   7.826   0.561  0.2890  0.3823 -0.1281
 1380W        W16511  12.525   0.280  15.880 -0.3260 -0.0565 -0.0299
 1381W        W16512   6.389   9.305  15.201 -0.1123 -0.1090 -0.0415
 1382W        W16513  14.403  14.985   6.072 -0.2577  0.1606 -0.0631
 1383W        W16514   5.950  15.391   5.953 -0.0533 -0.0542 -0.0453
 1384W        W16515   6.652  16.410   5.284  0.1085  0.0546 -0.0655
 1385W        W16516  13.662  14.940   5.356 -0.1868 -0.1454 -0.0876
 1386W        W16517   9.703   5.667   5.244 -0.0247 -0.3328 -0.1593
 1387W        W16518  10.685   3.037   3.307 -0.0176 -0.0572 -0.0272
 1388W        W16519   6.217   1.951   5.189 -0.1988  0.0638 -0.0385
 1389W        W16520   0.041  12.430   2.939 -0.0335  0.0506  0.3402
 1390W        W16521   4.170  13.480  15.883  0.2677  0.4076  0.0306
 1391W        W16522   6.625   2.199  11.082 -0.1767 -0.0045  0.1828
 1392W        W16523  16.315  13.435   1.374  0.2060 -0.0357  0.2040
 1393W        W16524   9.285   6.242   4.448 -0.3467  0.1693  0.0902
 1394W        W16525  16.192   6.861  15.082 -0.1959 -0.0829  0.3397
 1395W        W16526   6.926  13.388   5.485  0.1299 -0.1355  0.0840
 1396W        W16527  10.284   7.741  13.497  0.2548 -0.0900 -0.1841
 1397W        W16528   9.350  17.088   3.757  0.3435 -0.0411 -0.3982
 1398W        W16529   1.155   9.220   1.705 -0.0375 -0.1138 -0.1337
 1399W        W16530  14.466   5.870  13.373 -0.0261  0.0298 -0.1931
 1400W        W16531  16.746  11.725   0.361 -0.0681 -0.1334  0.0380
 1401W        W16532  12.325   2.914  15.542 -0.0638  0.1086 -0.2428
 1402W        W16533   3.416  11.716  13.025  0.0427 -0.1101  0.3074
 1403W        W16534   0.944   6.026   5.014 -0.1686  0.2788  0.0951
 1404W        W16535   5.869   8.483  16.233 -0.0037  0.3389 -0.0098
 1405W        W16536   6.682   6.704  15.515  0.0088 -0.1473  0.0837
 1406W        W16537   6.087  10.845   1.901  0.2664 -0.0143  0.0704
 1407W        W16538   0.617   6.055  15.359  0.1923 -0.1051  0.2097
 1408W        W16539   8.643  14.809  14.736 -0.0651 -0.0103 -0.0677
 1409W        W16540  12.347   0.331   5.067  0.0432 -0.1770  0.1704
 1410W        W16541  12.822  15.495   0.023  0.2478 -0.0280  0.3295
 1411W        W16542   4.487  10.500  15.155  0.1769 -0.0152  0.0481
 1412W        W16543  10.503   4.351  11.041 -0.2849  0.1044  0.4212
 1413W        W16544  10.932   1.332  15.445 -0.0881 -0.1428 -0.0038
 1414W        W16545   8.789  10.900  14.014 -0.0286 -0.2995 -0.0027
 1415W        W16546   5.449   3.123   0.833 -0.3617 -0.0758  0.1754
 1416W        W16547  16.333  11.390  12.826 -0.0820 -0.2246 -0.0969
 1417W        W16548  10.419  14.799  16.248  0.3647 -0.0665 -0.0240
 1418W        W16549  10.360  16.830  16.017  0.2237  0.0459 -0.0460
 1419W        W16550   8.254  16.885   0.480  0.0697 -0.1863  0.3751
 1420W        W16551   3.344   2.664   1.159  0.2410  0.0368 -0.0655
 1421W        W16552   5.455   3.730   0.020  0.0066 -0.0886 -0.0153
 1422W        W16553  10.024   2.475   5.501  0.0247  0.0544 -0.3490
 1423W        W16554   4.238  17.926  12.319  0.0126  0.1180 -0.0469
 1424W        W16555   3.985   3.980   4.280  0.1628  0.0862  0.1565
 1425W        W16556   2.579  13.167   5.816 -0.2233 -0.1309 -0.0510
 1426W        W16557  14.233   6.546  11.573 -0.0847 -0.1462  0.0851
 1427W        W16558   8.221   5.339   2.188 -0.0008 -0.2728  0.0958
 1428W        W16559  10.907   8.447  10.671  0.1072  0.1331 -0.4818
 1429W        W16560   7.031   2.465  11.273  0.3733 -0.1834 -0.2217
 1430W        W16561   6.958   8.339  12.886 -0.0525  0.5200  0.0390
 1431W        W16562   5.328   8.394   5.135  0.1552 -0.0771  0.1507
 1432W        W16563  14.256   1.047   0.373 -0.1542  0.2749 -0.0217
 1433W        W16564   6.967   8.135  11.526 -0.0291 -0.0258  0.0512
 1434W        W16565  14.700  15.695   2.005 -0.2705 -0.0905  0.1267
 1435W        W16566  13.709  14.123   5.270 -0.1523  0.2223 -0.2368
 1436W        W16567  14.293   5.970   5.089 -0.1834  0.2379 -0.0723
 1437W        W16568   5.296   1.903  12.159 -0.1696  0.5341  0.1278
 1438W        W16569   2.478  13.395  11.730  0.0413 -0.0025 -0.2580
 1439W        W16570   8.042   5.015  15.410  0.1235 -0.0901  0.0642
 1440W        W16571   2.003   7.499  11.291 -0.2300 -0.2054 -0.0763
 1441W        W16572   2.857  15.788  12.782  0.3424 -0.0822 -0.0910
 1442W        W16573   1.262   2.846  15.153 -0.0776 -0.3876  0.0463
 1443W        W16574   9.901  13.661  12.171  0.0595 -0.2693 -0.0112
 1444W        W16575   7.631  11.268   0.788 -0.1897 -0.1054  0.2533
 1445W        W16576  13.489  15.574   6.218 -0.4118 -0.2717 -0.0591
 1446W        W16577   2.615   2.006  13.445 -0.0167 -0.2638 -0.0455
 1447W        W16578  17.075  10.845   0.835  0.0361  0.0973 -0.0767
 1448W        W16579  16.722   1.589   2.096 -0.0514  0.0334  0.1630
 1449W        W16580   9.546   4.891   0.569 -0.1945  0.1244 -0.0222
 1450W        W16581   1.099   2.697   5.319 -0.0931  0.1987 -0.3277
 1451W        W16582  10.453   1.966  13.877  0.2752 -0.1722  0.1465
 1452W        W16583   6.574  14.413  10.837  0.3241 -0.0495 -0.0826
 1453W        W16584  16.598   5.472  10.607  0.1426  0.0831 -0.1615
 1454W        W16585  10.920   2.032   5.365  0.1125 -0.1865 -0.0467
 1455W        W16586  13.484  17.125  15.054 -0.1164 -0.5414  0.0920
 1456W        W16587  14.033   4.393   1.991  0.1766 -0.3848 -0.1454
 1457W        W16588   2.054  12.852   2.492 -0.5226 -0.1918 -0.3819
 1458W        W16589   4.059   8.491   1.915  0.1373 -0.1074  0.1607
 1459W        W16590  15.455   5.103  10.233 -0.0025  0.1601  0.2088
 1460W        W16591  17.123   0.191   1.775  0.0165  0.2806 -0.1688
 1461W        W16592   8.130  10.175  12.972  0.1977 -0.0548 -0.1531
 1462W        W16593  14.872  12.220   3.637  0.1166 -0.3853  0.2487
 1463W        W16594   3.470   9.703   0.226  0.0579 -0.0674  0.0488
 1464W        W16595  12.101   6.943   1.021 -0.2431 -0.0652  0.1828
 1465W        W16596   9.641   1.088   2.702 -0.0214 -0.2055 -0.1312
 1466W        W16597  13.828   8.413   2.297  0.0118 -0.0850 -0.0704
 1467W        W16598  15.271  11.492   0.856  0.0531 -0.4331  0.2634
 1468W        W16599  10.802   3.919  12.955  0.0333 -0.1370 -0.1774
 1469W        W16600   9.630   5.419  12.539  0.3327  0.1297 -0.3928
 1470W        W16601   1.900  14.692   1.693  0.0127  0.2478 -0.1949
 1471W        W16602  12.154   6.860  14.484 -0.3916  0.3965 -0.2504
 1472W        W16603   8.846   8.799   4.824 -0.4538  0.0456  0.2222
 1473W        W16604  12.689  15.121  16.159 -0.0900  0.0851 -0.0672
 1474W        W16605   0.901   6.142  15.786 -0.1503  0.0127 -0.0995
 1475W        W16606   4.998  16.107  14.478  0.2399  0.3583  0.3039
 1476W        W16607  14.227  14.097  15.135 -0.0729 -0.1505  0.2387
 1477W        W16608   3.496   4.835   3.488 -0.0155  0.0236  0.1914
 1478W        W16609  14.143   8.380  14.799  0.0102  0.0613 -0.2193
 1479W        W16610  16.300  14.298  12.297 -0.0710  0.1653 -0.2568
 1480W        W16611   1.277  13.037  11.349  0.1217 -0.1761  0.2529
 1481W        W16612  12.930   6.326   4.617 -0.1492  0.0743 -0.0587
 1482W        W16613   1.283   0.395   3.759  0.0033  0.1217 -0.2163
 1483W        W16614   1.602  15.858   3.409 -0.1712 -0.2287 -0.0879
 1484W        W16615   8.715   5.069   4.068  0.1485 -0.0796  0.1466
 1485W        W16616  16.375   8.958   2.166  0.2377  0.0055  0.2237
 1486W        W16617   6.125  17.065   2.665  0.1253 -0.2913  0.0304
 1487W        W16618   4.026   0.565  15.028  0.3902 -0.3237  0.0826
 1488W        W16619   8.357  10.647  14.424  0.3664 -0.3753  0.2203
 1489W        W16620   9.300   1.864   5.166 -0.0302 -0.2145 -0.0817
 1490W        W16621  16.409  14.278   4.069 -0.1093  0.0821 -0.0739
 1491W        W16622   4.318  12.677  16.369  0.1077  0.2926 -0.0853
 1492W        W16623   5.626  14.615   5.069 -0.0191 -0.1376 -0.5475
 1493W        W16624   5.652  13.311   0.509  0.0277  0.1599  0.1683
 1494W        W16625  11.111   2.424   2.444  0.2598 -0.1299  0.2894
 1495W        W16626   8.299  11.693  12.995  0.2864  0.3135  0.0590
 1496W        W16627  12.951  10.831  14.772  0.1917 -0.1341 -0.0840
 1497W        W16628   0.454   7.939   3.390 -0.2330  0.3346 -0.2367
 1498W        W16629   2.924   0.192   3.961 -0.3229 -0.3967 -0.0385
 1499W        W16630  10.201   3.448   3.112  0.0252 -0.1741 -0.1797
 1500W        W16631   9.352  11.508  13.919 -0.2017  0.0743 -0.0595
 1501W        W16632   9.262   8.344   1.490 -0.1903  0.4314  0.0908
 1502W        W16633  14.988   5.266  14.595 -0.0645  0.0185  0.1889
 1503W        W16634   1.069  13.821   4.497 -0.2316  0.1368  0.1080
 1504W        W16635   7.573  10.977   0.260  0.2377  0.1431  0.0321
 1505W        W16636  13.828   4.644   4.865 -0.0770  0.2192 -0.2967
 1506W        W16637   9.538   8.007  10.789 -0.0523 -0.1812 -0.0357
 1507W        W16638  16.533  15.086  13.345 -0.0751  0.1242 -0.0235
 1508W        W16639  10.890  14.124   0.331  0.0439  0.1706  0.1036
 1509W        W16640  10.282   3.003   5.382 -0.0731  0.0055  0.0259
 1510W        W16641   3.915   8.354  16.446 -0.0284  0.1408 -0.0581
 1511W        W16642  14.945  10.815  16.261 -0.0404 -0.0244  0.0288
 1512W        W16643  17.597   3.805   3.892 -0.3283 -0.0010 -0.0083
 1513W        W16644  10.339   6.923   5.153 -0.0272  0.0223  0.0464
 1514W        W16645   7.186   0.891   4.880 -0.3990 -0.1299 -0.1889
 1515W        W16646   2.376   0.523  12.250  0.1679  0.0244 -0.1080
 1516W        W16647   7.955   6.157  12.239 -0.1269  0.0728 -0.2089
 1517W        W16648  13.708  11.150   4.175  0.3737 -0.0873  0.0035
 1518W        W16649   5.796  14.500   4.184  0.1520 -0.3202 -0.1033
 1519W        W16650   7.068  13.750  16.437  0.3777  0.0207 -0.0244
 1520W        W16651   7.459   4.903  12.278 -0.3884 -0.0984  0.3167
 1521W        W16652  15.817   4.307   1.261  0.2338  0.1900  0.0220
 1522W        W16653  17.671  13.304   3.988  0.0311  0.1800 -0.3223
 1523W        W16654   1.955   3.902   5.021  0.1217 -0.1830  0.0362
 1524W        W16655   0.053  16.880  15.517 -0.2192 -0.0395  0.0329
 1525W        W16656   5.539  12.028   1.250  0.1281  0.0664  0.0068
 1526W        W16657  17.013  14.738   2.525 -0.1359 -0.0741 -0.1584
 1527W        W16658   6.287   2.241  14.675 -0.2572  0.1093  0.1867
 1528W        W16659  17.970   0.441   2.165 -0.1134 -0.0458 -0.1843
 1529W        W16660   7.936  10.510  14.720  0.1325  0.0985 -0.0132
 1530W        W16661  12.219   3.596  13.597 -0.1817 -0.0097  0.2037
 1531W        W16662  14.083  15.284  15.809 -0.0077  0.0692  0.0103
 1532W        W16663   1.591  16.999   5.735  0.2046 -0.1368  0.1014
 1533W        W16664  13.502   4.936   0.886 -0.0452 -0.0562 -0.4722
 1534W        W16665  14.406   3.758   4.314 -0.0208  0.2302  0.0623
 1535W        W16666   5.357   5.079  14.667  0.0721  0.0487  0.1469
 1536W        W16667   2.624  15.253   1.143  0.5052 -0.0185  0.3354
 1537W        W16668  13.935   8.898   0.014  0.3255 -0.0910  0.0549
 1538W        W16669   8.273   4.541  11.798  0.2890  0.1994  0.1326
 1539W        W16670   6.438   8.225  12.184  0.0874  0.0857  0.2976
 1540W        W16671  13.190   8.192   1.865 -0.2549 -0.0608 -0.0325
 1541W        W16672   8.681   6.244  13.936  0.1500  0.0873  0.4143
 1542W        W16673  17.390  17.426   3.596  0.1328 -0.0294  0.3041
 1543W        W16674   3.644   8.743   2.033 -0.0200  0.2182  0.0268
 1544W        W16675   3.375   3.667  11.079  0.0624  0.1484  0.2978
 1545W        W16676   1.428   5.255  12.406 -0.0291 -0.3236 -0.0270
 1546W        W16677  15.302   4.951   4.107 -0.1038 -0.0978 -0.0295
 1547W        W16678   8.998   0.804  12.396  0.1005 -0.1024  0.1646
 1548W        W16679   1.840   0.418  15.609  0.1172  0.0518 -0.0915
 1549W        W16680   5.443   7.943   0.347  0.1449  0.0856  0.4334
 1550W        W16681   7.841   8.499   3.572 -0.0687  0.0630 -0.1215
 1551W        W16682   4.606   3.227  15.432  0.0100 -0.2005 -0.1191
 1552W        W16683   2.713   1.291   5.954 -0.5603 -0.1173 -0.2967
 1553W        W16684  13.791  12.625   5.585 -0.1670  0.1017  0.1924
 1554W        W16685  12.094  13.615   5.163  0.0297  0.0835  0.1794
 1555W        W16686  15.138   4.015  12.449  0.0522 -0.2460  0.0884
 1556W        W16687   2.160  15.101   4.834  0.0847 -0.3685  0.0866
 1557W        W16688   8.226   9.544  13.467  0.1252  0.0268 -0.1426
 1558W        W16689  13.038   2.937  11.560  0.0090  0.4375  0.0789
 1559W        W16690   5.042   9.858   5.895  0.1257 -0.0597  0.0668
 1560W        W16691   8.793  14.969  13.612 -0.2958  0.0417 -0.6341
 1561W        W16692  13.210   3.175  15.753 -0.0367  0.0359  0.0908
 1562W        W16693   8.765  13.505   5.298 -0.0486  0.0674 -0.2808
 1563W        W16694  13.797   4.423   1.580 -0.0727 -0.1049  0.0045
 1564W        W16695  15.068  15.317   3.806 -0.3214  0.1809  0.5106
 1565W        W16696  13.334  15.786  14.943  0.1156  0.0932 -0.0757
 1566W        W16697  17.105  10.375  13.718  0.1164  0.2165 -0.1299
 1567W        W16698   0.730  11.842   0.902  0.1107  0.1652  0.1328
 1568W        W16699   8.887   7.004   4.030 -0.0321 -0.1962  0.1271
 1569W        W16700  13.070   1.586  15.162  0.1545  0.2006 -0.2335
 1570W        W16701  12.790   2.499   1.951 -0.1430 -0.2967  0.0517
 1571W        W16702  14.148  12.864  12.000 -0.1830 -0.1434  0.1022
 1572W        W16703   6.920   6.537  15.055 -0.0576  0.4156 -0.3368
 1573W        W16704   2.181   4.165   4.199  0.2786 -0.0601  0.2004
 1574W        W16705  10.135  11.215   1.037 -0.0496  0.1121  0.5012
 1575W        W16706  17.889   0.975  11.300  0.0843 -0.0110  0.0118
 1576W        W16707   3.112   9.929   1.540 -0.2612  0.1744 -0.0424
 1577W        W16708   7.317  14.218  11.170  0.2200  0.1010 -0.2031
 1578W        W16709   9.170   6.289   3.485  0.0839  0.0189 -0.2955
 1579W        W16710   3.153  17.078  12.092  0.1017  0.1033 -0.0770
 1580W        W16711  14.243   0.108   5.797  0.2664 -0.0850  0.0389
 1581W        W16712   2.973  11.006  11.064 -0.1295  0.0163 -0.1611
 1582W        W16713   5.899  13.762   0.593  0.0309 -0.0597  0.1225
 1583W        W16714  12.161  13.747  13.553  0.1814  0.2751  0.0148
 1584W        W16715   4.491  17.462   1.179 -0.2317  0.2314 -0.2271
 1585W        W16716   6.196   3.980  10.912 -0.1588  0.0057 -0.0465
 1586W        W16717  13.878   4.135   4.892  0.0040 -0.0429 -0.2666
 1587W        W16718  14.830   8.186  12.387 -0.0550  0.0868  0.0503
 1588W        W16719  14.527   1.956  16.067  0.3019  0.1061 -0.0843
 1589W        W16720  13.726   8.542  15.968 -0.0940 -0.0656 -0.0452
 1590W        W16721  14.632   2.604  13.299  0.0469 -0.1466 -0.1878
 1591W        W16722   3.882   1.472   2.275  0.1967  0.0827 -0.0930
 1592W        W16723   5.153   3.058  12.304  0.0792  0.0438  0.1493
 1593W        W16724   6.522  16.101   6.506 -0.1534  0.0654 -0.1643
 1594W        W16725  12.282   8.964  11.985  0.3486 -0.0667  0.1360
 1595W        W16726  12.094  13.902  16.271 -0.1791  0.3063  0.1619
 1596W        W16727  13.274   6.065  12.583  0.1662 -0.1066  0.2661
 1597W        W16728   9.772  15.360  14.185  0.2045 -0.0727  0.0294
 1598W        W16729   3.408   0.285   2.923 -0.0421 -0.1239 -0.2886
 1599W        W16730   1.029  11.582  13.849  0.2932 -0.2295  0.2368
 1600W        W16731   3.188  10.959   0.127 -0.0248 -0.0577  0.0138
 1601W        W16732  13.781  15.086   1.164  0.2807 -0.0627 -0.0738
 1602W        W16733   0.840  15.418  16.040  0.1326 -0.1843 -0.1958
 1603W        W16734  17.996   1.544   0.265 -0.0990 -0.0815  0.0140
 1604W        W16735   0.477  10.456  10.812 -0.5026  0.1345 -0.0235
 1605W        W16736   4.356  14.393   5.488 -0.2301  0.2165  0.1367
 1606W        W16737  10.934   0.264  13.539 -0.0288  0.0069  0.2859
 1607W        W16738   7.526  15.316  14.191  0.0417  0.0640  0.3375
 1608W        W16739   3.745   0.576   0.472 -0.1827 -0.1388 -0.0852
 1609W        W16740   7.428   2.675  13.283 -0.1306  0.1956 -0.0199
 1610W        W16741  13.252  15.310  14.036 -0.4099 -0.2572 -0.0775
 1611W        W16742  14.246   5.338   4.339  0.0896 -0.2808 -0.1327
 1612W        W16743   4.108   7.598   0.499  0.0547 -0.1058 -0.1057
 1613W        W16744  16.567   5.821  15.790 -0.3792 -0.0913 -0.1622
 1614W        W16745  15.264  15.019  12.773 -0.5116 -0.0132 -0.0714
 1615W        W16746  15.523  14.280  15.404 -0.0034  0.2732 -0.1618
 1616W        W16747  10.035   4.122  15.302 -0.1240 -0.1946  0.2784
 1617W        W16748  12.234  13.260   4.208 -0.0416 -0.1209 -0.3629
 1618W        W16749  16.185   2.032   1.302 -0.1304  0.3706 -0.1209
 1619W        W16750  15.169  16.468  15.703 -0.0851 -0.4388  0.0300
 1620W        W16751   4.770  13.223  13.375 -0.1167  0.4646 -0.0495
 1621W        W16752   5.002  12.488  11.752  0.0744 -0.0586  0.1878
 1622W        W16753   9.205  14.207  12.043  0.2652  0.1958  0.1136
 1623W        W16754   2.108  13.052   0.096 -0.1144  0.1062 -0.1566
 1624W        W16755   9.825   5.198   2.665  0.2668 -0.0274  0.1848
 1625W        W16756   6.745  12.974  14.573  0.1758  0.1005  0.0456
 1626W        W16757  16.317   7.102   0.114 -0.1016  0.0894  0.0078
 1627W        W16758  10.957  13.278   1.100  0.0626  0.1775  0.0266
 1628W        W16759   9.227  13.649  12.877  0.1051 -0.0130 -0.0847
 1629W        W16760   2.535   8.155   2.014  0.2947  0.3252  0.0294
 1630W        W16761   0.371   1.325   5.502 -0.0673 -0.2797  0.0644
 1631W        W16762   2.120   8.787  13.339  0.0453  0.1855  0.2188
 1632W        W16763   8.614   4.308  13.086 -0.1029  0.0067  0.3372
 1633W        W16764   9.754   3.266   1.608  0.1896 -0.1114  0.0266
 1634W        W16765   5.076  14.343  14.311  0.0643  0.2428  0.2466
 1635W        W16766  17.224  12.657  16.063 -0.1292  0.1717  0.0307
 1636W        W16767  12.300   5.043   0.140  0.0624  0.1402  0.1527
 1637W        W16768   7.359  15.964  11.561 -0.3230  0.0303  0.0318
 1638W        W16769   4.875  16.273  15.046  0.1691 -0.1353  0.3085
 1639W        W16770   2.124   4.352  12.707  0.0219 -0.4232 -0.1054
 1640W        W16771   8.505   6.561  13.486  0.0832  0.1294 -0.0208
 1641W        W16772   6.965   2.367   4.380 -0.0321  0.0424  0.0935
 1642W        W16773   8.331   0.313   1.109  0.1206  0.3374  0.3348
 1643W        W16774   3.046   3.790  14.661 -0.0007  0.0532  0.0406
 1644W        W16775   9.847  11.493  11.656 -0.1902  0.0922 -0.0700
 1645W        W16776  16.800   3.820   5.803  0.3584 -0.0260 -0.1657
 1646W        W16777   4.032   1.801  14.897  0.0570 -0.0856 -0.0854
 1647W        W16778   1.385   5.035  14.696  0.3354  0.1275  0.0571
 1648W        W16779  13.384  15.686  11.155  0.0481 -0.2932  0.0625
 1649W        W16780   9.325  13.818   1.922 -0.0380 -0.0574  0.0595
 1650W        W16781   8.582   8.703   1.910 -0.1047  0.4144 -0.0078
 1651W        W16782   5.587  10.172  13.234 -0.0340 -0.0765  0.1623
 1652W        W16783  12.757   3.171   1.952  0.3738 -0.1901  0.1859
 1653W        W16784   0.041   8.056  16.010 -0.0978  0.1111  0.0213
 1654W        W16785   3.694   2.860   4.647 -0.2753  0.0836 -0.2920
 1655W        W16786  14.382   8.500  10.710 -0.3401 -0.0252  0.1004
 1656W        W16787  14.366  17.821  12.402 -0.4096  0.2801 -0.0648
 1657W        W16788   6.304   6.119   4.151  0.0677 -0.0305  0.4581
 1658W        W16789   6.027   7.087  13.533 -0.3390 -0.2876 -0.0300
 1659W        W16790  16.234   2.181   0.825 -0.0411  0.1493  0.3371
 1660W        W16791  15.807  13.581   0.774 -0.0658 -0.0351  0.0417
 1661W        W16792   4.282  14.169  14.856 -0.3561 -0.0874 -0.0775
 1662W        W16793  17.989  16.172  11.677 -0.0984  0.2519 -0.5090
 1663W        W16794   7.127   1.455  11.037  0.0618  0.4394 -0.0020
 1664W        W16795  12.967   7.166  14.988 -0.2654 -0.1819 -0.2785
 1665W        W16796   6.238   8.995  13.568 -0.1739 -0.2743 -0.0813
 1666W        W16797   9.775   7.463  15.230 -0.1152 -0.0279 -0.1171
 1667W        W16798   3.806   9.249  10.951  0.0275  0.1097  0.2440
 1668W        W16799   0.070  13.614  15.309 -0.1961  0.1677 -0.2106
 1669W        W16800  14.031   6.084   5.513  0.3316  0.0651  0.0388
 1670W        W16801   2.827  13.022  12.397 -0.0766 -0.0754 -0.2527
 1671W        W16802  13.513   7.766   1.799 -0.2041 -0.3437 -0.1116
 1672W        W16803  14.019   4.346  11.804 -0.4750 -0.0002 -0.1789
 1673W        W16804   8.760  17.699   2.755  0.0340 -0.1060 -0.0752
 1674W        W16805   2.074  15.909   3.191 -0.3666 -0.1539  0.1449
 1675W        W16806   1.434   3.728   1.606 -0.3167  0.2549  0.0184
 1676W        W16807   7.518  10.253  13.490  0.0090 -0.0097  0.0659
 1677W        W16808  15.621   2.121   4.937  0.1692 -0.2853  0.2089
 1678W        W16809  14.217   2.910   0.741  0.3092 -0.0697  0.5155
 1679W        W16810   9.667  16.215   1.427 -0.0170 -0.1677 -0.2135
 1680W        W16811  14.594  12.049   1.338  0.2585 -0.2056  0.0626
 1681W        W16812   1.179   4.537   1.901  0.1295 -0.0267 -0.0653
 1682W        W16813  16.570  14.644   4.867  0.1692  0.1489 -0.0416
 1683W        W16814  17.876   1.886  11.241  0.0754  0.0162 -0.2815
 1684W        W16815   1.818  15.134   0.887  0.0109 -0.1780  0.0395
 1685W        W16816   1.634   6.832  11.349  0.0725 -0.1840  0.0911
 1686W        W16817  11.085  14.258   3.630 -0.0035  0.3434  0.1101
 1687W        W16818  13.348  10.116   3.032  0.1219 -0.1075  0.0020
 1688W        W16819  14.211   2.975  15.909 -0.1275  0.1212  0.0373
 1689W        W16820  13.443   0.080  14.270  0.0930 -0.2134  0.1257
 1690W        W16821   5.108   9.052  14.573 -0.0866  0.4475 -0.1419
 1691W        W16822   7.381   9.298   2.968 -0.2904 -0.0814  0.0939
 1692W        W16823  14.481   4.551   3.795  0.2107  0.0773 -0.2753
 1693W        W16824  13.162   3.458   5.014  0.0448  0.1930  0.2985
 1694W        W16825   6.827   9.789  11.936  0.1997  0.1420  0.0582
 1695W        W16826   8.721   7.973  12.303  0.0535 -0.0480 -0.1912
 1696W        W16827   2.991  15.067   0.140  0.0643 -0.0875 -0.0329
 1697W        W16828   7.265   4.152  13.097  0.1995 -0.3211 -0.2196
 1698W        W16829  15.699  16.990  10.598  0.1730  0.2736 -0.1606
 1699W        W16830   9.696   1.398  13.468 -0.0730 -0.0612 -0.1354
 1700W        W16831   8.501   0.565  12.221 -0.2442 -0.1632  0.0862
 1701W        W16832   7.577   8.313   0.744 -0.1220  0.0240 -0.0091
 1702W        W16833   4.645  14.922  10.639 -0.1717 -0.0542  0.0059
 1703W        W16834   8.726  10.156  13.317  0.0670  0.2441  0.0736
 1704W        W16835  15.731  17.459   1.434 -0.3691 -0.2582  0.1009
 1705W        W16836  10.907   7.912   9.838 -0.2884  0.0600 -0.3530
 1706W        W16837  15.568  14.885  13.549  0.2988 -0.0135 -0.3353
 1707W        W16838   3.594   8.757  13.130 -0.1520  0.1349  0.0218
 1708W        W16839   3.520  12.768   2.445 -0.0828  0.0582  0.0825
 1709W        W16840   5.934  13.926  15.871 -0.1696  0.3557 -0.0893
 1710W        W16841   4.318   7.911   5.119  0.0700  0.1875 -0.0891
 1711W        W16842  17.860   1.766   4.752  0.0408 -0.0188  0.0721
 1712W        W16843   9.179   1.598  13.303  0.2163  0.3283  0.0542
 1713W        W16844   4.855   9.106   2.791  0.2165  0.0172 -0.0667
 1714W        W16845   6.975   0.295  14.013  0.2056 -0.2447 -0.1691
 1715W        W16846   0.768   8.718  10.969 -0.1727  0.2048 -0.1238
 1716W        W16847  14.177   1.823  11.919 -0.0192  0.3078  0.2766
 1717W        W16848  16.218   3.268  13.555 -0.3497  0.0564  0.1447
 1718W        W16849   4.429   5.309   1.315 -0.0110 -0.1312  0.1505
 1719W        W16850  10.593  16.551  16.372 -0.3777  0.2384  0.1820
 1720W        W16851  17.732  15.669   3.887  0.1234  0.3126  0.4614
 1721W        W16852  12.046  17.841   4.210  0.1806  0.0998  0.0339
 1722W        W16853  16.745   8.790   3.164  0.0017  0.4039 -0.0546
 1723W        W16854   1.915   2.277   5.440  0.0811 -0.1450 -0.0028
 1724W        W16855   8.823   5.360   0.030  0.1639 -0.3324  0.0028
 1725W        W16856   8.664  11.275   4.354  0.2400  0.1131  0.1687
 1726W        W16857  13.453   4.393  15.217  0.2772  0.0453 -0.0224
 1727W        W16858   4.870  16.088   3.298 -0.0371 -0.0079  0.0228
 1728W        W16859  18.094   3.231   5.006 -0.2906 -0.1362  0.1114
 1729W        W16860  10.798  17.724  15.971  0.1851  0.0569 -0.1555
 1730W        W16861  10.472   0.388  13.706 -0.1752 -0.0790  0.4262
 1731W        W16862   1.875   6.739  16.273 -0.1934 -0.0198  0.2354
 1732W        W16863   7.424  10.687   1.878  0.0258 -0.0903  0.0207
 1733W        W16864   8.905  17.358   5.818  0.2507  0.2350  0.0334
 1734W        W16865   4.058  12.757   0.461 -0.0885  0.1792 -0.1744
 1735W        W16866  14.514   6.163  15.695  0.1078  0.0816 -0.0041
 1736W        W16867  10.203   2.847  11.392 -0.1195 -0.0226 -0.3465
 1737W        W16868  10.342  14.797   3.491  0.0874  0.0559 -0.0283
 1738W        W16869   1.979   8.370  16.360 -0.3100  0.0262 -0.2967
 1739W        W16870   6.046   4.953  12.084  0.0093 -0.1436 -0.0727
 1740W        W16871   1.937   2.484   2.794 -0.1381 -0.0538 -0.2454
 1741W        W16872  14.556  14.222  13.481 -0.0928 -0.2138  0.1498
 1742W        W16873  13.226   0.513  15.042 -0.1846 -0.3012 -0.0393
 1743W        W16874   4.222   9.638  15.456  0.0287  0.2192 -0.1155
 1744W        W16875  12.923   3.700  11.353  0.2383 -0.1277  0.1735
 1745W        W16876   0.461  10.543   4.337  0.3039  0.1471 -0.1303
 1746W        W16877   4.772  18.074   5.204  0.0494 -0.0301  0.0046
 1747W        W16878   4.183   3.264   2.188 -0.0149  0.1732 -0.0075
 1748W        W16879  13.403   6.323  13.328  0.2059 -0.1200 -0.1265
 1749W        W16880  13.598   7.377  13.490 -0.1872  0.2933  0.0521
 1750W        W16881   4.856   2.244   2.840  0.2253  0.1049 -0.0233
 1751W        W16882   3.174  10.032   3.781 -0.2261  0.0601 -0.1228
 1752W        W16883  15.204  10.870  13.287 -0.1120  0.3409  0.1979
 1753W        W16884  14.211   9.651  13.210 -0.0929 -0.1074  0.0167
 1754W        W16885   4.982   7.833   0.247  0.1103  0.0087 -0.0831
 1755W        W16886   5.861   3.736  13.116  0.0141 -0.0518  0.1408
 1756W        W16887   8.590   8.341  16.194  0.1152  0.0378 -0.0596
 1757W        W16888   5.340  16.568  11.510  0.0339  0.4001 -0.2568
 1758W        W16889   4.659   2.389   3.343 -0.1411  0.0853  0.1223
 1759W        W16890   1.656   5.508   2.195 -0.1237  0.2541  0.0178
 1760W        W16891   1.099   0.603  12.617 -0.1120  0.0414 -0.0290
 1761W        W16892  13.950  14.060   1.978  0.1056 -0.1397  0.3542
 1762W        W16893   7.358  14.201  10.344  0.2267 -0.1147  0.0092
 1763W        W16894   4.685   9.502  14.136 -0.2664 -0.0735  0.0125
 1764W        W16895   5.869  10.426   4.353  0.6835  0.3111  0.4253
 1765W        W16896  12.179   4.409  12.067 -0.1865 -0.1345 -0.1984
 1766W        W16897  11.460   2.628  12.549 -0.3274 -0.0329  0.2161
 1767W        W16898   2.939  12.408  16.113 -0.0521  0.2517  0.1420
 1768W        W16899   3.902  14.269   5.976 -0.2824 -0.0568  0.0504
 1769W        W16900   5.073   0.955  13.511 -0.0311  0.1683  0.1360
 1770W        W16901  14.681   5.758  12.223 -0.1401  0.1868 -0.3169
 1771W        W16902  13.677   4.945  11.206  0.0216  0.1190  0.1752
 1772W        W16903  16.112   3.146  15.895 -0.2012  0.2427 -0.0473
 1773W        W16904   4.458  14.314   5.971 -0.1145  0.0310  0.0485
 1774W        W16905  11.448   5.662  14.916  0.0874 -0.0464  0.3539
 1775W        W16906   1.957   3.503  12.420  0.2273  0.0271  0.1422
 1776W        W16907   1.588  13.355   1.152  0.2706  0.0986  0.1129
 1777W        W16908   0.138  11.702  11.816  0.2000 -0.1363 -0.1709
 1778W        W16909   2.708   6.747   1.487 -0.2043  0.1380 -0.1270
 1779W        W16910  15.903  13.291  10.875  0.2923  0.0024 -0.1151
 1780W        W16911  10.141   5.570  10.977  0.0499 -0.1095 -0.1338
 1781W        W16912  10.495  10.935   0.653 -0.3152  0.0421  0.0237
 1782W        W16913   3.313   4.691  10.042 -0.3732  0.0888 -0.0358
 1783W        W16914   4.967  13.475  16.428  0.1254 -0.1404  0.1399
 1784W        W16915   0.789  13.284  12.596 -0.3216  0.2116  0.1199
 1785W        W16916  13.657  16.416   3.420 -0.0717 -0.1833  0.1370
 1786W        W16917   8.197   1.993  13.980  0.1027 -0.0055  0.1626
 1787W        W16918   1.833   0.578  12.138 -0.1020  0.0625  0.0954
 1788W        W16919  15.903   1.082  10.714  0.1710 -0.0268 -0.0283
 1789W        W16920   1.426   7.127   3.955 -0.1174  0.1085 -0.0562
 1790W        W16921   1.849  10.042   3.088 -0.0861  0.2628 -0.1616
 1791W        W16922   0.343   6.056  14.905 -0.4464  0.2337  0.2542
 1792W        W16923  17.668   6.859   2.554 -0.1533 -0.0286  0.0456
 1793W        W16924  11.971   1.181  16.057 -0.0832  0.0138  0.0969
 1794W        W16925   9.951   5.062   0.759 -0.2387  0.0845 -0.4143
 1795W        W16926   0.302  14.820   5.420  0.1038 -0.1235 -0.0887
 1796W        W16927  17.963   6.144  14.104  0.0338  0.0036  0.1875
 1797W        W16928   7.257   8.407   1.284  0.1242  0.2911 -0.2904
 1798W        W16929  11.763   1.845  12.099  0.0337 -0.2382 -0.0071
 1799W        W16930   1.530   7.557   3.206 -0.0445  0.0834  0.0371
 1800W        W16931  12.072   2.457   0.248  0.0228  0.1389 -0.4603
 1801W        W16932   6.010  17.500   2.864  0.0193  0.0544  0.1545
 1802W        W16933   5.613   2.928  10.429  0.1931 -0.0252  0.1807
 1803W        W16934  11.062  10.663  12.509 -0.1900 -0.1067  0.0424
 1804W        W16935  14.753   8.570  14.625 -0.1308  0.0021  0.0243
 1805W        W16936  11.102  14.490  13.732  0.0164 -0.0242  0.1786
 1806W        W16937   0.249  10.162   4.608 -0.3279  0.3911 -0.0525
 1807W        W16938   2.666   8.645   2.194  0.2106  0.1230  0.0801
 1808W        W16939   3.217  16.862   1.058 -0.0458 -0.0387 -0.0281
 1809W        W16940  12.263   1.317   4.186 -0.1775  0.3524 -0.1267
 1810W        W16941   9.818  16.310   2.597 -0.0840  0.0454  0.2578
 1811W        W16942   6.776  17.721   4.074  0.0516 -0.0088  0.1748
 1812W        W16943   2.156   7.368   1.957 -0.0311 -0.0865  0.2109
 1813W        W16944   3.223   6.673  12.415 -0.0957 -0.0035 -0.2670
 1814W        W16945   5.790  15.116   5.028  0.0901 -0.1136  0.1073
 1815W        W16946  16.716  14.778  13.017 -0.2939 -0.1784 -0.1697
 1816W        W16947  17.381   5.481  16.063  0.0564  0.0128  0.1988
 1817W        W16948   8.062   4.815  14.943  0.1646 -0.1230 -0.1819
 1818W        W16949   8.624   8.386   2.342 -0.2436 -0.0906 -0.0928
 1819W        W16950   8.040   1.870   1.997 -0.3789  0.0704  0.1507
 1820W        W16951   7.377  17.992   1.004 -0.1743  0.1248  0.1849
 1821W        W16952  13.891   1.383   1.270  0.3807  0.2843  0.3977
 1822W        W16953  15.634   6.007  13.729  0.2110  0.5010  0.0590
 1823W        W16954   9.410   6.628   0.006 -0.2750  0.0295  0.0381
 1824W        W16955  14.173  17.043  15.599 -0.2226 -0.3920  0.2195
 1825W        W16956   9.834   3.625   4.134 -0.0114 -0.1661  0.0776
 1826W        W16957   4.213   2.405   3.118  0.0064  0.2706  0.0232
 1827W        W16958   3.132   5.094   0.323 -0.0482 -0.1096 -0.1912
 1828W        W16959  17.170   5.078  11.291 -0.0149 -0.1801 -0.1025
 1829W        W16960  15.895   8.414  12.028  0.0104 -0.0553  0.3170
 1830W        W16961  11.278   7.906   2.588  0.1525 -0.1145 -0.2892
 1831W        W16962   3.060  10.982  16.125  0.1370  0.0543  0.2782
 1832W        W16963  10.589  14.032  14.514 -0.1284  0.0912 -0.0093
 1833W        W16964  10.403   5.131   1.054  0.1404  0.2865 -0.1247
 1834W        W16965  10.247   0.294   4.567  0.0229  0.2250 -0.4160
 1835W        W16966   7.575   2.231  14.845  0.0948 -0.1377 -0.0953
 1836W        W16967   7.030  14.528   1.985  0.2346 -0.2849  0.0027
 1837W        W16968   1.526  11.410  12.058  0.3755  0.1449 -0.1976
 1838W        W16969  14.988   4.349  13.813 -0.1649  0.2118  0.0564
 1839W        W16970  15.034  10.700  13.983  0.1591 -0.1885  0.3063
 1840W        W16971  14.956  13.094   1.939 -0.1266 -0.0068 -0.1103
 1841W        W16972   3.073  15.280  11.495 -0.3245 -0.3226 -0.0360
 1842W        W16973   7.045  15.434   1.024 -0.3232  0.1122  0.0734
 1843W        W16974  14.965  12.773   4.481  0.0437 -0.2946 -0.1894
 1844W        W16975   3.278   2.303  11.092  0.0693  0.1041 -0.1658
 1845W        W16976  17.938   2.118   6.561 -0.2548  0.2078 -0.5480
 1846W        W16977  10.463   0.378  15.578  0.1133  0.3293  0.1928
 1847W        W16978   6.893  12.473  12.306 -0.1443  0.0820 -0.3262
 1848W        W16979  11.601  13.970  14.703  0.2997  0.0671 -0.0750
 1849W        W16980   0.984   4.918  15.627  0.4901 -0.1830 -0.1046
 1850W        W16981   0.355  10.187   2.652 -0.1947  0.2321  0.3307
 1851W        W16982   0.326   0.714   5.856  0.2294 -0.0270 -0.0395
 1852W        W16983   9.106  12.445  13.668 -0.1887  0.1639  0.0070
 1853W        W16984  17.620   8.394   1.700 -0.1589  0.0231 -0.1768
 1854W        W16985   9.277   4.537   5.053  0.0856 -0.1673 -0.3848
 1855W        W16986   5.933  12.898   5.024  0.0184 -0.1915 -0.0907
 1856W        W16987  11.801   6.216   1.953  0.2246 -0.1075  0.1526
 1857W        W16988  14.121  15.463  14.509 -0.3724 -0.1947  0.4523
 1858W        W16989  13.981  17.416   4.138  0.1040  0.0114 -0.1557
 1859W        W16990   7.170  11.603   1.601  0.2129 -0.0805 -0.0429
 1860W        W16991   4.107  13.537   2.064  0.2280  0.0547  0.0911
 1861W        W16992   5.170   4.215  13.602 -0.0747  0.3477  0.1743
 1862W        W16993  14.365   6.798  13.922 -0.1798 -0.1391 -0.0919
 1863W        W16994  15.173   2.842  12.534  0.0022 -0.3581  0.1310
 1864W        W16995  15.045   2.022  12.872 -0.0222  0.2047  0.2513
 1865W        W16996   2.742   1.590  13.144 -0.1890  0.0170 -0.1234
 1866W        W16997   1.340   1.385  15.652 -0.1513 -0.0741  0.0497
 1867W        W16998  10.443   4.054   4.458  0.2149  0.0044 -0.2482
 1868W        W16999   2.464   7.797  13.391 -0.1842  0.0381  0.0409
 1869W        W17000   8.117  10.739  16.025 -0.0822 -0.0940 -0.1277
 1870W        W17001   0.158   7.967   0.584  0.1302 -0.1588  0.2663
 1871W        W17002  15.413  15.391   4.868 -0.2406 -0.0296 -0.1451
 1872W        W17003  15.238  11.154  14.221 -0.1151 -0.1029  0.1024
 1873W        W17004   6.341   0.029   4.261 -0.1385 -0.0592  0.1277
 1874W        W17005   2.888   0.323   2.690 -0.0891 -0.0161 -0.0214
 1875W        W17006   8.604   0.453   4.787  0.0893  0.0763 -0.3375
 1876W        W17007   4.675  10.079   1.560 -0.1319  0.0603 -0.1439
 1877W        W17008   4.702   8.525   3.048  0.2614  0.0619  0.0265
 1878W        W17009   3.268  12.242  13.001  0.2489  0.3926  0.1055
 1879W        W17010   3.859   6.118   3.893  0.3551  0.1010  0.2914
 1880W        W17011   3.145   8.442  14.983 -0.0321 -0.0662 -0.1744
 1881W        W17012  15.511  14.732  12.386 -0.2215 -0.4903  0.3264
 1882W        W17013  17.205  18.084  14.814  0.0569  0.0622 -0.0589
 1883W        W17014  16.943  16.358  16.314 -0.0066  0.2919 -0.0228
 1884W        W17015  17.191   5.461   3.292 -0.0902  0.1378  0.0060
 1885W        W17016   0.146  16.375  14.291 -0.1518  0.5706  0.0541
 1886W        W17017  17.567   4.911  12.475 -0.4408  0.1007 -0.0006
 1887W        W17018   3.108  11.266  13.928 -0.1389  0.0122  0.0876
 1888W        W17019  14.610   5.400  15.025 -0.1566  0.3962  0.0915
 1889W        W17020  13.228  12.976  13.282  0.1139 -0.1562  0.2525
 1890W        W17021   9.243   8.836   4.503 -0.1043  0.0051  0.0333
 1891W        W17022  13.760   2.598   0.808  0.2413  0.0161 -0.0281
 1892W        W17023   3.604  15.561  14.196 -0.0084 -0.2272 -0.1167
 1893W        W17024   6.508   1.858   2.269 -0.0872 -0.0931  0.2504
 1894W        W17025  17.589   4.251  11.913  0.1101  0.1522 -0.0543
 1895W        W17026   8.600  10.720   1.622 -0.0806 -0.0004 -0.2669
 1896W        W17027   5.055   7.210  12.713  0.2945  0.1370  0.1434
 1897W        W17028   8.610  12.508  14.695  0.4861 -0.0492  0.0036
 1898W        W17029   3.552   8.551   1.527 -0.4388  0.0837  0.0468
 1899W        W17030   8.507  16.671   2.740 -0.2099  0.0661  0.1350
 1900W        W17031  11.619  10.905   5.149  0.1633  0.0489 -0.3266
 1901W        W17032   9.624   7.625  12.778 -0.2952  0.0313 -0.0911
 1902W        W17033  16.892  11.152   1.979  0.3490 -0.0515 -0.0414
 1903W        W17034   5.755   6.150  10.053  0.0927  0.0356  0.0314
 1904W        W17035  16.429  15.026  10.727  0.0479 -0.0005  0.0912
 1905W        W17036   4.962  14.717  12.865 -0.4723 -0.0740 -0.1095
 1906W        W17037   3.038   8.186   6.114 -0.0134 -0.1071 -0.1181
 1907W        W17038  12.051  10.524   3.004 -0.0379  0.2018 -0.0423
 1908W        W17039  11.481  11.662  13.830  0.0743  0.0144  0.0203
 1909W        W17040   0.500  12.580   0.591  0.0665 -0.1171  0.0820
 1910W        W17041   6.178  14.568   3.326  0.1968  0.1952 -0.0872
 1911W        W17042  15.613   3.882   1.153  0.2425  0.1112  0.0044
 1912W        W17043   0.740   0.871   1.629  0.1871  0.0790 -0.0335
 1913W        W17044  12.786   4.400   3.989  0.1566 -0.1728 -0.2453
 1914W        W17045   3.000   8.539   0.744  0.0680  0.1223  0.1047
 1915W        W17046   1.133  10.511   0.840 -0.0125 -0.1008 -0.1301
 1916W        W17047  13.594   7.778   5.292  0.1754  0.0869  0.1107
 1917W        W17048   8.469  15.178   2.601 -0.0714 -0.1233  0.0887
 1918W        W17049   4.138  12.578  15.802 -0.0624  0.2072  0.0475
 1919W        W17050   4.616  12.217  15.873 -0.0256 -0.0977 -0.0437
 1920W        W17051  15.139   1.460  13.607  0.2215  0.1720 -0.0063
 1921W        W17052  17.612   9.451   3.849  0.1250  0.2755 -0.1092
 1922W        W17053  10.797   4.560  11.537 -0.1484  0.0543 -0.2009
 1923W        W17054  16.227  13.408   0.882 -0.2007 -0.1931  0.1793
 1924W        W17055  14.852  16.762  15.065 -0.0220 -0.0671  0.3894
 1925W        W17056   2.424   4.937   2.713  0.0442 -0.0868 -0.0760
 1926W        W17057  18.039   2.352  15.308 -0.2993  0.2129  0.1140
 1927W        W17058   0.075  16.408  11.324 -0.2533 -0.0056  0.2011
 1928W        W17059  15.910   0.220   4.498  0.0153 -0.0973 -0.1068
 1929W        W17060   0.905  16.431   3.576 -0.3856 -0.1156  0.1265
 1930W        W17061   9.042  10.211  11.427  0.3188 -0.1775  0.1736
 1931W        W17062   6.868  10.662   1.293  0.1534 -0.0319  0.0290
 1932W        W17063  16.953   7.799   5.670 -0.0982  0.1165  0.1080
 1933W        W17064  17.778  10.786   1.454  0.0168 -0.3946 -0.1344
 1934W        W17065   9.624   9.022   3.996 -0.2532  0.0529 -0.0190
 1935W        W17066  12.253   6.667   5.397  0.4258 -0.0823  0.0114
 1936W        W17067  14.870   3.230  16.373  0.1182  0.0764  0.1689
 1937W        W17068   8.522  11.557  11.502  0.1738  0.1379 -0.0227
 1938W        W17069   7.234   2.170   3.417  0.0774 -0.1403  0.2009
 1939W        W17070   6.443  11.932  12.797 -0.0349  0.0077 -0.2116
 1940W        W17071   2.767   1.593  16.052  0.5930 -0.1997 -0.0395
 1941W        W17072  14.700   7.076  12.424  0.2255 -0.0763 -0.0668
 1942W        W17073  12.135   9.427  16.196 -0.0360 -0.2407  0.2724
 1943W        W17074  11.085  15.339  12.813 -0.4593 -0.0299 -0.0722
 1944W        W17075   4.485   8.512  11.352 -0.0888 -0.1922 -0.1523
 1945W        W17076  10.319   3.939  13.878 -0.1457  0.0638 -0.2203
 1946W        W17077  13.712   3.264   0.066  0.1461  0.1520 -0.0957
 1947W        W17078   4.454  12.931  15.916 -0.0427  0.0553  0.1681
 1948W        W17079   8.017  15.885  13.608 -0.2707  0.1404 -0.1311
 1949W        W17080   1.898  18.083  12.964 -0.0297  0.2013 -0.1300
 1950W        W17081   0.908  11.893   3.002 -0.0050 -0.2140  0.3708
 1951W        W17082   2.997   2.454  13.555  0.1665  0.0900 -0.1613
 1952W        W17083  16.973   8.161   2.005 -0.0537 -0.1824  0.1250
 1953W        W17084   2.517   3.143  14.841 -0.0034  0.1913  0.2747
 1954W        W17085   5.965  14.231   0.813 -0.0434  0.0931 -0.0902
 1955W        W17086  16.451  15.548   3.388 -0.2606 -0.0565  0.0527
 1956W        W17087   4.170  10.506  11.859 -0.1411  0.1264 -0.0216
 1957W        W17088  12.145  10.711   1.060 -0.1081 -0.1344  0.1090
 1958W        W17089  16.368   2.797   5.905  0.0905  0.0632  0.1063
 1959W        W17090  10.841   7.596  12.086 -0.2143  0.3702 -0.0817
 1960W        W17091  10.256  14.129   4.746 -0.1518  0.0225 -0.2222
 1961W        W17092  17.760   1.224   1.104 -0.0639 -0.2261  0.0943
 1962W        W17093  10.811   7.637   4.601 -0.2935 -0.1990  0.0575
 1963W        W17094  16.788   3.155   3.265 -0.0915  0.0779 -0.0218
 1964W        W17095  11.064   1.812   3.619 -0.2292 -0.5462  0.0359
 1965W        W17096  13.047  15.683   5.605  0.1529  0.2366  0.0099
 1966W        W17097   7.687   1.758  14.920 -0.0784 -0.0653 -0.1178
 1967W        W17098  10.355  17.645   5.023  0.1652  0.1560 -0.3057
 1968W        W17099   8.594   5.669   0.843 -0.3777 -0.0189  0.2034
 1969W        W17100   4.731  11.051  14.260  0.1493  0.1225  0.2224
 1970W        W17101   2.353  12.218  11.225  0.0107 -0.3407  0.3041
 1971W        W17102  17.540   4.572  13.700 -0.2345 -0.1524  0.2174
 1972W        W17103  17.943   2.786   1.014 -0.0959  0.2554  0.0565
 1973W        W17104   7.992  16.369  11.089 -0.1312 -0.0343 -0.1429
 1974W        W17105  11.431   0.645  12.684  0.0455  0.3821 -0.0324
 1975W        W17106  16.568   8.013  13.215 -0.0564 -0.0487 -0.0498
 1976W        W17107   9.790  10.243   1.170 -0.2692  0.2163 -0.1045
 1977W        W17108   1.891   8.796   4.289 -0.1434 -0.2693  0.0485
 1978W        W17109   6.366  12.244   2.303 -0.1579  0.0978 -0.1047
 1979W        W17110  12.031   4.854   5.487 -0.2099 -0.1231  0.0340
 1980W        W17111  12.094   4.761   0.519 -0.1391  0.4196 -0.2166
 1981W        W17112   3.042  16.088   5.709  0.1954  0.0615  0.1017
 1982W        W17113   4.949   4.094   3.565 -0.2581 -0.1795  0.0793
 1983W        W17114  15.776   3.977  16.391 -0.0801  0.2107  0.0150
 1984W        W17115  15.756   1.438   2.416  0.0740  0.1400  0.4547
 1985W        W17116  16.182   9.553   1.686 -0.0792 -0.0304 -0.1050
 1986W        W17117  12.639  17.313  11.760 -0.0336 -0.1090 -0.2165
 1987W        W17118   5.396   4.860  11.195  0.1001  0.1955 -0.2087
 1988W        W17119  10.156   2.130  13.543  0.2084  0.0335  0.2382
 1989W        W17120   4.223   3.878  14.976 -0.2391 -0.1418 -0.2139
 1990W        W17121   9.994   7.931  15.196 -0.0304 -0.1696  0.0746
 1991W        W17122  13.955  11.119   2.461 -0.1934 -0.1167  0.2763
 1992W        W17123  11.805  11.278   2.334 -0.2391 -0.0650  0.1258
 1993W        W17124  14.668  11.864   5.634  0.1511  0.0132 -0.0002
 1994W        W17125   8.632   8.849   0.341  0.2652 -0.0455 -0.0120
 1995W        W17126  12.127   3.427   0.890  0.0689 -0.0444  0.2109
 1996W        W17127   1.100   8.708   1.849 -0.0921  0.1172  0.1121
 1997W        W17128   4.112  16.240  12.828 -0.2861 -0.1230 -0.0783
 1998W        W17129   0.427   2.081  13.879  0.2046  0.0634  0.2243
 1999W        W17130   5.410   5.073   2.103 -0.2581  0.2488 -0.3761
 2000W        W17131  14.441  14.900   5.522 -0.1194 -0.1381 -0.0884
 2001W        W17132  17.134   2.628   3.382  0.1447  0.3382 -0.0289
 2002W        W17133  12.121   0.389  11.505 -0.1083  0.0646  0.2151
 2003W        W17134   7.997   4.366  12.685 -0.0881  0.3830 -0.1199
 2004W        W17135  14.542   3.764   2.061  0.0018 -0.1614  0.0007
 2005W        W17136   5.494  14.113  11.021  0.0510 -0.2318 -0.3466
 2006W        W17137   9.302   7.632  13.675 -0.0111 -0.1383 -0.1304
 2007W        W17138   5.043  10.031  10.089 -0.1411  0.0273  0.1403
 2008W        W17139  15.750   3.074  14.317 -0.1581 -0.2528  0.0171
 2009W        W17140  15.107   1.088   2.620 -0.0581 -0.1197 -0.2056
 2010W        W17141   6.661  16.683  16.283  0.1897 -0.0529  0.0120
 2011W        W17142   3.681   7.403   0.273 -0.0464 -0.0989 -0.0398
 2012W        W17143   6.603  11.519  12.596 -0.1687  0.1715  0.0001
 2013W        W17144   4.197  10.782  14.776 -0.0635 -0.0640  0.0029
 2014W        W17145   3.560  14.044   1.987 -0.2343  0.1444 -0.0671
 2015W        W17146  18.086   3.664  13.607 -0.2353 -0.1478  0.0190
 2016W        W17147   4.095   9.527  13.192 -0.0216 -0.0347  0.1627
 2017W        W17148   3.686  14.458   3.361 -0.1695  0.1058  0.1042
 2018W        W17149   9.749   7.398   1.425 -0.1886 -0.0941  0.0575
 2019W        W17150  16.524  10.260   5.692  0.1410 -0.1783 -0.0643
 2020W        W17151  13.843  16.192   0.402  0.1392  0.0587  0.0278
 2021W        W17152  12.541  14.340  12.761 -0.2137  0.2082  0.1052
 2022W        W17153   9.242  16.242  12.411 -0.1750  0.2311  0.0027
 2023W        W17154   1.307  13.712   5.409 -0.1089  0.2532 -0.1136
 2024W        W17155  11.191  13.612  11.782 -0.0407  0.3170  0.0171
 2025W        W17156   7.870  15.795   2.646 -0.1165 -0.1844 -0.2865
 2026W        W17157  13.020  18.088   5.446 -0.1839 -0.1389 -0.0109
 2027W        W17158   5.210  16.297  12.364  0.0337 -0.0171  0.0078
 2028W        W17159   0.297   5.447  15.459  0.0412 -0.0863  0.1547
 2029W        W17160   2.791  14.623   9.879  0.0460 -0.1870  0.1181
 2030W        W17161   1.497   7.299   2.674  0.2075 -0.0648  0.3733
 2031W        W17162   2.047  14.931  11.066  0.0745 -0.0222 -0.1162
 2032W        W17163   9.107   9.759   3.511 -0.0708 -0.0312 -0.0722
 2033W        W17164  13.002  10.829  15.315  0.0956  0.2755  0.5264
 2034W        W17165   7.844  17.671  14.213  0.1894 -0.4909 -0.0343
 2035W        W17166   1.612   2.948  10.618 -0.0632  0.0041 -0.1257
 2036W        W17167   3.919   7.784  15.202 -0.0404  0.0800 -0.0458
 2037W        W17168  14.396   3.508  13.729  0.0621  0.0423  0.0735
 2038W        W17169   4.162   8.441   1.051 -0.0704  0.0766  0.0984
 2039W        W17170  17.077  15.324  15.325  0.2402  0.1226  0.2434
 2040W        W17171   1.033   0.230  12.933 -0.4620  0.0356 -0.0242
 2041W        W17172  13.169   8.980   3.964  0.0893 -0.0081 -0.1537
 2042W        W17173   2.837  17.849  14.095 -0.0311 -0.0128  0.1629
 2043W        W17174  15.134   5.747  13.857  0.2445 -0.1296 -0.1328
 2044W        W17175   0.508  15.724   5.514 -0.2161  0.0853  0.1314
 2045W        W17176  16.343  17.522  15.076  0.0329  0.1390  0.1474
 2046W        W17177   5.501  17.938  16.437 -0.0983 -0.3729  0.3631
 2047W        W17178  13.520  11.076   5.659 -0.0335  0.3298  0.1533
 2048W        W17179  15.661  13.404   0.261  0.0450  0.0448 -0.1795
 2049W        W17180  12.513   9.409   2.338 -0.1788 -0.0716  0.1032
 2050W        W17181   7.422   4.113  15.470 -0.2621 -0.0665  0.2297
 2051W        W17182   1.640  16.962   1.713 -0.3458  0.0626 -0.0129
 2052W        W17183  16.513  16.178   0.632  0.1323 -0.0675  0.0296
 2053W        W17184   8.083  14.010   6.377  0.0990  0.0978  0.2451
 2054W        W17185  14.224   9.674   4.584  0.1943  0.1215 -0.0251
 2055W        W17186   8.887  17.079   4.130  0.2114  0.0132 -0.1226
 2056W        W17187  16.136   3.029  12.439  0.0434  0.1970  0.0913
 2057W        W17188   3.648  11.052   4.977 -0.1638 -0.0623 -0.0281
 2058W        W17189   2.460  12.517  14.025  0.0955 -0.0709  0.1239
 2059W        W17190   8.365  17.873  12.279 -0.1856  0.0162 -0.0782
 2060W        W17191  15.506  14.976   2.801  0.3329 -0.1496 -0.1091
 2061W        W17192  15.014   3.144  10.776  0.0953 -0.2445  0.0777
 2062W        W17193   6.636   6.142  12.083 -0.2337 -0.2194 -0.1809
 2063W        W17194   8.308   7.096  12.412 -0.0474 -0.2185  0.0899
 2064W        W17195  10.237   3.904   1.764  0.1174 -0.1940  0.1062
 2065W        W17196   1.243  10.947  11.916  0.1949 -0.0003 -0.0459
 2066W        W17197   9.737   0.905   3.823 -0.0875 -0.1626  0.0496
 2067W        W17198   3.564  11.785  11.580  0.1140 -0.0128  0.1056
 2068W        W17199   3.056  16.110   3.012  0.1022 -0.3878  0.1046
 2069W        W17200   3.687  12.372  13.412 -0.2665  0.0055 -0.0440
 2070W        W17201  11.134   3.828   0.746  0.1117 -0.1166  0.0371
 2071W        W17202   6.291  15.337  12.243 -0.2223 -0.0705 -0.0609
 2072W        W17203  12.745   4.629  14.741 -0.2042  0.1018 -0.0691
 2073W        W17204   6.894  12.257  15.960  0.0833  0.2729  0.0009
 2074W        W17205  17.938  12.513   1.387 -0.2534 -0.0635  0.2008
 2075W        W17206   6.148   8.670   0.531  0.0282 -0.2639 -0.1657
 2076W        W17207   0.525   9.214   4.909 -0.2994  0.0871 -0.2379
 2077W        W17208   8.271   9.055   1.946  0.0868 -0.0403 -0.3392
 2078W        W17209  11.099   9.185  14.362  0.1008  0.0134 -0.0282
 2079W        W17210   3.823  15.308   4.788 -0.0714 -0.1640 -0.0842
 2080W        W17211   2.513   5.547  10.832 -0.0891 -0.0390  0.0434
 2081W        W17212  13.701   3.738   5.111 -0.3968 -0.0684 -0.0364
 2082W        W17213   1.302  13.230  15.044  0.1237  0.4214 -0.1108
 2083W        W17214   3.998   7.023  10.620 -0.1602  0.0710  0.0775
 2084W        W17215   6.938  11.521   0.287  0.2042 -0.0105  0.1637
 2085W        W17216  13.500  11.908   0.453 -0.2951 -0.2116 -0.1504
 2086W        W17217   3.054   2.014  16.117 -0.1121 -0.1381 -0.0562
 2087W        W17218  17.387   3.688  12.595 -0.0253 -0.2140 -0.0161
 2088W        W17219   5.439  17.677   1.090  0.0391 -0.1612  0.1362
 2089W        W17220   7.643   8.893   2.687 -0.1466 -0.0741 -0.0712
 2090W        W17221  12.099  10.389   1.476  0.0083  0.0139  0.1309
 2091W        W17222   2.422  15.960  15.539  0.1758 -0.0689 -0.1608
 2092W        W17223   4.634   1.032  11.550 -0.1316  0.0936  0.0475
 2093W        W17224  16.681  14.020  13.688 -0.0299 -0.0714  0.0042
 2094W        W17225   9.205   5.380  11.713 -0.2541 -0.0580  0.0180
 2095W        W17226   2.435   1.196   2.736  0.2274 -0.0125 -0.0516
 2096W        W17227  16.136   3.662  16.189  0.0308  0.1099 -0.0910
 2097W        W17228   0.693   9.950   3.255  0.3922 -0.0026 -0.0175
 2098W        W17229   1.186   0.724   2.871 -0.1139 -0.2122 -0.1347
 2099W        W17230   3.166   5.118  11.486  0.0941  0.0300 -0.0155
 2100W        W17231  14.331  14.370  13.991 -0.2918 -0.1565 -0.1691
 2101W        W17232  10.796   8.195   0.201 -0.0416  0.0504  0.0858
 2102W        W17233  14.386   9.281   1.150 -0.2893  0.1687 -0.1019
 2103W        W17234   7.508   0.552  13.166  0.0733 -0.0158  0.0497
 2104W        W17235   1.054  15.019  16.227 -0.0820 -0.0640 -0.0937
 2105W        W17236   3.450   1.755   3.185  0.0400 -0.1639 -0.1030
 2106W        W17237  14.925   2.179  15.804 -0.0821  0.0069 -0.0471
 2107W        W17238  17.716   6.513  14.897  0.1530 -0.0965 -0.1454
 2108W        W17239   2.176   9.624   1.281 -0.0988  0.0399 -0.0451
 2109W        W17240   8.496  18.061  13.847  0.0306  0.1781  0.2547
 2110W        W17241  15.365  12.234   1.532 -0.1274  0.1191 -0.2516
 2111W        W17242  10.465   6.422  13.240  0.1907 -0.0169 -0.1640
 2112W        W17243  13.248   0.652   2.736 -0.1950  0.0636 -0.0381
 2113W        W17244   3.828   4.001  11.306 -0.0007  0.0563 -0.1035
 2114W        W17245  10.980  17.526   4.214 -0.3153 -0.0190  0.2905
 2115W        W17246   4.088   4.508  14.200 -0.2333  0.2821 -0.3572
 2116W        W17247  17.854   4.215   4.767 -0.2432  0.0831  0.0145
 2117W        W17248   1.188  13.582  11.446  0.0942 -0.0563 -0.2084
 2118W        W17249  12.366   3.121   1.331  0.2863 -0.0848  0.4183
 2119W        W17250  10.929  11.958   3.005  0.0941 -0.1071 -0.0060
 2120W        W17251   2.729  11.121   0.081  0.1174 -0.0942 -0.1149
 2121W        W17252  11.847  16.315  15.130 -0.0807 -0.2103  0.0271
 2122W        W17253   1.272  13.515  13.713 -0.1139  0.0664 -0.1597
 2123W        W17254  14.526  15.551  11.794  0.0090  0.2309  0.2188
 2124W        W17255   0.985   2.010   5.570  0.1020  0.2116  0.3028
 2125W        W17256  13.522  15.757   0.525  0.0543 -0.1620  0.1684
 2126W        W17257   7.687   4.626   1.559 -0.2036 -0.3418  0.0363
 2127W        W17258   6.067  12.424   4.029  0.3172  0.2863  0.0707
 2128W        W17259   6.784  10.947  16.021 -0.0256  0.1270  0.1001
 2129W        W17260  16.542  17.014  13.962  0.2559  0.3395  0.1313
 2130W        W17261  14.133   7.643   3.539  0.2607  0.1181  0.1802
 2131W        W17262  12.165  11.372  16.322  0.0247 -0.0330 -0.1001
 2132W        W17263  14.536   8.957  10.722  0.0503 -0.0818  0.0576
 2133W        W17264   4.166  15.910  15.836 -0.0761  0.0536  0.0111
 2134W        W17265  12.846   7.513  11.686 -0.0389 -0.0782 -0.0189
 2135W        W17266   6.527  14.297  16.026  0.2429 -0.3297  0.0528
 2136W        W17267   7.290   1.066   4.355 -0.0061 -0.2490 -0.0875
 2137W        W17268  16.637  11.346   3.621  0.0011  0.1033  0.0717
 2138W        W17269  10.891  11.388   3.804 -0.0485 -0.1483 -0.2265
 2139W        W17270   5.884  10.704  11.096  0.1360  0.3088  0.1604
 2140W        W17271  10.221  16.180  15.783  0.1049  0.2886  0.0664
 2141W        W17272  17.574   6.391   0.307 -0.0867 -0.1006  0.0711
 2142W        W17273  12.929  12.813  12.858  0.0691 -0.1146  0.0749
 2143W        W17274   3.493  11.311   0.394 -0.2607 -0.0783 -0.0408
 2144W        W17275   7.966  11.207   3.151  0.0679 -0.1211  0.1945
 2145W        W17276   9.712  12.301  16.162  0.1355  0.0487 -0.0614
 2146W        W17277   1.771   7.089  13.176 -0.1973 -0.0105 -0.2096
 2147W        W17278   6.415   0.359  15.881 -0.0523  0.1068  0.1364
 2148W        W17279  12.993  12.826   1.696  0.1361  0.4232  0.0968
 2149W        W17280   8.214  13.754   3.667  0.1211 -0.2322  0.1570
 2150W        W17281  15.354   5.762  15.836 -0.0204 -0.2112  0.3725
 2151W        W17282   2.506   9.623   2.165 -0.3818 -0.0630 -0.0468
 2152W        W17283   7.735   0.551  13.691  0.0036  0.1423  0.4991
 2153W        W17284   8.794  12.765  16.129  0.0586 -0.2197  0.2836
 2154W        W17285   4.494   5.214   4.248  0.1630 -0.2219  0.0241
 2155W        W17286   6.464   6.174   5.511 -0.1103  0.2301  0.1630
 2156W        W17287  12.583   6.820   0.833 -0.2915 -0.0629  0.0202
 2157W        W17288   0.594   1.193  12.841  0.0492  0.0581 -0.1587
 2158W        W17289   2.504  16.618   0.435 -0.0971 -0.2175 -0.2930
 2159W        W17290  12.043   6.644   2.974  0.1338 -0.1267  0.0402
 2160W        W17291  18.091   1.645  13.847 -0.0796  0.3193  0.2885
 2161W        W17292   7.995   6.830  14.326 -0.0889 -0.1601 -0.1232
 2162W        W17293  17.084  10.116  13.136  0.0257 -0.2689 -0.3164
 2163W        W17294  13.615  17.707  13.811 -0.0726  0.1048 -0.0588
 2164W        W17295   7.562   0.132   2.870 -0.0182  0.0148 -0.2475
 2165W        W17296  13.172   9.982  12.430 -0.2273  0.0852  0.1098
 2166W        W17297   3.281  13.263  12.623  0.2084 -0.3270  0.0547
 2167W        W17298  10.208  12.559   4.065  0.0917  0.0397  0.1999
 2168W        W17299  14.034   8.370   0.845 -0.2469  0.1171 -0.2557
 2169W        W17300  11.178   8.594  14.949  0.0922 -0.2589  0.0620
 2170W        W17301   4.214  11.683  12.606 -0.1821 -0.2017  0.1703
 2171W        W17302   0.094   6.817  15.069  0.1292 -0.2481  0.0288
 2172W        W17303   5.879  13.102   1.572 -0.0667 -0.0892 -0.1392
 2173W        W17304  12.477   3.317  15.209 -0.3698 -0.2794  0.3164
 2174W        W17305   8.906   0.076  16.401 -0.3156 -0.0753  0.2739
 2175W        W17306   0.865  16.245   4.514  0.3273 -0.1482  0.0638
 2176W        W17307   6.313   4.126   1.405 -0.6393  0.0871  0.1959
 2177W        W17308   1.755  11.513   3.948  0.1251  0.0975 -0.1775
 2178W        W17309   5.228   3.524  11.453  0.0054  0.3943  0.0216
 2179W        W17310   3.712   3.944   0.583  0.0945 -0.1921  0.1649
 2180W        W17311   4.352   0.264   4.013 -0.1913 -0.0455  0.0844
 2181W        W17312   8.447  14.763   3.497 -0.0620  0.0215  0.1643
 2182W        W17313  10.305   8.748   3.136 -0.0802 -0.2634 -0.2621
 2183W        W17314   6.595  15.423  16.379  0.3643  0.1454 -0.3144
 2184W        W17315  13.355  15.722  13.150 -0.0934 -0.0532 -0.0464
 2185W        W17316  15.863  17.214  14.494  0.1248 -0.1183  0.2325
 2186W        W17317   0.991  11.601   5.448  0.3176 -0.2945  0.2602
 2187W        W17318   9.721   0.307  11.447 -0.1085  0.0888  0.2562
 2188W        W17319  16.347   5.449   2.815  0.0565 -0.1155 -0.1030
 2189W        W17320   2.185  12.177  15.327  0.0254 -0.0345 -0.0052
 2190W        W17321   2.647   9.230  13.296 -0.3837  0.1172 -0.0421
 2191W        W17322   7.333   6.099  15.906  0.1708 -0.1355 -0.0383
 2192W        W17323  13.421   1.497  11.721 -0.2732 -0.0421  0.3769
 2193W        W17324   6.574   1.851  12.920 -0.2247 -0.2113  0.0188
 2194W        W17325   0.922  11.697  13.127 -0.0685 -0.2012 -0.0495
 2195W        W17326  10.954   3.345  13.695 -0.1582  0.0718  0.3901
 2196W        W17327  15.472  15.298  12.425  0.4611  0.2131  0.6541
 2197W        W17328   5.759   5.929   5.039 -0.0143 -0.2771 -0.2067
 2198W        W17329   6.281   9.673   4.536 -0.0289 -0.0159  0.1177
 2199W        W17330   6.500  12.161   4.026 -0.1000  0.3134 -0.4603
 2200W        W17331   3.287   2.448   4.393 -0.1905  0.1374  0.1605
 2201W        W17332   1.454   0.518   5.553 -0.0155  0.0428  0.0013
 2202W        W17333  11.117   8.233  12.873  0.1516  0.0736  0.4506
 2203W        W17334  10.089  17.010  14.737  0.0592  0.1749  0.0385
 2204W        W17335   9.020   5.119  15.086 -0.0630 -0.2617  0.1897
 2205W        W17336   2.331   3.642  10.483  0.0125 -0.2510  0.1892
 2206W        W17337  11.382  15.200   2.363  0.2074 -0.2441  0.1270
 2207W        W17338  13.161   1.090   1.219  0.0468  0.1807 -0.0712
 2208W        W17339   0.869  13.401  14.030  0.0384  0.2210  0.0745
 2209W        W17340   8.093  12.620   1.658 -0.4041  0.0493  0.2365
 2210W        W17341   0.533   1.516   4.035 -0.1144  0.0084  0.1281
 2211W        W17342  16.996   8.626   1.054 -0.0040 -0.1651 -0.1549
 2212W        W17343  10.281  10.915  14.584  0.1020 -0.0192 -0.1412
 2213W        W17344   1.861   8.877  16.129 -0.0720  0.0034  0.0526
 2214W        W17345  15.347  17.358   0.178 -0.1035 -0.0046 -0.1721
 2215W        W17346  12.254   5.697  14.361 -0.1139 -0.0092  0.0170
 2216W        W17347  12.018  13.925   2.823 -0.3209 -0.0912 -0.1289
 2217W        W17348   9.912  10.267  16.151 -0.1271 -0.1111 -0.0539
 2218W        W17349  10.814   9.980   0.117 -0.2587 -0.0357 -0.0618
 2219W        W17350  10.845   0.742   1.071 -0.0582 -0.0167  0.2425
 2220W        W17351   5.505   3.825  13.552 -0.0836 -0.0960  0.1061
 2221W        W17352   5.079   2.828   6.608 -0.3181  0.2618 -0.0887
 2222W        W17353  12.672   8.833   0.481  0.0399  0.1213  0.2491
 2223W        W17354   5.059   9.775  10.480 -0.2623 -0.1058  0.0214
 2224W        W17355  13.637  13.587   5.230 -0.4146  0.0895 -0.3698
 2225W        W17356   2.718  16.752   4.723 -0.3025  0.1051 -0.1613
 2226W        W17357  11.533   9.151   4.363  0.0305 -0.1145  0.1282
 2227W        W17358  17.642  15.180   5.278  0.2189  0.0921  0.0504
 2228W        W17359  17.497  11.769  16.048  0.1004 -0.4577  0.0800
 2229W        W17360   4.507   6.950   2.587  0.1070  0.2753  0.2102
 2230W        W17361  10.326   5.158   2.908 -0.0827 -0.0759  0.1330
 2231W        W17362   9.944   9.976   3.861  0.2167 -0.0644 -0.1635
 2232W        W17363   8.204   9.617  15.325 -0.1824 -0.1091  0.0219
 2233W        W17364  12.983  16.182   1.104  0.2177  0.1050 -0.0019
 2234W        W17365   5.539  17.510  10.584 -0.0973  0.3650  0.1777
 2235W        W17366  14.647   0.468   3.364 -0.0419 -0.2749 -0.1928
 2236W        W17367  13.902   5.054   4.576  0.0873  0.1640  0.0687
 2237W        W17368   4.439  17.940   6.031  0.0762 -0.0363 -0.0648
 2238W        W17369  11.556  14.325  13.630 -0.2039 -0.0315  0.2857
 2239W        W17370   2.311   7.939  15.456 -0.0274  0.0491  0.1440
 2240W        W17371  13.809  14.074  14.905 -0.1050  0.3807 -0.0985
 2241W        W17372  11.279   4.267   0.459 -0.0452 -0.3676 -0.3347
 2242W        W17373   8.081   0.851  16.053 -0.1966  0.2222 -0.1152
 2243W        W17374  16.033  10.318   5.012 -0.2484 -0.2868 -0.2136
 2244W        W17375  16.870   7.277   4.588  0.0721  0.2957 -0.0814
 2245W        W17376  12.499  11.947  14.334  0.1095  0.0963 -0.5676
 2246W        W17377  12.988  14.562   0.721  0.4421  0.3723  0.1564
 2247W        W17378   8.662   6.844  10.050 -0.1054 -0.3276 -0.0096
 2248W        W17379   3.252  16.633   2.145  0.0358 -0.0183 -0.0705
 2249W        W17380   2.013  16.128  13.168 -0.0482  0.3969  0.2713
 2250W        W17381   6.401   4.003   4.655 -0.1225  0.3786  0.1001
 2251W        W17382   7.390   4.086   0.619  0.1498 -0.0694  0.3784
 2252W        W17383   2.367  13.744  13.930 -0.0514 -0.1266 -0.4257
 2253W        W17384   8.852  11.862  12.373 -0.0859  0.0027 -0.0581
 2254W        W17385   3.088   9.018  12.417 -0.0790  0.1328 -0.1114
 2255W        W17386   2.964  16.614   0.722  0.0240 -0.0523 -0.0697
 2256W        W17387   7.402  12.420  14.208  0.1380  0.4584 -0.2445
 2257W        W17388  14.741  11.025   2.558 -0.0783  0.0192 -0.3043
 2258W        W17389   4.149   6.655   2.369  0.0851 -0.2522 -0.0787
 2259W        W17390   9.495   3.117  12.237  0.0654 -0.0702 -0.1067
 2260W        W17391   8.460  11.666  14.153 -0.0733  0.0222 -0.0727
 2261W        W17392   4.609   0.763   4.801 -0.0720 -0.2777  0.1691
 2262W        W17393  11.230  13.077   3.166  0.1800  0.1523  0.3684
 2263W        W17394  11.626   1.714   4.646 -0.2417 -0.2195  0.1760
 2264W        W17395  11.563   7.469   2.913  0.0448  0.0603 -0.1575
 2265W        W17396   0.021   5.807   0.621 -0.1121 -0.2817  0.1451
 2266W        W17397  15.471   2.767   5.493  0.0729 -0.3673 -0.2433
 2267W        W17398  12.095  16.309   0.287 -0.4569 -0.2567  0.0315
 2268W        W17399  10.457  14.685   0.908 -0.2169 -0.0544 -0.2708
 2269W        W17400   5.533  11.404   4.256 -0.1981  0.0232  0.1773
 2270W        W17401  14.570  13.300  12.058  0.1760 -0.1842 -0.1729
 2271W        W17402  15.911   3.368   1.299  0.3894  0.3059  0.2243
 2272W        W17403  16.838   0.690  13.817 -0.1491 -0.2236  0.0439
 2273W        W17404  15.679   9.186   0.593 -0.1696 -0.1023  0.1750
 2274W        W17405   3.327  12.175   4.492 -0.4246  0.2105  0.0171
 2275W        W17406   6.052  13.710   3.123  0.0116 -0.2329  0.0452
 2276W        W17407   4.900  10.716  12.231  0.1956  0.2377 -0.0877
 2277W        W17408   7.334   4.750   4.502  0.2554 -0.3257 -0.0832
 2278W        W17409   5.883   3.797   3.566  0.1738 -0.1572 -0.0778
 2279W        W17410  14.250  14.637  13.140 -0.0323  0.2010  0.2347
 2280W        W17411   1.228   8.719  16.092  0.1244 -0.3465 -0.2927
 2281W        W17412   2.508   3.577  12.461  0.1718  0.2347  0.0628
 2282W        W17413  10.434  15.503   2.304 -0.0109  0.4088 -0.0852
 2283W        W17414   1.794  11.767  12.864 -0.1500 -0.0833 -0.3119
 2284W        W17415   1.572   9.141  11.363  0.4404 -0.0728  0.0812
 2285W        W17416  14.047  16.589   0.085 -0.2463 -0.3435  0.1451
 2286W        W17417   3.264   0.233   4.363  0.1968 -0.4634  0.1615
 2287W        W17418  10.646  15.432  15.239 -0.0460 -0.4297 -0.2380
 2288W        W17419  14.131  10.584  16.065 -0.0867  0.2211  0.0807
 2289W        W17420   7.122   4.494   3.423  0.0275  0.0596 -0.3140
 2290W        W17421  15.943   6.879   4.961  0.2281  0.1428 -0.1746
 2291W        W17422  14.389  17.983  14.357  0.1415  0.1297 -0.0326
 2292W        W17423   0.532   9.034   5.550  0.0449 -0.0872 -0.2254
 2293W        W17424   2.981   0.198   3.462  0.2060 -0.1554 -0.1315
 2294W        W17425   3.530  11.559  13.866 -0.2215  0.3087 -0.1621
 2295W        W17426  16.206   9.302  15.134 -0.4835  0.0646  0.0274
 2296W        W17427   8.317  17.956   3.945  0.0739 -0.1499  0.0018
 2297W        W17428  10.752   4.951   3.340 -0.0775 -0.3418  0.2535
 2298W        W17429   5.938  10.931   3.197 -0.2457 -0.0499  0.0339
 2299W        W17430  18.010  11.602   5.392  0.2443 -0.0975 -0.1968
 2300W        W17431   8.900  14.182  14.188  0.0197 -0.0533 -0.2186
 2301W        W17432  11.817   1.074   3.921  0.1873 -0.1145  0.0183
 2302W        W17433  14.698  13.642  11.362 -0.2928  0.0220  0.2971
 2303W        W17434  17.886   9.617  15.201  0.0871 -0.1976  0.0948
 2304W        W17435  11.391  10.442  13.831  0.0445  0.0324  0.0192
 2305W        W17436  11.541   8.210   1.592  0.0891  0.0106  0.0816
 2306W        W17437   0.972   5.929  13.571 -0.0705 -0.0161 -0.1179
 2307W        W17438  16.162   5.492  12.887 -0.1344 -0.0628 -0.0748
 2308W        W17439   2.948   6.334   1.195  0.0020  0.2795  0.0695
 2309W        W17440   9.505  14.770   1.527 -0.1647  0.5093 -0.1560
 2310W        W17441   6.328   9.111   5.094 -0.1572 -0.0712 -0.2796
 2311W        W17442  17.360   2.763   0.850  0.0662  0.2472 -0.0752
 2312W        W17443   3.865  10.881   3.770  0.0641  0.4414  0.0244
 2313W        W17444   8.619   5.116  14.681 -0.4603  0.0652  0.0912
 2314W        W17445   6.588   7.769  15.570  0.1247 -0.3279  0.1159
 2315W        W17446   1.395   1.566  13.243 -0.0280  0.0283 -0.2184
 2316W        W17447   4.461  11.259  13.860 -0.0630  0.0544  0.0074
 2317W        W17448   6.944  11.860  12.657 -0.0772  0.1332  0.1797
 2318W        W17449  12.604   4.735  13.071  0.1374 -0.0589  0.0400
 2319W        W17450  17.007  15.536  11.188  0.0965 -0.4027 -0.1940
 2320W        W17451   3.352  14.210   1.313 -0.0593  0.0388 -0.0305
 2321W        W17452  15.865  17.095   1.137  0.2065  0.0400 -0.0483
 2322W        W17453   8.213   4.418   2.218 -0.2642 -0.2256 -0.1639
 2323W        W17454   0.939   1.128  13.822 -0.0451 -0.2929  0.1155
 2324W        W17455   1.799   5.808   5.102  0.2917  0.4267  0.1303
 2325W        W17456   1.795  13.747  13.193  0.0128  0.0347  0.0084
 2326W        W17457   3.374  11.247  10.896 -0.0734 -0.1763 -0.0979
 2327W        W17458   2.224  15.120   3.736 -0.1750  0.0826 -0.0206
 2328W        W17459   0.588  14.457   0.998 -0.0973  0.3869 -0.0879
 2329W        W17460   3.384  10.778  15.675 -0.0775  0.2367 -0.3191
 2330W        W17461   8.875  14.530   3.999 -0.3891  0.1713 -0.0428
 2331W        W17462   5.760   9.948  12.810  0.0555 -0.0606 -0.0117
 2332W        W17463   9.219   8.143  15.672  0.1117  0.0658  0.1311
 2333W        W17464  16.755   6.983  16.301  0.1421  0.1642 -0.1283
 2334W        W17465   7.759   5.645  12.990  0.1651  0.0476  0.1875
 2335W        W17466   3.390  17.686  12.577  0.0213 -0.2439  0.1910
 2336W        W17467  15.767  10.488   2.741 -0.0202  0.0350  0.0245
 2337W        W17468  17.796  17.231   0.388 -0.2686 -0.0225  0.0185
 2338W        W17469   3.810   3.494  15.746 -0.3133 -0.1540  0.0766
 2339W        W17470  10.369  17.706   2.834  0.0155  0.0184  0.0873
 2340W        W17471   5.271  15.783  14.210 -0.1114 -0.1183  0.0993
 2341W        W17472   6.483  11.384  11.626  0.1737 -0.0931 -0.1453
 2342W        W17473   9.049   7.677  15.522 -0.0394 -0.0799 -0.0718
 2343W        W17474  12.503  14.076   5.737  0.0519  0.4088  0.0316
 2344W        W17475   9.779  14.255  10.383 -0.2622  0.1922  0.1452
 2345W        W17476  10.924   9.570   0.369  0.0886 -0.0013 -0.0371
 2346W        W17477  14.763  15.964   1.055 -0.2934 -0.2179 -0.0576
 2347W        W17478   2.627   3.766   3.089 -0.2495  0.0045 -0.2216
 2348W        W17479   8.379   7.058  13.348 -0.0582 -0.2144  0.2496
 2349W        W17480  13.447  18.020   1.940  0.3240  0.3834  0.2097
 2350W        W17481   1.930  15.544  13.441 -0.2090  0.1932 -0.1148
 2351W        W17482  16.792  13.943   3.092 -0.1817 -0.2281 -0.0917
 2352W        W17483   1.445  17.869   2.263  0.0091 -0.3726  0.0585
 2353W        W17484   7.544  12.136   0.497  0.0099  0.2228 -0.1143
 2354W        W17485  17.664  10.576   2.998 -0.0578  0.3088  0.0663
 2355W        W17486  12.393  10.791  14.741  0.1202 -0.1973  0.1293
 2356W        W17487  14.762   4.062  15.634 -0.2104  0.1268  0.0987
 2357W        W17488  17.937  10.228  11.350  0.2251  0.3496 -0.0471
 2358W        W17489   8.335  11.221   1.458 -0.0280  0.0831  0.1392
 2359W        W17490  15.510   3.656   1.741  0.2413 -0.1425 -0.1178
 2360W        W17491  12.569  13.410   6.466 -0.1015  0.2226  0.0622
 2361W        W17492  13.935  13.594  13.977 -0.3409  0.0875 -0.0190
 2362W        W17493   7.399   1.819  12.063  0.2429 -0.0145 -0.0373
 2363W        W17494   2.091   7.147   5.036  0.2831  0.0809  0.1537
 2364W        W17495  13.962  17.477   2.726  0.2447  0.1007 -0.2970
 2365W        W17496   3.395   2.726  13.255 -0.0228 -0.2889  0.3009
 2366W        W17497   8.782  14.391  16.282  0.1328  0.1427 -0.4773
 2367W        W17498   5.710   8.268   2.837  0.1639  0.0987  0.0402
 2368W        W17499  16.915  11.000   4.060  0.0509  0.3147 -0.0290
 2369W        W17500  13.260   4.301  15.770 -0.0879 -0.0884 -0.0004
 2370W        W17501  15.252  16.029  16.408 -0.1340  0.0347 -0.0104
 2371W        W17502  15.549   9.535  12.693  0.1143 -0.0027 -0.0487
 2372W        W17503  11.484   8.779  14.494  0.1552 -0.0111 -0.2462
 2373W        W17504  11.964  12.502   3.755 -0.1976  0.0853  0.2197
 2374W        W17505   7.537   8.461  12.260 -0.0359  0.0117  0.1262
 2375W        W17506   4.021   0.152  16.099 -0.1770  0.0479 -0.1388
 2376W        W17507  16.732   1.528  12.839  0.0426  0.2634  0.2022
 2377W        W17508   5.338   7.930  14.403  0.1153  0.1432  0.0799
 2378W        W17509  16.833  15.157   4.209  0.3323  0.0929  0.2663
 2379W        W17510   2.403   8.604   4.479  0.1469 -0.1560  0.3463
 2380W        W17511   3.544  11.271   3.743 -0.1039 -0.1193 -0.1277
 2381W        W17512  15.906   8.051   5.202 -0.2495 -0.1406 -0.0049
 2382W        W17513   5.115   0.035  11.930 -0.4111 -0.1292  0.1017
 2383W        W17514  14.096   7.416   0.354  0.1310 -0.1175  0.1409
 2384W        W17515   3.125   8.045   1.532  0.1096  0.2231  0.2779
 2385W        W17516   7.081   5.861  14.516 -0.1995  0.2152 -0.1311
 2386W        W17517  10.076   8.536   0.789 -0.1720 -0.0699  0.0437
 2387W        W17518   6.793  16.016   5.645  0.2078 -0.0915  0.0042
 2388W        W17519  16.770   5.529   2.527  0.2493 -0.1251 -0.0762
 2389W        W17520  16.283   2.780  16.168 -0.1451 -0.0721  0.2981
 2390W        W17521   1.782   4.857   5.364 -0.1675 -0.0721 -0.2256
 2391W        W17522  16.994   8.170   4.959 -0.1596 -0.0425  0.2073
 2392W        W17523   1.110  11.954  13.545 -0.1685  0.2250 -0.0618
 2393W        W17524  11.258  12.287  15.125 -0.1527 -0.2261  0.1590
 2394W        W17525   4.863   0.300   4.779 -0.2383 -0.1235  0.0299
 2395W        W17526   6.387  14.618   5.916  0.1668  0.2127  0.1644
 2396W        W17527   9.385  16.537   3.928 -0.1961  0.0099 -0.1560
 2397W        W17528  11.242  17.097   0.840  0.1346  0.0132 -0.1694
 2398W        W17529   8.418   8.451  11.012 -0.0478  0.1338  0.0117
 2399W        W17530  12.572  14.327   2.553  0.2998  0.1606 -0.0218
 2400W        W17531   6.744  16.103   1.237 -0.2137 -0.0110 -0.0419
 2401W        W17532   8.506  14.566  11.851 -0.1216 -0.1140  0.0031
 2402W        W17533  14.696   9.546  15.103  0.0511 -0.0412 -0.2225
 2403W        W17534   3.075   1.643   1.553 -0.1816  0.2491 -0.1366
 2404W        W17535  17.582   9.622  11.531 -0.0614 -0.1838  0.0352
 2405W        W17536   8.088   8.474  10.184  0.1911  0.3148 -0.0085
 2406W        W17537  13.442   8.924   0.302 -0.0737  0.1330 -0.1918
 2407W        W17538  17.516   4.980  15.267  0.4043  0.0461 -0.0547
 2408W        W17539  12.231   6.752   2.472  0.1001  0.0190 -0.0675
 2409W        W17540   2.953   2.494   0.073  0.3313  0.0436  0.1446
 2410W        W17541   8.303   7.891  15.984  0.0798  0.0570 -0.1450
 2411W        W17542  13.044  11.856  12.568  0.5619 -0.0923  0.1895
 2412W        W17543   9.430  13.335   1.635  0.1661 -0.1847  0.0188
 2413W        W17544   2.562   8.486  12.208  0.2333  0.2218  0.1101
 2414W        W17545   9.929   9.504   4.590  0.1147  0.1686  0.0876
 2415W        W17546  17.190   5.431   4.297 -0.2756 -0.1560 -0.0337
 2416W        W17547  15.361  15.833   0.891  0.2018  0.2308 -0.1697
 2417W        W17548   4.513   0.032   3.467  0.1880  0.0497 -0.0153
 2418W        W17549  15.882   3.430   3.059 -0.1188  0.0909 -0.2889
 2419W        W17550   7.163  17.684   1.878  0.0691 -0.0213 -0.0873
 2420W        W17551  12.964   3.237  15.064  0.1107 -0.1049 -0.5211
 2421W        W17552  14.490   9.549  15.996  0.1869 -0.2240 -0.1009
 2422W        W17553  12.603  10.121   4.829  0.0763  0.0548 -0.0158
 2423W        W17554  16.972   3.627   0.831 -0.5492  0.1260 -0.0093
 2424W        W17555   8.305   4.749   0.986 -0.0056  0.2172 -0.0419
 2425W        W17556  11.448  17.249  11.456  0.0749  0.0957  0.0354
 2426W        W17557   2.446   7.375   4.110 -0.1877  0.0592  0.0964
 2427W        W17558   3.165  11.372   2.553  0.3285 -0.1700 -0.0815
 2428W        W17559  17.752   7.683   0.841 -0.2353 -0.2904 -0.1872
 2429W        W17560  15.241   1.910   3.707 -0.2617 -0.0144  0.0890
 2430W        W17561  16.222   9.572  11.068 -0.3134 -0.3169 -0.2740
 2431W        W17562   9.858   1.023  12.600 -0.2285  0.0886  0.1309
 2432W        W17563   0.661   8.173  12.242 -0.0144 -0.1493  0.0623
 2433W        W17564  11.776  11.523  12.095 -0.1738  0.0148  0.1818
 2434W        W17565   5.499  14.413  15.864  0.3204 -0.4296  0.1223
 2435W        W17566  15.961  14.427   3.257  0.1300 -0.3173 -0.2269
 2436W        W17567  13.412   0.980   3.607 -0.3328  0.2459  0.2062
 2437W        W17568  16.598   8.184   3.120 -0.0258 -0.1267  0.0781
 2438W        W17569  14.559  10.565   0.225  0.2419  0.1928 -0.6871
 2439W        W17570  13.817   0.612   0.161 -0.1781 -0.2050  0.0257
 2440W        W17571   9.941   0.697  13.181  0.0569  0.0883 -0.0597
 2441W        W17572   6.262  10.518  12.167  0.4302  0.0494  0.0967
 2442W        W17573  14.968   4.456   0.200  0.0938 -0.1061  0.2311
 2443W        W17574   6.065   1.004  11.675  0.2405  0.1286 -0.0810
 2444W        W17575  14.188   4.846  12.801 -0.0984  0.4088  0.3609
 2445W        W17576   3.870   0.493  11.375  0.1290  0.1702  0.1402
 2446W        W17577  10.447  11.856  14.307  0.0829  0.4860 -0.0020
 2447W        W17578   0.726   4.909   5.997 -0.2474 -0.0049  0.0767
 2448W        W17579  11.343   5.630  12.830 -0.0491 -0.2526 -0.2167
 2449W        W17580   5.904   8.379   4.485 -0.2270  0.0211  0.0250
 2450W        W17581  15.918   2.693  12.934 -0.0523  0.1959 -0.0462
 2451W        W17582  11.512  10.120   0.283 -0.0954  0.1200 -0.2693
 2452W        W17583   2.192  13.255   4.781  0.1236 -0.4055 -0.1039
 2453W        W17584  11.000  18.078   0.504 -0.0868  0.5130  0.0681
 2454W        W17585   0.181   7.795   2.055  0.0766 -0.1525  0.1264
 2455W        W17586  12.612  12.017   3.994 -0.0416 -0.1373  0.4127
 2456W        W17587   9.859  15.343   0.980  0.1053  0.0957  0.2805
 2457W        W17588   0.679   9.786  12.986  0.4456 -0.2563  0.0272
 2458W        W17589   9.683   7.883  14.759  0.0885  0.1202  0.0936
 2459W        W17590   8.964  13.430   1.790 -0.0984 -0.0036 -0.1702
 2460W        W17591  15.287  11.677  11.933  0.0654 -0.2253  0.0701
 2461W        W17592  15.293   5.319   3.049 -0.0954  0.2250  0.1273
 2462W        W17593  16.391   5.572   1.962  0.2402 -0.1807 -0.0770
 2463W        W17594  17.957  16.830  14.367 -0.1200 -0.2802  0.0959
 2464W        W17595  15.641  15.547   2.699 -0.2159  0.3061  0.0932
 2465W        W17596   8.067  16.817  16.355 -0.0599  0.2519  0.1032
 2466W        W17597   3.205  12.932  13.389 -0.0535  0.0162 -0.2223
 2467W        W17598  12.798  16.732  14.079 -0.1188  0.3469 -0.0596
 2468W        W17599  17.532   2.312  15.132  0.0273  0.0399 -0.4202
 2469W        W17600  13.582  10.402   1.329  0.2186  0.0738  0.1456
 2470W        W17601  15.246  18.049  11.852 -0.1964  0.1311  0.1313
 2471W        W17602  17.588   6.998   1.412  0.0778 -0.3373  0.0303
 2472W        W17603  12.081  10.101  15.602  0.0255  0.0398  0.3307
 2473W        W17604  15.381  13.205   0.626 -0.2811  0.2866  0.0654
 2474W        W17605   2.781   7.545  14.604 -0.1017 -0.0283 -0.0500
 2475W        W17606   1.055  13.187   3.546 -0.2450  0.0551 -0.1149
 2476W        W17607   9.010   1.632  11.203 -0.0477 -0.1652 -0.0566
 2477W        W17608   2.288   3.833  11.310  0.2858 -0.4740  0.0189
 2478W        W17609   7.176  11.566   3.427 -0.2474  0.0533 -0.0462
 2479W        W17610   5.647  10.628   1.508 -0.0367  0.1918 -0.0727
 2480W        W17611   8.230  16.804   5.737  0.0032 -0.2233 -0.5161
 2481W        W17612   1.320  17.608  13.427  0.1217 -0.0811 -0.2721
 2482W        W17613  12.201   9.297  11.161  0.0191  0.0020  0.2698
 2483W        W17614  10.267  13.609   5.108  0.0919 -0.0949 -0.3515
 2484W        W17615   5.664  12.815  12.322 -0.1825 -0.1431 -0.1370
 2485W        W17616  12.026  14.879  12.575  0.2345  0.2629 -0.1372
 2486W        W17617  18.004  12.854  15.752 -0.0241  0.1822  0.1190
 2487W        W17618  11.203  15.756  11.502 -0.1306 -0.2459  0.0910
 2488W        W17619  12.624   2.592  11.615  0.0088  0.1822 -0.0716
 2489W        W17620  16.218   2.702  13.430 -0.1485  0.2346  0.1323
 2490W        W17621   4.700   8.072  16.300  0.0116 -0.2276 -0.1245
 2491W        W17622   0.188  13.198   0.856 -0.3801 -0.0502  0.1164
 2492W        W17623   7.776   4.312   2.568 -0.1035 -0.3660 -0.3245
 2493W        W17624  13.135  17.258  12.119 -0.3367  0.0267 -0.1423
 2494W        W17625  14.946   1.448  14.114 -0.1299  0.0731 -0.0412
 2495W        W17626   6.088   1.164   0.769 -0.0598  0.0678 -0.1945
 2496W        W17627   0.729   7.844  12.685 -0.1625 -0.2514  0.0434
 2497W        W17628  11.966   6.659  14.871  0.0773 -0.1354 -0.0639
 2498W        W17629   5.110  16.672  15.891  0.1675  0.4902 -0.0447
 2499W        W17630  15.148  10.528   0.211  0.1882  0.3671  0.1456
 2500W        W17631   2.313   8.212   2.502  0.4867 -0.0128 -0.3109
 2501W        W17632  16.607   5.034  16.228 -0.4210 -0.1547 -0.0981
 2502W        W17633   5.797   9.174  13.414  0.0733 -0.1720  0.1868
 2503W        W17634  15.964  15.399   2.014 -0.1076  0.2507  0.0104
 2504W        W17635  12.095  12.756   0.556  0.1981 -0.2653  0.0578
 2505W        W17636   5.801   2.482  13.372 -0.0966  0.2044  0.0550
 2506W        W17637  10.121   7.235  16.404 -0.0379 -0.0638  0.1180
 2507W        W17638  10.966  11.827  11.489 -0.0749 -0.1129  0.0566
 2508W        W17639  10.175  12.606  14.024  0.0415  0.0685 -0.4612
 2509W        W17640  10.372  13.068  11.472 -0.0358  0.1296 -0.0099
 2510W        W17641   1.784  14.639   1.209  0.1721 -0.0162 -0.1490
 2511W        W17642  10.814  13.285   3.054 -0.1084  0.1401 -0.1765
 2512W        W17643   2.653  11.359   3.286 -0.0081  0.2223 -0.1557
 2513W        W17644  12.580  17.219  14.215  0.3215 -0.0657 -0.0031
 2514W        W17645  15.309   9.083  12.500  0.0005  0.1699 -0.1118
 2515W        W17646   3.335   5.419  13.058 -0.0878  0.1401 -0.0977
 2516W        W17647  10.221  15.598  13.051  0.0390 -0.1136 -0.2370
 2517W        W17648   4.261  16.853  14.868  0.0002  0.0733 -0.1002
 2518W        W17649  14.292   0.075  16.289 -0.2471  0.0903 -0.1416
 2519W        W17650   2.472   0.009  12.367  0.0878 -0.1039 -0.3959
 2520W        W17651   8.610  14.052   3.969  0.2082  0.0938  0.0724
 2521W        W17652  11.502   7.570   0.173 -0.4358  0.2478 -0.0585
 2522W        W17653   7.977  16.042   4.701  0.0004  0.3080 -0.1073
 2523W        W17654   5.420  17.843  14.669 -0.0424 -0.1815 -0.1794
 2524W        W17655   7.135  15.502  16.167 -0.0480 -0.0055  0.0132
 2525W        W17656   3.533  14.378   4.830 -0.1489  0.2248  0.0643
 2526W        W17657  15.729   4.253   2.494 -0.0176  0.2861  0.2325
 2527W        W17658   9.697  12.392   2.135 -0.1204  0.0506 -0.0850
 2528W        W17659  15.512   4.668   2.337 -0.1616  0.1468 -0.1329
 2529W        W17660  16.898  13.774   0.656 -0.1479 -0.0600 -0.1460
 2530W        W17661   8.315   4.323  14.071 -0.1209 -0.2215 -0.2169
 2531W        W17662   4.918   8.523  12.285  0.0434  0.1115 -0.1286
 2532W        W17663   1.720  17.270   3.868  0.2818  0.1721  0.1852
 2533W        W17664   7.259  11.139   1.164 -0.0682 -0.0240 -0.2737
 2534W        W17665  16.676  15.711  16.448 -0.2403 -0.0487  0.0520
 2535W        W17666  10.535   8.247   2.817  0.0282 -0.0904  0.1246
 2536W        W17667   9.692   0.393   2.428  0.3211 -0.2067  0.0052
 2537W        W17668  11.471   1.477   1.090  0.2879 -0.0750 -0.2749
 2538W        W17669  16.960   0.024   5.067 -0.2300  0.0308 -0.2426
 2539W        W17670  16.349  11.972  14.378  0.3016 -0.0053  0.2569
 2540W        W17671  15.361  13.005   5.684  0.0781  0.0586  0.0187
 2541W        W17672   7.401  12.964   2.130 -0.2657 -0.0992 -0.0901
 2542W        W17673  17.508  13.373  13.246 -0.0228  0.0937  0.1623
 2543W        W17674   2.202   6.917  14.096  0.1096 -0.1913  0.3405
 2544W        W17675   8.251   3.296  14.138 -0.0687  0.0637  0.1352
 2545W        W17676   7.065   3.717  11.439  0.1295  0.2700 -0.4966
 2546W        W17677   6.266  15.900  15.304  0.0110 -0.0323 -0.2236
 2547W        W17678  16.374   5.955  14.657 -0.0480 -0.0888  0.2276
 2548W        W17679  13.223  12.899   4.269 -0.2401 -0.0012  0.0207
 2549W        W17680   6.162   0.664  13.549 -0.3490  0.0220 -0.0730
 2550W        W17681  16.927  16.997  13.179 -0.1772  0.1969 -0.1604
 2551W        W17682  16.363   5.896   0.826 -0.0181 -0.1265  0.2299
 2552W        W17683  11.897   7.373  13.704  0.0779 -0.1289 -0.1706
 2553W        W17684   9.166  10.135   3.973  0.1662 -0.1434  0.0223
 2554W        W17685  12.833   2.499  16.073  0.0705  0.2915  0.2757
 2555W        W17686   3.538   3.480  14.941 -0.1213  0.1766 -0.2644
 2556W        W17687   1.792  10.618  16.045 -0.2907  0.3861  0.0775
 2557W        W17688   4.759   5.097  14.195  0.0203 -0.2302  0.1189
 2558W        W17689   8.938   7.631   0.354 -0.2544  0.0065 -0.2236
 2559W        W17690   4.506  14.707   0.054  0.1272  0.1335  0.0159
 2560W        W17691   8.565   8.614  10.029  0.0062  0.0474  0.3059
 2561W        W17692  11.972   7.527  11.259 -0.0968  0.1460 -0.0444
 2562W        W17693  13.477  18.044   4.107 -0.0920 -0.0169 -0.3251
 2563W        W17694   5.063   7.884  10.819  0.1384 -0.0734  0.2351
 2564W        W17695  11.709  10.480  15.919 -0.0363  0.1128  0.2309
 2565W        W17696  14.123  17.879   2.955 -0.0593 -0.1133  0.0312
 2566W        W17697  13.870  14.645  13.954 -0.2574 -0.1490  0.0001
 2567W        W17698   2.731   0.643  15.842 -0.3567  0.1710  0.0237
 2568W        W17699   1.510  12.681  15.021  0.1461  0.2653 -0.1855
 2569W        W17700   0.008   1.859  14.548  0.0329  0.0201  0.2910
 2570W        W17701  10.432   6.628  11.307  0.1522 -0.1307 -0.1807
 2571W        W17702  10.473  16.854   2.548  0.3390  0.2631 -0.1796
 2572W        W17703   3.781  12.796  13.104  0.0287  0.0384 -0.1461
 2573W        W17704  13.639   4.064   5.535  0.1927 -0.1024 -0.3101
 2574W        W17705  17.609   2.843   3.005  0.1036  0.0987  0.2432
 2575W        W17706  18.070  16.140  16.036 -0.1509  0.0475 -0.1461
 2576W        W17707   2.147  11.183  11.641 -0.1041  0.0903 -0.0558
 2577W        W17708   5.826  13.469   3.969  0.4978 -0.1038 -0.3781
 2578W        W17709  16.543  10.151   0.879  0.2374  0.0388 -0.1306
 2579W        W17710  15.915   3.066   5.859 -0.0851  0.1961  0.1391
 2580W        W17711   5.117   0.397  15.504  0.0919  0.1777 -0.1743
 2581W        W17712   6.273   8.470   3.607 -0.1965  0.0695 -0.1418
 2582W        W17713  14.951   6.020  11.801  0.0293  0.2639  0.1799
 2583W        W17714  11.079   2.711  11.210  0.0691 -0.0493 -0.0283
 2584W        W17715   0.632   3.025   0.829  0.0578  0.3492 -0.1104
 2585W        W17716  13.649   6.138   3.487 -0.1053  0.0748  0.2693
 2586W        W17717   2.905   0.314   4.960  0.0162 -0.0079  0.0174
 2587W        W17718   3.706  13.489  15.062  0.2076 -0.2719 -0.0543
 2588W        W17719  12.420   9.913  16.293  0.0567  0.2868  0.0212
 2589W        W17720  15.657   8.593  12.945 -0.1412  0.4403  0.1124
 2590W        W17721   7.042   3.752  12.764  0.2055  0.0347  0.1226
 2591W        W17722  10.959   8.346   0.758 -0.2010 -0.0834  0.0433
 2592W        W17723   6.783   9.475   4.413 -0.1751  0.0581 -0.2009
 2593W        W17724  12.453  15.207  11.004 -0.0400 -0.0199 -0.0509
 2594W        W17725  11.252  11.473   0.246  0.2169  0.1227  0.2604
 2595W        W17726  15.899  11.650   2.604 -0.0207  0.0838  0.0134
 2596W        W17727   4.170  16.409  13.662 -0.0755 -0.2191 -0.1955
 2597W        W17728  14.669   8.208  14.016  0.2016 -0.0895 -0.1697
 2598W        W17729  13.811   3.428  12.887 -0.3171  0.2196 -0.1571
 2599W        W17730   9.368  17.098   1.475 -0.1106  0.3263  0.1687
 2600W        W17731  14.522   4.455   1.822  0.1189  0.2438 -0.2262
 2601W        W17732   8.478   7.371   3.115 -0.0545  0.1209 -0.0481
 2602W        W17733  16.581   3.206  11.238  0.2546 -0.2103 -0.2317
 2603W        W17734  11.433  17.802   2.856  0.0069  0.0754  0.0776
 2604W        W17735   6.143   6.580   4.057  0.1463 -0.1998 -0.1431
 2605W        W17736  15.798  12.589  13.917 -0.0407  0.0876  0.0547
 2606W        W17737  11.016   0.595   3.746 -0.0276  0.2658 -0.4929
 2607W        W17738  14.000   5.644  11.504  0.0697  0.1176  0.2244
 2608W        W17739   3.485  10.000   1.162  0.0841 -0.0086  0.0154
 2609W        W17740  13.211   1.169   4.243 -0.1515  0.0636 -0.0160
 2610W        W17741  15.691  11.859   2.009 -0.1819 -0.2879  0.2070
 2611W        W17742   6.237   4.627   1.875 -0.3113  0.0448 -0.0031
 2612W        W17743   2.055  17.608  11.604  0.0203  0.0604  0.0557
 2613W        W17744  12.940  14.025   2.072  0.2830 -0.6171  0.0725
 2614W        W17745   6.371  12.215  14.331  0.1699  0.0310  0.1619
 2615W        W17746  16.448   4.179   6.620  0.0670  0.1526 -0.2810
 2616W        W17747  17.930  10.902  15.707  0.2921  0.0501 -0.0145
 2617W        W17748   8.714   3.606   2.571  0.1166  0.6104  0.1892
 2618W        W17749  13.194   6.186  15.917  0.5823  0.0922  0.0689
 2619W        W17750   3.850  17.427  12.737 -0.0649 -0.0909 -0.0421
 2620W        W17751   1.750  13.296   4.160  0.1650 -0.1870  0.0324
 2621W        W17752  15.211  14.542  13.629  0.3555 -0.0315  0.3191
 2622W        W17753   8.347   5.154  12.506 -0.1582  0.0664 -0.4733
 2623W        W17754  16.965  14.501  14.928  0.0803  0.3698 -0.1502
 2624W        W17755  14.093  11.446   4.788  0.2690 -0.2282  0.1462
 2625W        W17756  17.217   6.495   2.862 -0.0707  0.1829 -0.2377
 2626W        W17757  10.264  15.333  11.647  0.2776 -0.2672 -0.0651
 2627W        W17758   8.446   6.108  15.716  0.1558  0.0867 -0.0809
 2628W        W17759  10.872   0.821  11.608  0.1730 -0.1869 -0.0671
 2629W        W17760  12.020   0.078  14.677  0.1770  0.2043  0.2983
 2630W        W17761  17.877   8.631  12.144 -0.1854 -0.2236  0.2834
 2631W        W17762   5.143  17.956   2.000 -0.1118  0.0097 -0.1823
 2632W        W17763   4.703  11.404  15.097 -0.0542  0.1194 -0.1013
 2633W        W17764   8.010   0.492  11.604 -0.2058 -0.3313  0.0143
 2634W        W17765  10.805   4.308   2.868  0.1546  0.2691 -0.0011
 2635W        W17766   9.443   1.832  10.823 -0.0201  0.0672  0.1315
 2636W        W17767  11.120  11.021   4.782  0.0639 -0.2760 -0.1174
 2637W        W17768   5.539  18.040   3.033  0.0939 -0.1681 -0.1968
 2638W        W17769   4.167  17.723   1.458  0.1893 -0.2342 -0.4036
 2639W        W17770  15.311  16.170   5.609  0.0047 -0.2801 -0.1257
 2640W        W17771   9.928   8.655  12.646  0.1938  0.1932  0.2226
 2641W        W17772   8.869  15.917  12.600 -0.1811 -0.0300 -0.1736
 2642W        W17773  10.522  12.073  12.035  0.2410  0.2479  0.0024
 2643W        W17774   3.569   5.923   3.546 -0.2227  0.1505  0.1540
 2644W        W17775  10.468  14.096   0.009 -0.2051 -0.3474 -0.0150
 2645W        W17776  13.726   6.670  13.531 -0.2995  0.0249 -0.0540
 2646W        W17777  11.815  10.149   5.627 -0.0161  0.0475  0.0521
 2647W        W17778   2.126  15.059  12.131 -0.0235 -0.0372  0.0973
 2648W        W17779  17.756  11.198  13.595  0.0344  0.4141  0.0383
 2649W        W17780   2.190  13.338   5.471  0.1234 -0.0621 -0.0538
 2650W        W17781  11.080  12.103   0.350 -0.0631  0.2034 -0.2428
 2651W        W17782  14.246   0.624   3.058  0.2759 -0.0736 -0.2165
 2652W        W17783   1.358   3.978   0.133  0.0887 -0.0699  0.0779
 2653W        W17784  16.388  14.056  11.792 -0.1893 -0.0833  0.0715
 2654W        W17785   1.787   7.469  14.356 -0.3610  0.0340 -0.0011
 2655W        W17786  11.947  13.555   1.037 -0.5094  0.0796  0.1889
 2656W        W17787  10.891  16.767  14.262  0.0531  0.3845  0.1586
 2657W        W17788  16.358   9.619   0.065  0.1260 -0.0118  0.0094
 2658W        W17789  15.838  17.197  12.535 -0.0383  0.0524 -0.2749
 2659W        W17790   3.422   5.615   3.066 -0.1580 -0.0382 -0.0642
 2660W        W17791  16.383   7.577  11.627  0.2178  0.0540  0.2762
 2661W        W17792  15.589   8.734   0.160  0.1021  0.2979 -0.0201
 2662W        W17793   9.818  13.425   4.837 -0.0218  0.1764 -0.2204
 2663W        W17794   0.721  12.539  14.957  0.0682 -0.1575 -0.0511
 2664W        W17795   8.844   0.586   1.743 -0.1506 -0.0465  0.0652
 2665W        W17796   1.853  14.895  13.321  0.0594 -0.1253  0.1263
 2666W        W17797  13.269   8.967  14.884 -0.1747  0.4057  0.2001
 2667W        W17798   8.004  11.198  13.038 -0.0099 -0.3107 -0.0785
 2668W        W17799  16.088   2.113  11.632 -0.1665 -0.0283 -0.1420
 2669W        W17800   7.515  16.774  15.171  0.1822 -0.1773  0.0484
 2670W        W17801   8.032   8.197   0.945 -0.2908  0.4055 -0.2105
 2671W        W17802  10.123  13.617  13.178  0.2058  0.0556 -0.1164
 2672W        W17803  17.621   6.509   3.198 -0.0974  0.0563 -0.1314
 2673W        W17804  11.956   4.993   2.528 -0.1633  0.1523 -0.1041
 2674W        W17805   4.897   2.645   4.546  0.0534 -0.0639  0.0114
 2675W        W17806   1.536   9.575  11.824 -0.2954  0.2293 -0.1111
 2676W        W17807  13.946  17.511   0.887 -0.2093  0.1164  0.1152
 2677W        W17808   6.207  14.634   1.019 -0.1139  0.0534  0.3428
 2678W        W17809   5.447  12.937  15.289 -0.2329  0.1782 -0.2029
 2679W        W17810  17.194  14.829   4.007  0.3949  0.1396 -0.2589
 2680W        W17811  14.332  12.052  15.509  0.0963 -0.1866 -0.1128
 2681W        W17812   8.601   0.125  15.583  0.1499 -0.1610  0.1440
 2682W        W17813   5.145   2.568   5.112 -0.0190  0.2118 -0.2066
 2683W        W17814  17.009  15.252  15.919 -0.0202  0.0497 -0.0881
 2684W        W17815   1.072   3.314   1.512 -0.2778 -0.0619  0.2423
 2685W        W17816  12.112  15.430   0.972 -0.3593 -0.2089 -0.3307
 2686W        W17817   7.698  12.693  15.460 -0.4006 -0.0687 -0.2168
 2687W        W17818   9.668  16.257   4.806  0.1828  0.2030  0.5092
 2688W        W17819  12.656  16.941  12.201 -0.1892  0.0517 -0.1166
 2689W        W17820  12.491  11.952   4.512 -0.0572  0.3343 -0.0734
 2690W        W17821  17.605   3.057   5.097  0.2598  0.2102  0.2093
 2691W        W17822   0.251  13.511  11.653  0.1229 -0.0620  0.0969
 2692W        W17823  11.376   6.421  13.414  0.1217 -0.5117  0.1638
 2693W        W17824   0.040  15.726  14.564  0.0007 -0.0818 -0.1020
 2694W        W17825   6.511  16.918   1.282  0.0845 -0.1515 -0.1631
 2695W        W17826  15.780   7.565  14.018  0.2338  0.0630  0.4018
 2696W        W17827  14.602   7.996   6.401  0.0059 -0.1986 -0.1889
 2697W        W17828  17.413   8.859  14.547 -0.0026 -0.2467  0.0423
 2698W        W17829  11.350  10.203  12.691 -0.0054  0.2484  0.0340
 2699W        W17830  11.503   8.305  13.206  0.1520  0.1737 -0.0433
 2700W        W17831   5.561  12.627   3.612  0.2158 -0.0038  0.2397
 2701W        W17832   4.453   2.455  13.387 -0.0824 -0.0761 -0.2645
 2702W        W17833   9.180  15.286   3.251  0.0773 -0.1207  0.1366
 2703W        W17834   5.901   3.618  12.616 -0.1753 -0.1950 -0.1100
 2704W        W17835   7.434  11.848  12.553 -0.2007 -0.0616  0.1438
 2705W        W17836   8.762  17.824  15.403  0.0086  0.2226 -0.0723
 2706W        W17837   6.402  15.315   1.751 -0.0075  0.3342 -0.0920
 2707W        W17838  13.141   4.038   4.021 -0.1259  0.0590 -0.0752
 2708W        W17839  16.489   8.575  11.314 -0.1424  0.0120  0.3258
 2709W        W17840   8.174   9.797  11.459 -0.1054  0.2940 -0.3236
 2710W        W17841  13.619   2.642   2.460  0.0446  0.0662  0.1455
 2711W        W17842   5.012  17.290   0.062 -0.0078  0.1906 -0.3015
 2712W        W17843  11.144   3.534  14.076 -0.3441  0.3409 -0.0790
 2713W        W17844   0.366  11.468   4.600 -0.0557 -0.0854  0.1184
 2714W        W17845  16.058  16.088  11.436  0.1032  0.5704  0.0295
 2715W        W17846   4.253   1.369  13.286 -0.5378  0.1592  0.0075
 2716W        W17847  14.082  10.204  11.087 -0.3113  0.1134  0.1164
 2717W        W17848  12.104   7.229   2.207 -0.0029 -0.0215  0.1876
 2718W        W17849  10.269   2.067  12.646 -0.0113 -0.3578  0.1669
 2719W        W17850  18.106   0.301  12.530  0.1277 -0.1032 -0.1991
 2720W        W17851  12.394  11.530  15.509 -0.0877 -0.1826  0.0631
 2721W        W17852   0.715   5.005  14.241  0.1504  0.1259 -0.2748
 2722W        W17853   2.179   1.469  11.166  0.1188  0.1053 -0.4211
 2723W        W17854   3.165   7.928   3.561  0.1212 -0.0740  0.2302
 2724W        W17855   7.603  16.267  14.078  0.1735 -0.1433 -0.1049
 2725W        W17856   6.740  15.837   2.821 -0.0807  0.1114 -0.3802
 2726W        W17857   9.986  16.389  13.216  0.1084 -0.0460  0.1088
 2727W        W17858  10.485  12.561  11.232  0.2030 -0.0721  0.1455
 2728W        W17859  13.119   8.771   0.781  0.1496 -0.1141  0.2381
 2729W        W17860   3.542   8.732   4.929  0.0416 -0.2271 -0.0535
 2730W        W17861  13.230   3.956   2.215  0.0772  0.2133  0.0298
 2731W        W17862   6.288  17.638   0.150  0.1193  0.0114  0.0511
 2732W        W17863  12.698   3.863   5.368  0.0440  0.0011 -0.0193
 2733W        W17864  12.554  15.541  15.068  0.1712  0.2250  0.0915
 2734W        W17865  13.590  11.770  13.597 -0.2226  0.0654  0.0901
 2735W        W17866   6.345  12.588  15.334  0.0333 -0.0836  0.0980
 2736W        W17867  13.409   0.391  12.828 -0.1404 -0.2756  0.0481
 2737W        W17868   0.195  12.101   0.585  0.0347 -0.3043  0.2999
 2738W        W17869   2.996  14.292  15.924  0.0128 -0.2707 -0.1281
 2739W        W17870  12.689  11.758  13.073 -0.1988 -0.1407 -0.3905
 2740W        W17871  15.189  17.214  13.765 -0.0220  0.3099 -0.0593
 2741W        W17872  11.882   5.801  11.281 -0.0421 -0.2279  0.0608
 2742W        W17873  16.852   5.130   0.805 -0.0085  0.0537  0.1963
 2743W        W17874   9.749   6.355   0.373  0.0360  0.0260  0.1686
 2744W        W17875  15.884   5.345   1.486  0.0013  0.2219  0.1138
 2745W        W17876   6.372   8.308   0.796 -0.3050 -0.0357 -0.0410
 2746W        W17877  15.281  15.108  10.847 -0.0699  0.0970 -0.1231
 2747W        W17878  11.808   6.747  15.673  0.1608  0.0013 -0.2969
 2748W        W17879   2.842  14.527  13.101  0.0519  0.0285 -0.0316
 2749W        W17880  15.074   4.487  12.712 -0.0593  0.4431 -0.1817
 2750W        W17881  13.172  10.578   3.330 -0.2183  0.0679 -0.0369
 2751W        W17882   7.187  13.956   4.731 -0.1015  0.1303  0.1819
 2752W        W17883  15.224   7.064   3.452  0.1085  0.1363  0.2426
 2753W        W17884   1.157   2.749  13.971 -0.0244 -0.0637  0.2312
 2754W        W17885   1.322   9.173   3.311 -0.4098  0.3424 -0.1728
 2755W        W17886   6.562   4.489  11.310  0.0361  0.2798  0.1536
 2756W        W17887   9.876  15.227  16.222 -0.0056 -0.3753  0.3038
 2757W        W17888  11.950   6.328  14.502  0.0474 -0.1717 -0.0536
 2758W        W17889   1.904  11.912   3.028  0.0086 -0.1598 -0.0367
 2759W        W17890  16.622   3.841  12.124  0.1658 -0.2646 -0.1045
 2760W        W17891   6.173   8.543   1.441  0.0600 -0.3101 -0.1470
 2761W        W17892   1.844   1.835   2.287  0.0630  0.0998  0.0772
 2762W        W17893  13.830  10.220   2.268  0.1661 -0.0113 -0.1062
 2763W        W17894   3.057  11.091  13.464 -0.0275 -0.4800  0.1480
 2764W        W17895  15.548   7.898   2.182  0.3475 -0.1359  0.2215
 2765W        W17896  17.338  10.635   1.633 -0.1878  0.0700  0.0331
 2766W        W17897   5.310  17.514  15.484  0.0109  0.2376 -0.2469
 2767W        W17898   4.770   1.055   4.315 -0.2151  0.5386  0.0905
 2768W        W17899   6.829   4.476  13.951  0.1017  0.2743 -0.0187
 2769W        W17900   4.175   6.140   2.659  0.0971  0.1637 -0.2894
 2770W        W17901   1.780   7.164  15.408 -0.0818  0.0840  0.0114
 2771W        W17902   0.959  13.410   0.649 -0.1579 -0.0504 -0.4637
 2772W        W17903   5.560   9.991  11.831  0.2048  0.1221 -0.1388
 2773W        W17904   6.568  13.135   4.347 -0.3148 -0.1539 -0.0343
 2774W        W17905  16.351  10.922   1.840  0.2152  0.2083  0.1463
 2775W        W17906   3.787   8.233   2.266  0.0023 -0.3763 -0.0418
 2776W        W17907  17.416  11.959  12.975 -0.1255 -0.1180 -0.0242
 2777W        W17908  16.020  13.157  12.988 -0.0298  0.1971 -0.1223
 2778W        W17909  15.657   3.904  14.877  0.3124 -0.1249 -0.0998
 2779W        W17910  17.983   9.604   2.117  0.0570  0.1709  0.1464
 2780W        W17911   5.026   8.601  12.809 -0.1553  0.1425  0.1705
 2781W        W17912   6.898   9.509  16.145 -0.0918  0.0231 -0.1548
 2782W        W17913  16.068  13.359   3.079  0.0175 -0.0803  0.0893
 2783W        W17914   0.124  11.178  12.775 -0.0766 -0.4094 -0.1059
 2784W        W17915   4.217  14.621  13.510  0.1463 -0.2139  0.1091
 2785W        W17916   8.330   3.601   2.200  0.2107  0.0305  0.0898
 2786W        W17917  10.817  11.463   5.194 -0.1641 -0.1161  0.2611
 2787W        W17918   6.013   9.159  14.293 -0.1529  0.0628  0.1537
 2788W        W17919  10.479   6.603   5.501  0.0860  0.2019 -0.2562
 2789W        W17920   0.832   3.790   3.939 -0.1328  0.0841  0.0366
 2790W        W17921  14.616  12.480  14.136 -0.1571  0.0037  0.3368
 2791W        W17922  14.142  18.077  13.803 -0.1588  0.1340 -0.2371
 2792W        W17923  11.455  16.865   2.965 -0.1967 -0.1912 -0.1911
 2793W        W17924   0.837   3.600   4.567 -0.2167 -0.2174 -0.0845
 2794W        W17925   2.357  11.312  15.618 -0.0567  0.1304  0.1630
 2795W        W17926   8.236   6.406   4.249 -0.0239  0.3366  0.0668
 2796W        W17927  12.463  12.734  13.726  0.1722  0.0182 -0.0998
 2797W        W17928  12.519  14.300  10.380 -0.1115 -0.1544 -0.3349
 2798W        W17929   5.495  13.387   1.739  0.0292  0.2748  0.3047
 2799W        W17930  10.011   3.660  10.772  0.1136  0.1690 -0.2208
 2800W        W17931   1.240   4.359   3.254  0.6017  0.0967  0.0572
 2801W        W17932   1.487   5.915   1.719 -0.0782  0.0653 -0.0589
 2802W        W17933  14.933  17.637   0.209  0.4263  0.1936 -0.1491
 2803W        W17934   8.932   9.324  11.401 -0.0513 -0.1294 -0.2914
 2804W        W17935  11.527  10.029  15.978 -0.0664 -0.0033 -0.1072
 2805W        W17936   5.669   1.515  12.451 -0.0583  0.0004 -0.0442
 2806W        W17937  12.298   0.501  15.527 -0.1942 -0.1224 -0.0016
 2807W        W17938   8.834   7.499   1.389 -0.0227  0.0891 -0.2648
 2808W        W17939  16.121   9.488   0.622  0.1169  0.3600  0.0228
 2809W        W17940  13.324  17.326   2.346 -0.2023  0.3984  0.2100
 2810W        W17941   6.897  16.370  13.244  0.0149  0.3269 -0.3257
 2811W        W17942  12.395   6.417  14.684 -0.1314 -0.0972 -0.0548
 2812W        W17943  16.471   9.104   2.770  0.0233 -0.1629 -0.0061
 2813W        W17944   2.348  11.393  12.347 -0.0573 -0.0568  0.1923
 2814W        W17945   5.434   2.804  13.128  0.0829 -0.1402  0.0712
 2815W        W17946   1.529   2.319   4.608 -0.0516 -0.0424 -0.2523
 2816W        W17947  11.356  18.106  13.539 -0.1844 -0.0712  0.2427
 2817W        W17948   0.755  14.611   3.919  0.0345 -0.0980  0.0833
 2818W        W17949   3.068   8.527  12.234 -0.0111 -0.1659  0.0252
 2819W        W17950  14.482  11.994   2.793 -0.1098  0.1173  0.1962
 2820W        W17951  15.112   2.821   3.852 -0.1673 -0.1277  0.2020
 2821W        W17952   9.574  12.092  12.845 -0.1533  0.0899  0.0914
 2822W        W17953   3.863   6.325  15.719  0.0031 -0.0111  0.1236
 2823W        W17954   5.062   4.450   3.215  0.3390 -0.1135  0.1001
 2824W        W17955  11.078  12.973   5.182  0.2807  0.1418 -0.2094
 2825W        W17956   5.708  15.954   0.894 -0.3659  0.0057  0.0683
 2826W        W17957  16.116   1.596   0.331 -0.3038  0.3205 -0.0737
 2827W        W17958  13.190  12.288   4.827  0.4851  0.0041 -0.2234
 2828W        W17959  10.961   9.817  12.638 -0.1049 -0.0099 -0.3073
 2829W        W17960  11.349   1.878   4.064 -0.0651 -0.1036 -0.2813
 2830W        W17961   8.873  11.644  11.825 -0.0449  0.1692  0.0350
 2831W        W17962   8.180  17.000   5.230 -0.1031 -0.1170 -0.2092
 2832W        W17963  15.968   1.565  14.095  0.0593  0.0568  0.0156
 2833W        W17964   9.922  14.211   1.272  0.0551 -0.1097  0.0566
 2834W        W17965  10.061  10.079  14.927  0.1234  0.0076  0.0077
 2835W        W17966   3.347  11.952   2.347  0.1915  0.1779  0.0239
 2836W        W17967   5.294  16.574   4.591 -0.4191  0.2774 -0.3865
 2837W        W17968  13.023   5.525  11.296 -0.0328  0.1038  0.1699
 2838W        W17969   9.959   1.775  12.346 -0.3389 -0.0683 -0.0426
 2839W        W17970   1.415  11.436  15.211 -0.0003  0.1446  0.0522
 2840W        W17971  17.095  10.044  10.887  0.2556 -0.0793  0.2298
 2841W        W17972   2.268   3.190  12.701  0.0902 -0.0839 -0.1731
 2842W        W17973   9.457  15.609   3.565 -0.1665  0.2169  0.1823
 2843W        W17974  17.466   1.075   0.160 -0.1151  0.0960 -0.1417
 2844W        W17975   7.776   8.914   2.152  0.1213 -0.0801 -0.0313
 2845W        W17976   6.820  16.181   1.941  0.0895  0.0871 -0.2586
 2846W        W17977   2.710  15.350  13.629  0.1148  0.0514 -0.2479
 2847W        W17978  11.788   7.729   0.922  0.1470 -0.1147 -0.3035
 2848W        W17979  14.724   7.645  14.203  0.1816 -0.1017  0.0223
 2849W        W17980   8.570  13.163  12.654  0.1266 -0.1471  0.0902
 2850W        W17981   5.641  12.354   3.191 -0.1197 -0.2272  0.1643
 2851W        W17982   1.207   0.638  13.134  0.0420  0.1325 -0.0521
 2852W        W17983  16.098  11.588  14.691 -0.0565 -0.0283  0.3752
 2853W        W17984   4.906   3.586  15.187  0.0434 -0.1009 -0.0675
 2854W        W17985   0.371  17.326   4.987 -0.1836 -0.0037  0.1515
 2855W        W17986   4.812  16.650  12.275  0.1974 -0.1885 -0.0372
 2856W        W17987   6.442   8.845  12.879  0.1521  0.0631 -0.2212
 2857W        W17988  17.335  11.695   1.206 -0.0240  0.0045 -0.0767
 2858W        W17989   9.855   7.373   4.258  0.2888 -0.0845 -0.0543
 2859W        W17990  16.128   5.155  15.140  0.0357 -0.0104  0.0473
 2860W        W17991  16.921   7.989   0.424 -0.2116 -0.2035  0.0248
 2861W        W17992  11.535  17.379   4.795 -0.0194  0.0179  0.3549
 2862W        W17993  10.988   6.020  14.854 -0.1403  0.1159  0.3253
 2863W        W17994  10.461   0.663   4.189  0.1347  0.2937 -0.2001
 2864W        W17995  14.138  12.589  13.191 -0.0767 -0.3443  0.3865
 2865W        W17996   3.993   9.511   1.856  0.0032  0.0279 -0.1041
 2866W        W17997  16.747  11.434  15.540 -0.0593  0.0191  0.1685
 2867W        W17998   0.242   4.582   4.452  0.2779  0.1131 -0.1974
 2868W        W17999   1.277   1.269   2.738 -0.1725  0.4625 -0.2120
 2869W        W18000   4.936   3.086  11.333 -0.0625 -0.0016  0.0238
 2870W        W18001   2.741  13.504  12.357 -0.0471 -0.0226 -0.1650
 2871W        W18002   7.565  15.861   1.448  0.1712  0.1659  0.0753
 2872W        W18003  15.821  13.422  10.383 -0.1768 -0.0545  0.0430
 2873W        W18004  16.168   1.289  14.784  0.2005 -0.1266 -0.1250
 2874W        W18005  17.710  14.281  11.993  0.1957  0.2545 -0.0621
 2875W        W18006   3.023   7.043   0.504 -0.0843  0.0314  0.1058
 2876W        W18007   3.203   1.426  16.083 -0.1713 -0.1118  0.4181
 2877W        W18008   4.880   0.411   5.542  0.1859 -0.1601 -0.4446
 2878W        W18009  12.305   7.844   1.312 -0.1390  0.1976  0.2193
 2879W        W18010  15.326  12.407  15.866 -0.1262 -0.1505  0.1100
 2880W        W18011   0.965   5.743   5.653 -0.2442  0.1366  0.0456
 2881W        W18012   1.676  15.212  12.963  0.2106  0.1725 -0.0737
 2882W        W18013   5.028  18.046  13.974 -0.0087 -0.0782 -0.0383
 2883W        W18014   6.596  10.317   0.879  0.1926 -0.0074 -0.0412
 2884W        W18015  12.595   6.332  13.780 -0.4287 -0.1654  0.0393
 2885W        W18016   8.391   4.736   4.984 -0.2355  0.2706 -0.1091
 2886W        W18017  16.698   6.386  13.901  0.1503 -0.0323  0.0065
 2887W        W18018  15.753  12.558   2.352 -0.1184  0.1623 -0.1091
 2888W        W18019  16.365  15.130   4.339 -0.1586  0.0037  0.1987
 2889W        W18020  11.357  12.466   1.384  0.0985  0.1722 -0.1962
 2890W        W18021   2.954   8.714   2.622  0.1431 -0.1006  0.0662
 2891W        W18022   8.197   3.403  14.658 -0.1820 -0.0010 -0.2762
 2892W        W18023   0.171  14.012   1.634 -0.0497 -0.2629  0.0680
 2893W        W18024   1.041  12.655   3.483 -0.0216 -0.0272 -0.3773
 2894W        W18025   6.878   3.615   1.264 -0.2578 -0.0268  0.0317
 2895W        W18026   0.354  10.240  16.244  0.0233 -0.0149 -0.3132
 2896W        W18027  17.224  13.855  15.539  0.0712 -0.3525  0.0603
 2897W        W18028   0.098   3.506  11.494  0.2364  0.0896  0.0508
 2898W        W18029  10.833   0.639   2.957  0.1677  0.1219 -0.1219
 2899W        W18030  15.958  16.860  13.255 -0.1106  0.1023  0.1085
 2900W        W18031   3.499   8.752  10.860 -0.0320 -0.1564 -0.0542
 2901W        W18032   6.557   2.587   1.572  0.1463 -0.2238 -0.3662
 2902W        W18033   6.608   6.713   3.952  0.2272  0.0618 -0.4907
 2903W        W18034   5.938   4.481   2.254 -0.1047 -0.0610  0.1555
 2904W        W18035   2.312   9.130  16.142 -0.3310  0.1346 -0.2460
 2905W        W18036   2.834   9.456  12.344 -0.2440  0.1376  0.0830
 2906W        W18037   9.280   0.688   3.406  0.0375 -0.0475  0.1397
 2907W        W18038  14.248  17.851   0.216  0.1067 -0.0034  0.0883
 2908W        W18039   3.866  10.166  13.925 -0.0698 -0.0656  0.1355
 2909W        W18040  16.325  10.717  14.128 -0.1147  0.0946  0.1411
 2910W        W18041  17.596   1.012  13.720 -0.4226 -0.1210  0.3351
 2911W        W18042  14.012  15.371   5.996 -0.2554 -0.0239  0.3516
 2912W        W18043   7.074   4.487  16.084 -0.2649 -0.1564  0.3949
 2913W        W18044  16.436   3.424   3.798 -0.0290 -0.0088  0.0006
 2914W        W18045   5.472  15.123   4.603 -0.1512  0.0896  0.1756
 2915W        W18046   0.157  15.743  13.713  0.1317 -0.0297 -0.3444
 2916W        W18047   1.131   4.434  14.510 -0.1375 -0.1275  0.0618
 2917W        W18048  10.061  17.162   3.227 -0.0956 -0.2649 -0.0012
 2918W        W18049  13.875  17.130   3.063 -0.2495 -0.1526  0.0094
 2919W        W18050   4.957  13.069  15.921  0.1018 -0.3448 -0.1041
 2920W        W18051   9.246   5.636   0.091  0.0816  0.1304 -0.0368
 2921W        W18052   4.217  17.665   4.315 -0.1289 -0.2876 -0.3759
 2922W        W18053  15.793  10.642   0.603 -0.0544  0.0527 -0.0295
 2923W        W18054  16.060   5.711  13.820 -0.0799 -0.1153 -0.2103
 2924W        W18055  14.235   4.411  13.219  0.0377 -0.3050  0.2548
 2925W        W18056   9.640  16.780   3.520 -0.0498 -0.3118 -0.0794
 2926W        W18057   6.980  13.511   3.486  0.0374 -0.1095 -0.0743
 2927W        W18058   1.613   2.795  14.010  0.0586  0.2869 -0.2152
 2928W        W18059   5.358   6.279  14.932 -0.0896  0.1708 -0.1103
 2929W        W18060  15.302   2.492  16.099  0.1484 -0.0788 -0.1745
 2930W        W18061   2.362   2.332  11.668 -0.0751  0.0234  0.0595
 2931W        W18062  16.446  17.764   1.969  0.1630 -0.0378  0.0208
 2932W        W18063  17.856   5.462  15.789 -0.1007 -0.1278 -0.0367
 2933W        W18064   4.100   6.590   2.988  0.3071  0.4257  0.0516
 2934W        W18065  12.948  17.490  14.338  0.0562 -0.0960  0.4549
 2935W        W18066   2.697  16.368  15.208 -0.3318 -0.0332 -0.1366
 2936W        W18067  17.915   1.224   3.404  0.0057  0.0277  0.4160
 2937W        W18068  12.289   0.734  15.943  0.0103  0.0677  0.1213
 2938W        W18069  15.570   0.551   0.361  0.1261  0.1252  0.1423
 2939W        W18070  17.514   9.275  12.844  0.3248 -0.1263  0.1437
 2940W        W18071  16.724  15.230   0.343  0.0968 -0.0720 -0.1838
 2941W        W18072   0.552   0.315  11.741 -0.4097 -0.2710  0.0790
 2942W        W18073   5.066   2.276   3.674 -0.1080 -0.1712  0.3518
 2943W        W18074   2.398   3.518   1.677 -0.2627  0.3259 -0.1416
 2944W        W18075   6.802   0.983   0.269 -0.0045 -0.0742  0.2002
 2945W        W18076  10.671  12.044  14.719 -0.1426 -0.2023 -0.1782
 2946W        W18077   9.476  13.850   2.417 -0.0061  0.0728 -0.0925
 2947W        W18078   8.641  15.864   3.886  0.1063  0.2226 -0.2363
 2948W        W18079   6.509   3.784   2.867 -0.3428  0.0417  0.1172
 2949W        W18080   4.471   6.589   1.782  0.1864  0.0887  0.1228
 2950W        W18081   1.671   9.640   1.039  0.0770 -0.3103 -0.0216
 2951W        W18082  13.506   9.039   1.460 -0.2743 -0.2123  0.1956
 2952W        W18083  16.236  16.875  12.240 -0.1594  0.2990 -0.2131
 2953W        W18084   7.150   4.536  14.678 -0.1086  0.1940  0.0342
 2954W        W18085  16.542   3.072   4.184 -0.2910  0.0211 -0.1416
 2955W        W18086   8.951  11.309  12.343  0.1520  0.0028 -0.0219
 2956W        W18087   1.391   7.983  15.733  0.2639 -0.1346 -0.1774
 2957W        W18088  15.230  14.645   3.603  0.0087 -0.0147  0.2916
 2958W        W18089   6.760  13.878   3.799 -0.0329  0.0902 -0.0585
 2959W        W18090   9.732   9.524  13.079 -0.0495 -0.1119  0.2085
 2960W        W18091  14.015  15.474   6.460 -0.1339  0.2202  0.3856
 2961W        W18092   4.812  13.009  11.688  0.0859  0.1919  0.1236
 2962W        W18093  10.312   5.943  10.075  0.0637 -0.1842  0.0206
 2963W        W18094   2.586   2.430  11.260 -0.2212 -0.2994  0.0636
 2964W        W18095   4.353   6.840  14.862  0.2930 -0.0486  0.0388
 2965W        W18096  14.868   7.474   0.133 -0.1206  0.2888 -0.0488
 2966W        W18097  15.559   2.732  14.643  0.2959 -0.0129  0.1213
 2967W        W18098   0.307   6.547  14.296 -0.0909  0.0098 -0.2175
 2968W        W18099   9.294   5.987  16.241 -0.2402  0.1895 -0.0905
 2969W        W18100   7.909   0.456  14.807  0.0652 -0.0172  0.1579
 2970W        W18101  14.319  15.302  14.917 -0.0971 -0.3406 -0.0798
 2971W        W18102   9.684   2.621   4.639  0.0318 -0.1063  0.4124
 2972W        W18103  13.668   6.121   4.263  0.3483 -0.0808 -0.0311
 2973W        W18104   1.059  13.693   3.453  0.1571  0.3456 -0.0537
 2974W        W18105   9.689  12.907  12.254 -0.0515 -0.0142 -0.1281
 2975W        W18106   6.333  11.948  13.915 -0.1943  0.0230  0.4057
 2976W        W18107   9.472   4.816  14.464  0.1001  0.2175  0.2303
 2977W        W18108  10.037   5.583  12.832 -0.2377  0.3805 -0.5196
 2978W        W18109   0.128  10.818   1.269 -0.0902 -0.0989  0.1471
 2979W        W18110  14.069   9.706   5.802 -0.0892  0.0760 -0.1915
 2980W        W18111   3.079   2.696   6.015  0.1987  0.1355 -0.2495
 2981W        W18112   8.886   1.970  12.151  0.1349  0.0383 -0.1294
 2982W        W18113  15.258   3.671  12.787 -0.0263 -0.0377  0.0871
 2983W        W18114  11.632   3.615   5.120 -0.2913 -0.1280  0.0313
 2984W        W18115   7.281   6.409  13.708 -0.1157 -0.2414 -0.1713
 2985W        W18116   7.481  17.965  12.364 -0.0664  0.1300  0.0445
 2986W        W18117  12.403   8.323  12.878 -0.0841  0.1418  0.0937
 2987W        W18118   8.945   1.493  12.345 -0.1308 -0.0611  0.1105
 2988W        W18119   0.018  12.337   4.043  0.1303  0.0708  0.0283
 2989W        W18120  14.491  11.746   4.805  0.1861 -0.4821  0.0657
 2990W        W18121   8.839  17.899  14.225 -0.0023 -0.0303  0.2466
 2991W        W18122   0.269  15.366   5.143 -0.2046  0.1483 -0.1757
 2992W        W18123   9.669   9.798   0.948  0.2039 -0.0854 -0.0186
 2993W        W18124  10.495   0.487   3.733  0.3264 -0.0095 -0.1586
 2994W        W18125   3.997   2.517   4.379 -0.0441 -0.0389  0.0949
 2995W        W18126   3.719   7.937   2.702 -0.0249  0.0182  0.0357
 2996W        W18127  13.327  16.420   5.300 -0.1709 -0.0523  0.3856
 2997W        W18128   1.133   1.262  11.522 -0.2194 -0.1940  0.0475
 2998W        W18129  15.218  13.047  13.429  0.3768 -0.1953 -0.0789
 2999W        W18130  12.235  10.938   2.246  0.0655 -0.0465  0.0732
 3000W        W18131  12.959  13.949   2.572  0.0870  0.1758  0.0964
 3001W        W18132   8.672   6.986  14.816 -0.0415 -0.1689 -0.0322
 3002W        W18133  15.516  10.971   2.820  0.2346 -0.2928 -0.0563
 3003W        W18134   6.557  13.748   1.158  0.0193  0.1943  0.1179
 3004W        W18135   4.065  14.358  12.299  0.0495 -0.0483 -0.1587
 3005W        W18136  17.702   6.146   1.441 -0.2989 -0.0302  0.1123
 3006W        W18137   3.321  12.590  15.251  0.0787 -0.1025 -0.2804
 3007W        W18138   1.145   5.584  12.122 -0.1811  0.3938  0.3071
 3008W        W18139  16.973  12.262  11.722 -0.0414 -0.0492 -0.1911
 3009W        W18140   1.107   9.610  15.978 -0.3205  0.1009 -0.2278
 3010W        W18141  17.853  13.513  14.461 -0.1581  0.1167 -0.3523
 3011W        W18142   7.777   8.260   4.314 -0.1037 -0.1846  0.1175
 3012W        W18143   5.836   1.478   4.980 -0.0442  0.3651  0.0001
 3013W        W18144   7.906   3.292   3.474  0.1070  0.2524 -0.0245
 3014W        W18145  17.773   9.615   1.029 -0.2631  0.1872  0.1648
 3015W        W18146  16.186  16.494   3.218  0.0886 -0.1060  0.3479
 3016W        W18147   4.036   8.512  12.058 -0.3718 -0.1132 -0.2787
 3017W        W18148   7.298   7.274   2.847 -0.3080  0.1660 -0.0315
 3018W        W18149  10.028   0.646  13.651  0.2877  0.0065  0.0200
 3019W        W18150  12.795  10.073  12.784  0.0782  0.0163  0.1572
 3020W        W18151  16.695  17.532  11.874 -0.0725 -0.0612 -0.0884
 3021W        W18152  10.492  15.682   4.364 -0.2944  0.1141 -0.0981
 3022W        W18153   8.338   4.563  12.353  0.1418  0.0405  0.0831
 3023W        W18154  14.624   0.476   2.234 -0.1261  0.0096  0.0328
 3024W        W18155   1.965   5.305   5.800 -0.0393  0.0389  0.0383
 3025W        W18156   7.958   1.711  16.177 -0.2573 -0.2331 -0.0105
 3026W        W18157   5.315   4.573  12.887 -0.1033  0.0372 -0.0425
 3027W        W18158  14.460   7.466  15.535 -0.0864 -0.0060  0.2638
 3028W        W18159   6.698  13.170  14.085 -0.0955  0.0516 -0.3441
 3029W        W18160  17.175  11.024  12.872 -0.2081  0.1432  0.3621
 3030W        W18161  11.900   7.241   3.762 -0.0884 -0.2949  0.2196
 3031W        W18162  17.379   6.943   0.513  0.1698  0.1616  0.0531
 3032W        W18163   7.099  15.436   5.762  0.0525  0.0891  0.2191
 3033W        W18164  16.341   3.600   2.322 -0.2676 -0.1748  0.0088
 3034W        W18165   2.482  16.664   5.934 -0.0203 -0.0302 -0.0019
 3035W        W18166   1.628   4.739   3.405 -0.1974 -0.1422  0.0310
 3036W        W18167   9.865  15.177   5.777  0.1649 -0.0320 -0.0753
 3037W        W18168   4.955   0.288   1.387 -0.1332 -0.2581 -0.2856
 3038W        W18169  14.566  15.602  14.243  0.3771 -0.2244  0.1766
 3039W        W18170   2.329   2.558   5.288  0.2539 -0.0433 -0.0045
 3040W        W18171   6.332  16.615  11.755 -0.0508 -0.1366  0.0044
 3041W        W18172   9.204   6.538  14.512  0.0559  0.4280 -0.1313
 3042W        W18173   9.638   5.531  15.218 -0.1260 -0.1396  0.0503
 3043W        W18174  17.002   6.862   3.079  0.0394  0.0823 -0.2981
 3044W        W18175   3.412   5.418  15.972 -0.1148 -0.0243 -0.0993
 3045W        W18176  15.244   6.451  11.474 -0.1724  0.3545 -0.2272
 3046W        W18177  10.162  11.799   1.000 -0.2994 -0.2215  0.0091
 3047W        W18178  17.472  12.295   3.490 -0.1445  0.1159  0.2074
 3048W        W18179   4.660  11.177   3.129  0.0399 -0.1199  0.1581
 3049W        W18180   4.315  10.065  12.199  0.0146  0.1718  0.1867
 3050W        W18181  10.300   4.446  15.567  0.1929 -0.2698  0.1977
 3051W        W18182   5.423   0.640  14.285 -0.1435 -0.2490 -0.0938
 3052W        W18183  12.516   6.259   5.520  0.4110 -0.0496 -0.1297
 3053W        W18184  13.724   4.599  14.847 -0.1119  0.1659  0.0700
 3054W        W18185   2.882   9.544  10.823  0.3004 -0.2706  0.1586
 3055W        W18186   6.834   7.157   1.348 -0.0174  0.1687 -0.0974
 3056W        W18187   9.967   1.325   3.643  0.3623 -0.1752 -0.3351
 3057W        W18188   8.261   0.764  12.748  0.2335 -0.2258  0.1990
 3058W        W18189  17.619  13.046  14.464  0.0370 -0.0142 -0.1544
 3059W        W18190  17.000  15.318  11.824  0.1174 -0.0876  0.1480
 3060W        W18191   9.884   3.892   0.960  0.0662  0.1279  0.4092
 3061W        W18192  16.174  15.868  11.894 -0.0439  0.2742 -0.2280
 3062W        W18193   5.664  13.321  11.436  0.1630  0.1773  0.3286
 3063W        W18194  12.647   7.156  15.430  0.2501 -0.0783 -0.0124
 3064W        W18195  13.986   2.728   4.757 -0.0416  0.1943  0.0795
 3065W        W18196  14.454  15.442   2.331 -0.1580 -0.2818  0.4637
 3066W        W18197  11.096   8.878   5.545 -0.1469  0.0599 -0.3148
 3067W        W18198   2.001  14.096  15.107  0.0616  0.0424 -0.0697
 3068W        W18199   5.375   0.503   3.780  0.0491 -0.0937  0.1829
 3069W        W18200   7.505   0.538   1.802  0.1161 -0.1198 -0.1019
 3070W        W18201   9.006   1.732  15.503  0.3036  0.1163  0.1985
 3071W        W18202   0.557   2.412   2.717  0.1560  0.1405  0.1212
 3072W        W18203  17.203  15.302  14.205 -0.4789 -0.0916 -0.1185
 3073W        W18204   1.748   6.449  13.291  0.2888 -0.0533 -0.1428
 3074W        W18205   8.135   9.207   1.017 -0.0835  0.1453  0.1079
 3075W        W18206   8.736   3.846   0.723 -0.0572  0.4219 -0.0500
 3076W        W18207   9.884   0.410   5.057 -0.0096 -0.2802  0.1947
 3077W        W18208  17.088  14.227  14.443 -0.1502 -0.2029 -0.1537
 3078W        W18209   7.344   4.767  11.167  0.2942 -0.1091 -0.1333
 3079W        W18210  12.571  10.316   3.951  0.3292 -0.0803  0.3821
 3080W        W18211  13.773  13.668  14.480  0.1697  0.2878  0.1353
 3081W        W18212  10.876  17.079   4.089  0.1652  0.1906  0.0122
 3082W        W18213  17.750   7.729   2.969 -0.0039  0.0155  0.0991
 3083W        W18214   7.233   6.072   5.712  0.0205 -0.0189 -0.1558
 3084W        W18215   1.509   3.074  14.682  0.1429 -0.0666  0.1710
 3085W        W18216   7.254  13.327  12.024  0.0541  0.0858  0.4590
 3086W        W18217  10.337  10.083   3.538 -0.0255  0.2211 -0.2887
 3087W        W18218   7.222  17.140  12.184  0.0832  0.0881  0.1275
 3088W        W18219  14.318   3.942  15.402 -0.0085  0.2879 -0.1261
 3089W        W18220   4.052   5.427  12.789 -0.0876 -0.0695  0.1811
 3090W        W18221  17.347   9.286   2.871 -0.0609  0.1286 -0.0523
 3091W        W18222  14.045   6.184   1.601  0.0791  0.1184  0.1524
 3092W        W18223   7.941   0.853  15.107 -0.0524  0.0191 -0.2130
 3093W        W18224   0.404   8.556   1.841 -0.3625 -0.1131  0.0694
 3094W        W18225   7.806   5.169  14.449  0.2335  0.0314  0.2428
 3095W        W18226  13.756  11.438   2.890  0.2926  0.1613 -0.1751
 3096W        W18227  14.322   4.312   5.026 -0.0918 -0.0268  0.0686
 3097W        W18228   2.198   9.329  10.961  0.0733  0.1604  0.1150
 3098W        W18229  12.290  11.632   3.349 -0.0130  0.0210 -0.1845
 3099W        W18230  18.058  17.326  16.341  0.0173 -0.0318  0.0157
 3100W        W18231  12.183  12.327   1.601  0.1429  0.3245  0.0846
 3101W        W18232   8.349  12.313   1.269 -0.1496 -0.0093  0.0260
 3102W        W18233   6.766   9.296  12.030 -0.2882 -0.0290 -0.1899
 3103W        W18234   8.274   5.712  12.161 -0.2888  0.1498 -0.2047
 3104W        W18235   5.912   3.122  15.779  0.0674  0.0819  0.0175
 3105W        W18236   3.608  12.524   1.684  0.0408  0.3219 -0.1862
 3106W        W18237   7.219  13.812   0.467  0.0755 -0.2039 -0.0246
 3107W        W18238  16.919   6.531  15.221 -0.1293  0.2316  0.3332
 3108W        W18239   0.898  14.849  13.804  0.1412 -0.0652  0.2256
 3109W        W18240  15.117   8.933   0.065 -0.1185 -0.2034  0.0914
 3110W        W18241  12.260   1.293   1.591  0.2752 -0.1428  0.1001
 3111W        W18242  18.003   6.457   4.262  0.0712  0.0949  0.0591
 3112W        W18243   8.311  11.855   0.562  0.0125 -0.3021  0.0298
 3113W        W18244  18.077  15.792   2.124  0.3025  0.0723  0.1942
 3114W        W18245  15.911   9.995   2.543  0.2152 -0.5110 -0.2166
 3115W        W18246  10.116  13.983   5.776  0.1122 -0.1364  0.3166
 3116W        W18247  14.003   9.419   2.994  0.1920  0.0748  0.2934
 3117W        W18248  16.464   0.233   4.603  0.0632 -0.3655  0.0583
 3118W        W18249  10.833  15.092  11.899 -0.0922  0.2055  0.1031
 3119W        W18250  10.792   3.983   5.097  0.2537  0.1049  0.2293
 3120W        W18251   4.573  17.808  14.713 -0.4967 -0.0892  0.0209
 3121W        W18252   3.977   4.793  12.877  0.1340  0.1208 -0.1755
 3122W        W18253   2.121   8.178   0.406  0.1231 -0.0715  0.1217
 3123W        W18254  15.140  10.699  12.797  0.0572  0.1440 -0.3681
 3124W        W18255   3.419  13.352   4.925  0.0714 -0.1655 -0.3139
 3125W        W18256  11.896  14.137   3.724 -0.0027 -0.0433 -0.1146
 3126W        W18257   9.127  11.773  11.261 -0.1131  0.3155 -0.3059
 3127W        W18258   3.933   8.698  12.591 -0.0952 -0.0444  0.0715
 3128W        W18259  16.211   9.497  13.403  0.1716  0.0777  0.0339
 3129W        W18260  10.472  10.193  11.089  0.0366  0.0176  0.1087
 3130W        W18261  13.894   6.531  13.050 -0.0782  0.0750 -0.2471
 3131W        W18262   5.681  12.437   5.026  0.0155  0.2615  0.1714
 3132W        W18263  13.020   7.246  11.146 -0.2462 -0.0116  0.2325
 3133W        W18264  14.035  11.216   1.433 -0.0705 -0.4116  0.1283
 3134W        W18265   5.249   6.814  15.908  0.0542  0.1700 -0.3830
 3135W        W18266   1.399   1.412  13.695  0.0280 -0.2433  0.1496
 3136W        W18267  11.414   4.478   5.032  0.1775 -0.0235 -0.1085
 3137W        W18268   9.316  11.037  14.131 -0.0095  0.0021 -0.1527
 3138W        W18269   1.740   7.654  13.010 -0.0756  0.0884 -0.1394
 3139W        W18270   1.449   1.803  15.953  0.0253 -0.1905  0.1816
 3140W        W18271   8.817   1.376   5.926  0.0327  0.4815 -0.1209
 3141W        W18272  13.354   8.828  15.389  0.2547 -0.2926  0.3284
 3142W        W18273   8.915   5.688   2.111  0.0898  0.2331 -0.1286
 3143W        W18274  11.664  16.383  16.410  0.1177  0.0364 -0.2086
 3144W        W18275   3.557  10.035  11.286 -0.0503 -0.1980 -0.1415
 3145W        W18276   3.209   0.471  14.457  0.0749  0.0591 -0.1736
 3146W        W18277   4.053  13.751   3.767 -0.0493  0.3284  0.1101
 3147W        W18278  16.876   0.468  12.484 -0.4401 -0.1036 -0.0792
 3148W        W18279   9.813   4.200   5.156  0.4390  0.0889 -0.1297
 3149W        W18280   8.689  14.760  11.254  0.2375  0.2909 -0.1297
 3150W        W18281  17.357   0.107   4.103  0.0665 -0.0959 -0.2288
 3151W        W18282  14.484  14.312   3.480 -0.0209 -0.1168  0.1563
 3152W        W18283  15.105   2.753   6.569  0.1231 -0.2149 -0.0932
 3153W        W18284  11.871   8.895   0.419  0.1784 -0.1418  0.1612
 3154W        W18285  12.601   5.184   4.589  0.4161  0.0457  0.2788
 3155W        W18286  17.968   0.737   0.038  0.1487 -0.0901  0.1352
 3156W        W18287   9.250  12.601   2.334 -0.2342  0.0443  0.0849
 3157W        W18288  13.063   8.954   1.217 -0.1750 -0.1102  0.1046
 3158W        W18289   4.872  16.124   0.983  0.2651 -0.0106 -0.2806
 3159W        W18290   0.884   9.365   1.310 -0.3309 -0.1853 -0.0478
 3160W        W18291  16.876   3.374  14.818  0.0357 -0.0105  0.0399
 3161W        W18292   5.546   6.865   2.492 -0.0743 -0.0935 -0.4795
 3162W        W18293  12.744  14.755  14.641 -0.3281  0.0689 -0.0236
 3163W        W18294   0.429  17.970  12.974 -0.0395 -0.2334 -0.1414
 3164W        W18295  16.043   9.438  12.927 -0.3000  0.1008 -0.3501
 3165W        W18296   5.267  17.393  14.323 -0.2287  0.0499 -0.0119
 3166W        W18297  11.686  15.222   3.321 -0.2158  0.1945  0.1238
 3167W        W18298   7.761   5.981   4.063  0.2539 -0.0838 -0.1947
 3168W        W18299   6.231   9.446  13.839 -0.3348  0.0365  0.2790
 3169W        W18300  10.989   7.824  11.402 -0.0327 -0.2710 -0.2088
 3170W        W18301   4.677   2.952   4.150  0.4751 -0.1151 -0.0798
 3171W        W18302  15.269   6.386  15.155 -0.1717 -0.1671  0.1394
 3172W        W18303  10.053   1.673   1.914 -0.3198  0.1326 -0.0785
 3173W        W18304  15.913  12.864  12.519  0.3969  0.2069  0.3225
 3174W        W18305  16.129   6.765   2.591 -0.0426 -0.1091  0.0253
 3175W        W18306   5.658   5.411   3.422 -0.1637 -0.2142 -0.0576
 3176W        W18307   1.630   8.293  14.730 -0.1478 -0.0803 -0.1932
 3177W        W18308   5.822  14.877   2.566  0.1738  0.2241 -0.1996
 3178W        W18309   3.371  10.869  12.851  0.1969  0.1210 -0.1882
 3179W        W18310  11.670   5.141   3.912 -0.1000  0.4631  0.0653
 3180W        W18311  10.538   8.807   2.694 -0.1828  0.2628 -0.1532
 3181W        W18312   4.378   0.132   1.433  0.0205 -0.2738 -0.0043
 3182W        W18313   8.181  16.611   4.910 -0.1955  0.1770 -0.1098
 3183W        W18314   8.200   3.424  13.684 -0.1482  0.1989 -0.2837
 3184W        W18315  15.353  15.189  15.248 -0.2947 -0.0133  0.0758
 3185W        W18316  17.534  14.668   1.032 -0.0145 -0.1439  0.3405
 3186W        W18317  11.733   0.340  14.344  0.0162 -0.2076  0.1918
 3187W        W18318   5.338   9.021   0.856  0.1390 -0.1000 -0.1014
 3188W        W18319   1.190  13.230   5.348  0.4026 -0.2292  0.2575
 3189W        W18320   1.044   5.380  14.352 -0.1695 -0.1944 -0.1446
 3190W        W18321   9.634   5.466  11.998 -0.2308 -0.0547  0.1498
 3191W        W18322  17.369   8.040  14.887  0.0497  0.0577 -0.0344
 3192W        W18323  10.901  11.639  14.443 -0.1284  0.2714  0.0682
 3193W        W18324  10.430   8.936  12.849 -0.0273  0.2960 -0.2118
 3194W        W18325   8.684   4.374   0.165  0.0297 -0.2778 -0.0603
 3195W        W18326   7.782   4.307   0.246 -0.0185  0.5015 -0.0785
 3196W        W18327   7.400  13.237  13.490 -0.1577  0.1357  0.0223
 3197W        W18328   7.679   8.154  14.580  0.2087  0.0896  0.0860
 3198W        W18329  16.471  12.814   4.164  0.2600 -0.0891 -0.2213
 3199W        W18330  12.185  14.096   1.839  0.1808 -0.1728 -0.0655
 3200W        W18331   4.546   0.410   3.128 -0.0261 -0.2824 -0.1403
 3201W        W18332   6.738  17.741  12.608 -0.2687  0.1549  0.0928
 3202W        W18333   4.727   9.742  15.479  0.3155  0.2559  0.1022
 3203W        W18334   7.225   9.669   3.823 -0.0960  0.3335  0.0066
 3204W        W18335  16.396   6.417  12.630  0.1305  0.0562 -0.0908
 3205W        W18336  10.296  15.766   3.083  0.1950 -0.0270  0.3017
 3206W        W18337   3.272   3.392   3.805 -0.0360 -0.1679  0.1092
 3207W        W18338   3.749   0.424   1.065 -0.3649 -0.0434  0.1748
 3208W        W18339   6.247  10.481   1.399 -0.0157  0.0653 -0.1555
 3209W        W18340  14.190  11.736  11.261 -0.1594  0.2178  0.1126
 3210W        W18341  12.892   5.113   0.304 -0.1931 -0.1501  0.0068
 3211W        W18342  16.309   2.534  15.722  0.0551  0.0441 -0.1427
 3212W        W18343  12.624   4.630   2.000 -0.0129  0.2767 -0.0375
 3213W        W18344  14.533   0.223   0.683 -0.1740 -0.2466  0.1962
 3214W        W18345   1.622  17.328   4.596  0.1888  0.1979 -0.3490
 3215W        W18346   0.663   5.394  16.315 -0.2155 -0.0797 -0.0596
 3216W        W18347   0.983   8.112   0.203 -0.0729 -0.2028 -0.1590
 3217W        W18348   2.725  16.917   3.904 -0.1204  0.2673 -0.1507
 3218W        W18349  10.642  11.600  14.962  0.0475  0.0568 -0.0300
 3219W        W18350  12.491   9.272  14.415 -0.0428 -0.0177  0.3157
 3220W        W18351   9.741  15.291  14.672 -0.2778 -0.4405  0.2343
 3221W        W18352   7.752  13.625   3.863  0.1704  0.2932  0.1061
 3222W        W18353   1.769   1.996   2.814 -0.2537  0.2336 -0.2260
 3223W        W18354   5.217  11.116  12.402 -0.1220  0.3007  0.0307
 3224W        W18355   4.242  10.919   1.791 -0.0092 -0.0274 -0.0939
 3225W        W18356   4.194  14.514   3.264 -0.1490  0.0276 -0.0133
 3226W        W18357  14.067   8.343  15.288  0.0186  0.0828  0.1053
 3227W        W18358   3.333   7.775  12.371  0.2896  0.2893 -0.2120
 3228W        W18359   2.012   6.417  15.507  0.0844  0.1264 -0.1101
 3229W        W18360   7.730   4.531   4.867 -0.0990  0.0688 -0.2338
 3230W        W18361   4.345   9.402  15.957 -0.0746 -0.2016 -0.2138
 3231W        W18362   6.922   9.614   0.636 -0.2374  0.4345  0.2899
 3232W        W18363   4.125  13.220  15.072  0.0514  0.0059  0.1185
 3233W        W18364  11.930  11.354   1.336  0.1398  0.1325 -0.0879
 3234W        W18365  10.446  11.144   3.780 -0.0699 -0.4145 -0.1675
 3235W        W18366   9.295   2.522  16.454  0.1307  0.0492 -0.1098
 3236W        W18367   1.976  11.677  13.285  0.2188 -0.0499  0.1363
 3237W        W18368  11.960  14.738   0.388 -0.2172 -0.2200 -0.0602
 3238W        W18369  14.225  15.810   3.967  0.4518  0.2272 -0.1970
 3239W        W18370   0.088   5.008  15.751 -0.0384 -0.2778 -0.3192
 3240W        W18371  12.314  14.756   2.601 -0.1593 -0.0260 -0.3051
 3241W        W18372   0.306   8.114  12.633 -0.0155 -0.1508  0.2249
 3242W        W18373   7.392   2.933  12.685  0.3047 -0.0032 -0.0718
 3243W        W18374   1.887  16.112   0.284  0.0940 -0.1676  0.0093
 3244W        W18375   1.958  17.914   5.720 -0.1548  0.2679  0.0241
 3245W        W18376  17.099  14.457  16.338 -0.3658 -0.0354  0.0485
 3246W        W18377  15.643  14.760  11.560 -0.1009  0.3095 -0.1726
 3247W        W18378   9.746   4.412   4.713 -0.1600  0.2426  0.4601
 3248W        W18379   9.406  12.734   2.849 -0.3286 -0.0908 -0.2718
 3249W        W18380   4.079   6.764  11.689  0.0721 -0.0829 -0.2194
 3250W        W18381  17.927   9.678   3.541  0.0872  0.1801  0.0126
 3251W        W18382   5.083   4.652   0.498  0.1743  0.2455  0.0851
 3252W        W18383  16.007  10.031   3.648 -0.1365 -0.0418  0.0636
 3253W        W18384   6.933   4.686  11.623  0.0042 -0.2282  0.3199
 3254W        W18385   4.636  12.687  15.481  0.1076 -0.1579 -0.3951
 3255W        W18386  17.294  14.051   5.809 -0.0933  0.1332 -0.0212
 3256W        W18387  17.477  13.278  12.760  0.3729 -0.0060  0.1162
 3257W        W18388  12.946   9.111   0.192 -0.0360 -0.0737 -0.0873
 3258W        W18389   5.029   5.501  14.723 -0.0079  0.4349 -0.0862
 3259W        W18390  16.275   5.520   0.494  0.2352  0.5102  0.0027
 3260W        W18391  17.715  15.660   2.498 -0.0206 -0.0594 -0.0621
 3261W        W18392   4.537  12.883   2.707  0.0367  0.1445  0.0850
 3262W        W18393   3.207   2.600   5.566  0.2292 -0.0084 -0.1355
 3263W        W18394  14.379   0.354  15.782  0.1623  0.2920  0.5378
 3264W        W18395   6.480   9.230  11.070  0.2822 -0.0721 -0.0918
 3265W        W18396  12.566  14.806  12.571  0.3105 -0.1155  0.0859
 3266W        W18397  17.672  10.778   5.125 -0.1560  0.2299 -0.0995
 3267W        W18398  10.229   6.283   0.608  0.3267 -0.0897  0.1325
 3268W        W18399   9.017  16.503   5.789  0.2386  0.2522 -0.0415
 3269W        W18400  15.158   8.311   5.674 -0.1141 -0.1604 -0.2462
 3270W        W18401   9.604   2.639  14.626 -0.1474 -0.0462  0.1259
 3271W        W18402   4.061   9.068  13.006 -0.0684  0.3685 -0.3506
 3272W        W18403   9.197  10.991  11.120  0.1683  0.0237 -0.2918
 3273W        W18404   3.272   6.757   2.757  0.1238 -0.0719 -0.3368
 3274W        W18405  10.915  10.689   0.614  0.1542 -0.0239  0.2522
 3275W        W18406  17.515  16.119   2.732  0.1152  0.2781 -0.3732
 3276W        W18407   6.098   7.736   0.044  0.1377 -0.3002 -0.1761
 3277W        W18408   0.594  17.940   6.086 -0.1089 -0.0777 -0.0333
 3278W        W18409   8.440   4.597  15.354 -0.0249  0.2312 -0.1300
 3279W        W18410   8.302   7.505  11.022  0.1436 -0.1123  0.1618
 3280W        W18411   4.565  13.682   2.511  0.1760 -0.3972 -0.1575
 3281W        W18412  16.523   8.110  12.556 -0.0942 -0.0176  0.1955
 3282W        W18413  17.732   6.645   0.695  0.2599 -0.1605  0.0455
 3283W        W18414  12.784  10.826   3.965 -0.2813 -0.0421 -0.0616
 3284W        W18415   5.672   5.055  16.214 -0.1717 -0.2855 -0.1051
 3285W        W18416  15.764  11.519  15.138 -0.2513  0.2911  0.0784
 3286W        W18417  15.269  10.658   5.134 -0.3926 -0.2473  0.1052
 3287W        W18418  17.923   9.827   5.208  0.3426  0.4403 -0.3868
 3288W        W18419  10.568  16.844   6.276 -0.0201 -0.0314  0.0137
 3289W        W18420   1.482  11.510  13.636 -0.2902 -0.1323 -0.0251
 3290W        W18421   2.901   0.701  16.347  0.0637  0.1688  0.3033
 3291W        W18422  10.634  16.768   0.404 -0.0569 -0.0830  0.0937
 3292W        W18423   2.034   3.738   4.469 -0.2663 -0.1827  0.3302
 3293W        W18424   8.957   2.516   0.366 -0.0272 -0.0220 -0.0002
 3294W        W18425   6.862   8.185   0.790  0.1993 -0.2798  0.1877
 3295W        W18426   4.691   4.884  11.089 -0.3475 -0.1915 -0.1790
 3296W        W18427   2.394  10.022  14.751  0.2732 -0.1398 -0.0437
 3297W        W18428   1.275   6.088   1.028 -0.2410 -0.2105  0.1991
 3298W        W18429   2.233  11.189   3.486 -0.1411  0.4106 -0.0538
 3299W        W18430  15.795   2.603  15.738  0.3397 -0.0053 -0.0013
 3300W        W18431   9.293  16.284   6.253 -0.3279  0.0380 -0.0932
 3301W        W18432   0.500  17.843   4.978 -0.1265 -0.1179 -0.0789
 3302W        W18433   8.437  12.578  14.256  0.0478 -0.0212  0.2468
 3303W        W18434  18.070  12.063  16.087 -0.2061  0.2442 -0.1085
 3304W        W18435  15.055  14.086  10.622  0.0101 -0.1110 -0.1914
 3305W        W18436   7.578   8.286   2.443  0.2921 -0.1839  0.2078
 3306W        W18437   8.813   7.671   5.032  0.2644 -0.0826 -0.0724
 3307W        W18438   9.983  13.769  13.659 -0.0435 -0.0670  0.0843
 3308W        W18439   1.815   5.547  15.672 -0.3067  0.4709  0.0786
 3309W        W18440   9.331  16.234  11.417  0.3394 -0.1218 -0.0204
 3310W        W18441  14.615   5.222   4.671 -0.0563 -0.3437  0.1758
 3311W        W18442  17.317   9.364  14.569 -0.1351  0.0692 -0.0534
 3312W        W18443   9.840   6.641   0.813  0.0059 -0.1828 -0.2843
 3313W        W18444  12.257   1.477  14.105 -0.2521  0.1580  0.1828
 3314W        W18445   3.926   0.179  13.458  0.1483 -0.2472  0.3184
 3315W        W18446   2.440   2.597   2.644 -0.2642  0.1641 -0.0611
 3316W        W18447  14.376   9.231  12.998  0.1657  0.1470  0.0518
 3317W        W18448   8.711   7.691  12.876 -0.2078  0.1762  0.3878
 3318W        W18449   4.168  13.105  12.320 -0.0108  0.2087 -0.2347
 3319W        W18450  17.243   6.394  14.808  0.0685 -0.0345  0.1396
 3320W        W18451  15.622   2.901  13.449 -0.3086  0.0138 -0.1982
 3321W        W18452   9.414   9.185   1.209  0.1779  0.0186  0.1005
 3322W        W18453   5.575  13.150   4.384  0.0208 -0.0438 -0.1479
 3323W        W18454  17.925   5.104  14.920 -0.1399  0.0217  0.1714
 3324W        W18455  16.048   2.110   2.348 -0.0153 -0.0685  0.1705
 3325W        W18456   3.149   7.533   9.927  0.2805  0.0888 -0.0857
 3326W        W18457  12.262   2.359   0.841 -0.1288  0.0021  0.1754
 3327W        W18458   0.355   2.201  13.038 -0.2070 -0.2758 -0.4029
 3328W        W18459   9.755   5.891  10.875  0.2270 -0.2672 -0.0118
 3329W        W18460   8.517  11.610  15.165  0.0073  0.0489 -0.0007
 3330W        W18461  12.183  10.207  11.542  0.2039 -0.0597 -0.1887
 3331W        W18462   7.142   0.866  15.768  0.1191 -0.6229 -0.1200
 3332W        W18463  15.286  14.437   4.039  0.2900 -0.0920 -0.2272
 3333W        W18464  14.596   7.348  11.772 -0.1197  0.1480 -0.0563
 3334W        W18465   9.533  13.775   3.741  0.0942  0.3826 -0.1226
 3335W        W18466   3.445   9.006   3.600 -0.0884 -0.0419  0.2050
 3336W        W18467   4.619   3.874  13.794 -0.2465 -0.1690  0.1099
 3337W        W18468   5.852  16.528   0.000  0.0304  0.0928 -0.2783
 3338W        W18469  12.711  14.554  16.250 -0.0741 -0.0906  0.2933
 3339W        W18470  15.434   0.873  14.329 -0.0591  0.1413  0.3116
 3340W        W18471   6.508  15.914   5.191  0.0929  0.4227 -0.0589
 3341W        W18472   5.246  14.268   3.096 -0.1220 -0.2173  0.0717
 3342W        W18473   1.486  12.957  12.085  0.0561  0.0476  0.0557
 3343W        W18474   6.262  15.134   2.303 -0.2461  0.1319  0.0071
 3344W        W18475  16.658   9.489   4.733  0.0873 -0.2717 -0.1042
 3345W        W18476  10.897   6.446  11.128 -0.2591  0.0108 -0.0998
 3346W        W18477  10.596  16.374  11.816 -0.1937 -0.0984 -0.3691
 3347W        W18478  13.175  12.679   6.131  0.4923 -0.0003  0.0843
 3348W        W18479   1.703  15.790   2.047  0.0555  0.0361 -0.0864
 3349W        W18480   8.192  15.342  11.268  0.2739  0.2181  0.1354
 3350W        W18481  11.169   3.962   3.698  0.0222 -0.2163  0.4198
 3351W        W18482   2.291   1.364  13.302 -0.1824  0.1235  0.1520
 3352W        W18483   1.830  12.540   4.726  0.3471 -0.0974  0.3013
 3353W        W18484   2.901   3.050  15.579 -0.0172  0.1223 -0.0566
 3354W        W18485   2.808   9.336   0.140 -0.0221  0.0702  0.1048
 3355W        W18486  11.364  11.784  11.183 -0.1774 -0.0118 -0.0027
 3356W        W18487   9.380  15.798  12.764 -0.1297  0.0430  0.0428
 3357W        W18488   4.621   7.921   2.279  0.0742 -0.0648  0.0877
 3358W        W18489   0.788   8.796  15.212 -0.1384  0.0837 -0.1789
 3359W        W18490   0.546  10.999   4.744 -0.2348  0.0426 -0.3100
 3360W        W18491  16.827  13.759   4.645  0.0712 -0.0351  0.0750
 3361W        W18492   7.524   4.649  10.670  0.1515 -0.0535  0.0211
 3362W        W18493  11.442   7.628  11.303 -0.0366  0.2671 -0.2292
 3363W        W18494  17.527  16.801   2.039  0.0260 -0.4007  0.0968
 3364W        W18495   4.565   4.419   1.472  0.0073  0.3433 -0.1892
 3365W        W18496   7.415  15.692   2.661 -0.1840 -0.1157 -0.1875
 3366W        W18497  15.525   1.868  14.354 -0.0017  0.1393  0.1377
 3367W        W18498   2.632   7.654   2.058  0.1620 -0.1284 -0.1851
 3368W        W18499  16.608  12.601  11.843  0.3378  0.3250 -0.3539
 3369W        W18500   7.308   6.344   3.341  0.1114 -0.2050  0.0478
 3370W        W18501  12.928  10.325  15.119  0.0062 -0.0803 -0.3368
 3371W        W18502  16.037   1.738  14.658  0.0331  0.1825  0.0436
 3372W        W18503   7.966   3.549  11.678  0.2483 -0.0852 -0.3987
 3373W        W18504  16.225   3.699  11.264 -0.2001 -0.0866 -0.2166
 3374W        W18505   8.211  14.647   4.788 -0.0272 -0.1625  0.2232
 3375W        W18506  17.448   4.245  11.238 -0.0927 -0.0812 -0.4335
 3376W        W18507   3.492  18.043  16.017  0.2593 -0.2788 -0.0622
 3377W        W18508  14.120   7.140   4.937  0.2207  0.0018  0.2732
 3378W        W18509   2.947  14.088  12.391  0.3972 -0.0762  0.2221
 3379W        W18510  12.001  10.432  13.839 -0.0391  0.4629 -0.0215
 3380W        W18511   5.658   5.763  14.753  0.2284  0.0060 -0.0021
 3381W        W18512   6.102  11.782  15.140  0.0845  0.0746 -0.2677
 3382W        W18513   6.205   9.303   4.004  0.0007  0.0374 -0.1833
 3383W        W18514  11.746  10.779   2.072  0.2110 -0.1223 -0.1096
 3384W        W18515   1.225  11.022  12.921 -0.0232  0.3134  0.2811
 3385W        W18516   0.852   5.012   1.953  0.0699 -0.2931 -0.0540
 3386W        W18517  16.013  10.732   4.085  0.1295 -0.0871 -0.2950
 3387W        W18518  15.740  16.717   3.638 -0.0636 -0.0350  0.2131
 3388W        W18519   1.979  17.605  14.235  0.1314  0.1512 -0.1366
 3389W        W18520   1.056   2.510   2.734  0.1634 -0.2782  0.0938
 3390W        W18521   9.963  11.378  13.286  0.0509  0.1043  0.0282
 3391W        W18522  15.646   0.276  11.829 -0.1112 -0.1745 -0.0370
 3392W        W18523   0.820   9.181  11.595 -0.1991 -0.1300  0.0474
 3393W        W18524  15.882  15.243   1.494  0.1550 -0.0714 -0.1505
 3394W        W18525   7.417   2.637   5.642 -0.0813  0.1311  0.2947
 3395W        W18526  14.634  18.060  14.797 -0.1385  0.0916  0.2073
 3396W        W18527  11.509  11.882  16.040  0.0803 -0.0977  0.1595
 3397W        W18528  13.739  17.026   2.166  0.2900 -0.5230 -0.0486
 3398W        W18529  13.761  10.157  16.323  0.0890 -0.2657  0.0110
 3399W        W18530   3.077  13.046   2.579  0.1194 -0.3362 -0.0725
 3400W        W18531  14.517  16.278  15.004 -0.0836  0.0874  0.0987
 3401W        W18532   5.147   6.961  13.230 -0.0160  0.0285  0.1019
 3402W        W18533  11.227   0.240   0.114  0.0129  0.1982  0.0376
 3403W        W18534   8.435   2.128   4.040 -0.1835  0.4749  0.0017
 3404W        W18535  14.355  11.321  15.732  0.2631  0.1312 -0.1480
 3405W        W18536   6.598  15.616   0.396 -0.2115 -0.0702  0.2276
 3406W        W18537   7.902   2.471  13.596 -0.1117 -0.1632  0.1011
 3407W        W18538   5.962   9.626  15.108 -0.0224  0.2040  0.0376
 3408W        W18539  10.630  15.052  13.772  0.0884 -0.1117 -0.3723
 3409W        W18540  15.396  13.679  12.792  0.0465 -0.0543  0.0821
 3410W        W18541   6.678   9.020  11.630 -0.2199  0.3203  0.0881
 3411W        W18542  14.803  15.390  13.903  0.0125  0.1359 -0.1655
 3412W        W18543   5.444  17.194   2.905 -0.0311 -0.2145  0.2357
 3413W        W18544   5.585   9.359  11.477  0.0276  0.4995 -0.0492
 3414W        W18545   4.495   8.020   0.299  0.0194  0.1164 -0.0539
 3415W        W18546   9.392   8.734  14.297 -0.1463 -0.0980 -0.0402
 3416W        W18547   1.291   0.748   0.159 -0.5427 -0.1014  0.0779
 3417W        W18548   4.583   5.505  11.928 -0.1317  0.0717  0.0075
 3418W        W18549   2.991  10.582  11.398 -0.0406 -0.0209 -0.2525
 3419W        W18550   6.707   3.787   2.131  0.2460  0.0046 -0.0825
 3420W        W18551   8.667   9.133   3.955 -0.3045  0.0426 -0.0340
 3421W        W18552  11.880  12.806  13.349 -0.1954 -0.0714  0.0692
 3422W        W18553   4.696   1.521   1.707  0.2608  0.2031 -0.1418
 3423W        W18554  11.308  16.889   3.767  0.0858 -0.2070  0.2885
 3424W        W18555   5.005   3.931  12.139  0.2119  0.4224  0.0756
 3425W        W18556  11.955   6.467   1.550 -0.1716  0.2623  0.2167
 3426W        W18557   2.485  18.045   4.027  0.0583 -0.0968  0.0673
 3427W        W18558   1.249  10.980   3.011 -0.0781 -0.1737 -0.1025
 3428W        W18559  11.496   4.375   3.431  0.1683 -0.2244  0.1627
 3429W        W18560   6.727  11.388   1.578  0.0822  0.0710  0.1242
 3430W        W18561  17.828  11.806  15.161 -0.3696 -0.0011 -0.0325
 3431W        W18562   8.196  10.900  13.436 -0.0094  0.1168 -0.0897
 3432W        W18563  10.470  13.350   1.736  0.1365  0.0138  0.0673
 3433W        W18564   6.955  17.238   0.755  0.1290  0.3938 -0.0252
 3434W        W18565   8.505   3.651  15.489  0.0892 -0.2421  0.4047
 3435W        W18566  11.712  17.215   5.322 -0.4449 -0.1304 -0.0376
 3436W        W18567  14.562   2.927  10.551 -0.0479 -0.3852  0.2834
 3437W        W18568  16.772  14.677   0.303  0.1770 -0.0395  0.2625
 3438W        W18569   4.456   0.728  11.972  0.0242 -0.0561  0.1717
 3439W        W18570   1.549  14.338  15.120 -0.1538  0.0504  0.0121
 3440W        W18571  15.223   0.060  13.891 -0.0999 -0.1380 -0.1589
 3441W        W18572  13.104  14.106   1.483 -0.1936  0.0542  0.2134
 3442W        W18573  15.724   5.773   5.720  0.1251  0.0755  0.2336
 3443W        W18574   2.324   5.411   0.153  0.1425 -0.1246 -0.4101
 3444W        W18575   0.695   2.893   3.837 -0.0199  0.0217  0.1246
 3445W        W18576  10.048  13.661  15.046 -0.1521  0.0348 -0.1092
 3446W        W18577  13.256  17.949   3.086 -0.0442 -0.0307 -0.2624
 3447W        W18578  16.460  15.033   3.844 -0.2415  0.2075  0.1693
 3448W        W18579   6.348   0.221   0.737 -0.2190 -0.0556 -0.1383
 3449W        W18580   4.214   5.965  14.344  0.2679  0.2079 -0.1622
 3450W        W18581   8.798  18.083   3.152 -0.0969  0.1250 -0.0751
 3451W        W18582  14.198   9.290  13.598 -0.1692 -0.0082 -0.4829
 3452W        W18583  13.479   7.803  15.436 -0.1966 -0.2245 -0.0598
 3453W        W18584   7.343  15.372   1.620 -0.2047 -0.5044  0.0836
 3454W        W18585   4.693  10.332  11.999  0.0153 -0.1334 -0.2528
 3455W        W18586   3.508  16.223  14.024  0.0478  0.2761  0.2191
 3456W        W18587   2.379   5.726   5.152 -0.1012  0.4904 -0.4509
 3457W        W18588   9.903  13.419   0.123  0.3085 -0.0410 -0.2660
 3458W        W18589   0.536   7.021  14.988 -0.0828  0.0089 -0.0437
 3459W        W18590  12.058   6.398   4.972 -0.2441  0.0066  0.0262
 3460W        W18591   4.488   1.022   0.825 -0.1121 -0.4579 -0.2067
 3461W        W18592   3.025   1.487  15.655  0.0045  0.1451 -0.0517
 3462W        W18593  13.645  16.713  11.224  0.1804 -0.2302  0.1791
 3463W        W18594   2.792   1.157   4.650  0.2378 -0.0828 -0.1517
 3464W        W18595   8.075   4.430   1.299  0.2552 -0.1158  0.1801
 3465W        W18596   6.688  16.701   0.343 -0.2247  0.0831  0.0983
 3466W        W18597   5.152   7.036   1.136 -0.1835  0.0576 -0.2307
 3467W        W18598  12.660   1.144   1.913 -0.0333  0.2747  0.0384
 3468W        W18599   1.530   6.011  12.003 -0.1303 -0.0116  0.0293
 3469W        W18600  13.745   8.040  14.967 -0.1947 -0.3283  0.0306
 3470W        W18601  13.717  11.610   3.367  0.3790 -0.1506 -0.1114
 3471W        W18602  14.364  16.051   3.384 -0.2170 -0.1749 -0.1752
 3472W        W18603   6.672  10.149   1.330 -0.1686 -0.3005 -0.0252
 3473W        W18604  14.426  16.037  11.919 -0.0987  0.3562  0.2225
 3474W        W18605   6.223  12.557   2.946  0.1241 -0.1312  0.0099
 3475W        W18606   7.744   5.205  11.883 -0.0953  0.1444 -0.1203
 3476W        W18607   4.745   8.291  14.957  0.1000  0.0364 -0.3240
 3477W        W18608  11.760   3.186   3.173  0.0157  0.0655  0.1829
 3478W        W18609   7.296  12.482  15.213  0.3349 -0.0188  0.1506
 3479W        W18610  11.566  18.062   4.412  0.1782 -0.1781 -0.1226
 3480W        W18611  14.117  15.909  14.241  0.4575 -0.1380  0.0356
 3481W        W18612   1.009  11.494   2.727  0.2243 -0.0543  0.1162
 3482W        W18613  11.840   7.669   1.490  0.2140 -0.2793  0.0051
 3483W        W18614  15.877   5.230  12.458 -0.2744  0.0840 -0.4163
 3484W        W18615  16.661   0.495   0.814 -0.0085  0.1991 -0.0628
 3485W        W18616   5.759   4.723   1.827  0.1492 -0.0117 -0.0063
 3486W        W18617   9.728  12.808   4.040 -0.2200 -0.1346  0.5053
 3487W        W18618   3.860   4.560  16.343 -0.0250  0.2345  0.2731
 3488W        W18619  14.369   0.812  14.716 -0.0394  0.0473 -0.4276
 3489W        W18620   3.278   5.242   5.207 -0.1530  0.0291  0.1031
 3490W        W18621   0.528  15.704  12.550  0.0872  0.3579  0.2589
 3491W        W18622   1.899   3.937   2.455  0.1475  0.0252 -0.0993
 3492W        W18623   9.853   4.225  13.912 -0.3440 -0.4026 -0.3301
 3493W        W18624   1.836   3.618  11.934  0.0344  0.1162  0.1631
 3494W        W18625  14.261   8.205   1.576 -0.1572  0.1499  0.2637
 3495W        W18626   4.061  17.796  13.696 -0.1133  0.1799  0.1630
 3496W        W18627  13.961   6.745  15.480 -0.3003 -0.0649  0.0872
 3497W        W18628  12.877   7.598  14.027  0.1348  0.1558  0.0151
 3498W        W18629  15.349  18.027  15.545 -0.1494  0.0693  0.0315
 3499W        W18630   1.394  16.371   3.419 -0.3668  0.1474  0.0527
 3500W        W18631  13.441  13.943   2.344 -0.1663 -0.1112  0.4541
 3501W        W18632   0.005   8.446  13.960 -0.1365 -0.1750 -0.1113
 3502W        W18633   0.796   6.486   2.066 -0.1951 -0.1955 -0.0914
 3503W        W18634   7.843   1.078   4.268  0.1664 -0.1591  0.1162
 3504W        W18635   2.006   1.298  11.679 -0.0555 -0.0331 -0.0083
 3505W        W18636   1.728   9.888  11.571 -0.2673 -0.2190 -0.1685
 3506W        W18637   3.374  11.887   6.001  0.1291  0.2233  0.0385
 3507W        W18638   3.096  12.217   2.999  0.0624 -0.1497 -0.1099
 3508W        W18639  10.624  15.574   4.808  0.3664  0.1154 -0.1332
 3509W        W18640   8.798  11.398   0.309 -0.3375 -0.3399 -0.2194
 3510W        W18641   4.415   7.445   4.926  0.0103 -0.2657 -0.1730
 3511W        W18642   1.911  16.335   1.333 -0.0107 -0.1268  0.1625
 3512W        W18643  17.033   2.245  13.336  0.0829  0.2703  0.2003
 3513W        W18644  12.590   9.382   3.693  0.0257 -0.1802 -0.1446
 3514W        W18645  15.335  17.255  12.159 -0.2319 -0.2426  0.1292
 3515W        W18646  14.780  16.121   0.059 -0.0874 -0.0481  0.0437
 3516W        W18647  11.745   8.151   3.488 -0.1088 -0.0126  0.3890
 3517W        W18648   4.555   8.968   3.221 -0.1011 -0.1180  0.0947
 3518W        W18649  11.181  17.682   2.352  0.1134 -0.3545 -0.1214
 3519W        W18650  13.784  16.287  15.505 -0.3529 -0.0924  0.0138
 3520W        W18651   4.750  16.313   5.577 -0.2783  0.0746  0.0070
 3521W        W18652   4.235  16.410   5.471  0.0196  0.1638 -0.0668
 3522W        W18653   5.099   3.065  13.530 -0.0929  0.2808  0.1584
 3523W        W18654  17.843   1.005   0.658  0.1640 -0.1276 -0.1735
 3524W        W18655  14.633   6.818   2.042  0.0645  0.0865 -0.1042
 3525W        W18656  13.095  10.819  12.328 -0.0025  0.1224 -0.1396
 3526W        W18657   7.757  16.434   2.266 -0.1228  0.1189 -0.2341
 3527W        W18658   9.706   2.000  13.768 -0.0791 -0.1802  0.1835
 3528W        W18659  10.547   7.970   2.406 -0.2020 -0.2019 -0.0592
 3529W        W18660  10.203   4.678   1.161  0.0274 -0.2832  0.2197
 3530W        W18661  17.787  12.768  13.223  0.0689  0.0550 -0.2499
 3531W        W18662  12.395   3.910  14.435  0.0921  0.2502  0.1541
 3532W        W18663   8.521  16.632  16.124 -0.3829 -0.1935  0.0135
 3533W        W18664   6.088   8.347  12.872 -0.0215 -0.0888 -0.3714
 3534W        W18665   0.323   4.963  11.682 -0.2483  0.0820 -0.0115
 3535W        W18666  14.157  12.924  11.461 -0.0383 -0.0485  0.2101
 3536W        W18667   5.281   2.114   1.202 -0.1678 -0.0601 -0.0618
 3537W        W18668   7.328  10.947   4.142  0.1461  0.1416 -0.0611
 3538W        W18669   9.183   5.336  12.208  0.1906 -0.2134 -0.0849
 3539W        W18670  15.799  17.046  11.970  0.1838 -0.0026  0.2979
 3540W        W18671   5.839   1.198   0.311 -0.1087  0.1849  0.2004
 3541W        W18672  13.444  16.901   3.254  0.5418  0.1455  0.1952
 3542W        W18673   8.713  16.130   0.577  0.0149 -0.0216 -0.0760
 3543W        W18674  11.785   9.915  13.893 -0.3734 -0.0707  0.1130
 3544W        W18675   3.206  10.827   2.280 -0.0603 -0.0495 -0.3157
 3545W        W18676  14.632   4.816  14.592  0.0351 -0.0058 -0.1730
 3546W        W18677   4.760   9.375   2.305  0.1107 -0.1410  0.0808
 3547W        W18678   0.397   4.230   3.927 -0.2830 -0.1354  0.2403
 3548W        W18679   5.404  16.383   2.656 -0.1137  0.1476  0.0107
 3549W        W18680   5.200   1.337  12.031  0.3185 -0.2941 -0.2018
 3550W        W18681   9.047  13.650  12.140 -0.0036 -0.2323 -0.1502
 3551W        W18682   6.976  14.427   4.658 -0.2271 -0.0578  0.4744
 3552W        W18683   5.999   2.722  13.855  0.2589  0.0525 -0.0708
 3553W        W18684  17.853   6.752  10.491 -0.2037  0.1240 -0.0555
 3554W        W18685   9.672  17.132   4.793  0.1670  0.0173 -0.0562
 3555W        W18686   8.661  10.611   2.262  0.1244 -0.5349 -0.0962
 3556W        W18687  11.166   5.305  15.771  0.2809 -0.0127 -0.0753
 3557W        W18688   5.593  10.004   4.196 -0.0119 -0.0423  0.0617
 3558W        W18689  15.329  14.627   3.121 -0.0507 -0.1900  0.3485
 3559W        W18690  13.030  13.480  13.483  0.1523 -0.1383 -0.0010
 3560W        W18691   8.897  12.484   3.679  0.0377 -0.2448  0.1462
 3561W        W18692  12.436  10.098  13.968  0.0916  0.1242  0.1187
 3562W        W18693   6.679  16.914   2.665  0.0718  0.1442 -0.0610
 3563W        W18694   2.394  12.743   3.133  0.2355 -0.5210 -0.4061
 3564W        W18695  14.238   2.382   0.694  0.1176 -0.0567  0.0321
 3565W        W18696   9.138   0.330   3.078  0.1173 -0.0559  0.1958
 3566W        W18697   2.508  12.334   2.263 -0.0130 -0.1586  0.1604
 3567W        W18698   1.990  10.313  15.572  0.2426 -0.2924 -0.0422
 3568W        W18699  10.071   3.457  13.498 -0.2881  0.0716  0.1873
 3569W        W18700  13.194  11.590  14.849 -0.1844 -0.0591  0.0882
 3570W        W18701   9.481   1.068  13.026 -0.1998 -0.0661  0.0641
 3571W        W18702   1.997  12.610   3.430 -0.3872  0.0273 -0.3326
 3572W        W18703   6.689   2.086  13.345 -0.1858  0.0342  0.0090
 3573W        W18704   2.238   7.711  14.573  0.1821  0.4482 -0.2552
 3574W        W18705   1.186   5.017  13.367 -0.0607  0.2915 -0.0759
 3575W        W18706   5.062  13.752  13.603  0.4109 -0.1374  0.0655
 3576W        W18707   2.598   9.357   1.292 -0.0927 -0.3878 -0.2083
 3577W        W18708   6.309  10.612   2.968  0.2263 -0.1638 -0.2627
 3578W        W18709   5.945   0.158  12.660  0.2822 -0.0803  0.2296
 3579W        W18710  10.702  13.650   1.237  0.1583  0.3637 -0.1483
 3580W        W18711   2.829   1.731   5.690  0.0390 -0.2002  0.2869
 3581W        W18712   0.255   6.488  13.829  0.0826 -0.2124 -0.1727
 3582W        W18713  14.052   4.803   5.698  0.1781  0.0389  0.0103
 3583W        W18714  13.635   9.118   5.207  0.2463  0.0157 -0.0564
 3584W        W18715   7.102  10.277  14.361 -0.1348  0.1581 -0.0578
 3585W        W18716   9.329  12.021   5.180 -0.2632 -0.0182  0.1958
 3586W        W18717   5.657  11.435   2.942 -0.0879  0.0446  0.0316
 3587W        W18718   9.708   3.491  12.592 -0.2618 -0.3390 -0.3033
 3588W        W18719  10.430  11.522  12.377  0.0189  0.0346 -0.0505
 3589W        W18720   1.135   4.135  15.378  0.3515 -0.1677  0.3453
 3590W        W18721   0.345  10.999   2.587  0.0944 -0.1352  0.3041
 3591W        W18722  17.979   7.998   4.010  0.0038  0.6519  0.0816
 3592W        W18723   9.492  14.178  15.484 -0.0512 -0.2278  0.1310
 3593W        W18724   5.806   8.727  14.615  0.1798  0.1056 -0.2994
 3594W        W18725   1.805  14.076  12.063 -0.0380  0.1943 -0.0217
 3595W        W18726   6.871   6.123   4.060  0.0210 -0.0126  0.2073
 3596W        W18727   0.871  14.538  11.538  0.3767  0.0904  0.2553
 3597W        W18728   7.320   2.027  16.412 -0.1672 -0.1140 -0.0257
 3598W        W18729  16.133   1.725   4.484 -0.0587 -0.0683  0.0508
 3599W        W18730   6.265  17.631   4.051  0.2097  0.1676  0.1210
 3600W        W18731   7.092   2.040  15.069  0.0815  0.0798 -0.0904
 3601W        W18732   1.783   2.047   4.278 -0.0539 -0.3145  0.1889
 3602W        W18733   9.460   4.460   3.753 -0.2247  0.3189  0.3422
 3603W        W18734   4.818  12.825  12.156  0.1236 -0.0120 -0.0734
 3604W        W18735   4.100  14.053   4.198  0.0633 -0.1398 -0.0668
 3605W        W18736   0.723   3.957   0.863  0.4142 -0.0179  0.1589
 3606W        W18737   3.367   3.038  11.666 -0.0430 -0.0416 -0.2156
 3607W        W18738  15.211   4.405  15.634 -0.2050  0.1706 -0.0883
 3608W        W18739   5.946  11.929  12.974 -0.3598  0.2193  0.0287
 3609W        W18740   6.521  12.495   0.594 -0.2796 -0.3042  0.0279
 3610W        W18741  10.737  11.008  11.078 -0.0124  0.0679  0.0121
 3611W        W18742  13.877  15.514  12.792  0.1368  0.4709 -0.0877
 3612W        W18743  12.280   0.266   4.159 -0.1356 -0.1679 -0.0756
 3613W        W18744  12.568  17.550  14.703 -0.2903 -0.0789 -0.2623
 3614W        W18745   8.002  16.986  15.894  0.0505 -0.2559  0.1206
 3615W        W18746   0.191  17.336   1.639 -0.1532 -0.2323 -0.2053
 3616W        W18747  13.212  17.542  11.120 -0.0486 -0.3396  0.0043
 3617W        W18748  10.014  13.903  14.546 -0.0503 -0.2592  0.1093
 3618W        W18749  10.810   9.589  16.229 -0.1397 -0.0443 -0.1548
 3619W        W18750   2.198   6.245  12.875 -0.1010  0.3691  0.0475
 3620W        W18751  15.969  17.511   4.039 -0.1243 -0.0916 -0.1862
 3621W        W18752   7.375   6.283   3.869  0.1663  0.0220 -0.2153
 3622W        W18753  13.928  10.793  14.265 -0.1125  0.1707 -0.1665
 3623W        W18754   3.493   4.239  13.071  0.2935 -0.0154  0.1412
 3624W        W18755  14.296  10.075   3.392  0.0026 -0.1655 -0.0218
 3625W        W18756   9.499  17.328  16.043  0.2132 -0.0774 -0.0195
 3626W        W18757  16.153  12.000   1.769  0.0774 -0.2483 -0.0548
 3627W        W18758   8.215   9.627   0.709  0.0481 -0.0837  0.2506
 3628W        W18759   8.228   7.903  14.872 -0.1586  0.0298  0.0224
 3629W        W18760  12.757  17.016   2.764  0.1055 -0.0897 -0.0714
 3630W        W18761   6.965   9.051  13.936  0.0037  0.0461 -0.2159
 3631W        W18762  17.932   2.401  12.920 -0.4653 -0.0570 -0.0802
 3632W        W18763   1.599   0.967   3.139  0.1915  0.0913 -0.1263
 3633W        W18764  11.529   3.022  16.141 -0.2163 -0.1522 -0.3488
 3634W        W18765   3.205   9.493   3.701  0.2271 -0.1456 -0.3562
 3635W        W18766  16.081  16.346  13.067  0.2039 -0.3842  0.3712
 3636W        W18767   9.067   4.098  13.124  0.1535  0.0974  0.1823
 3637W        W18768   3.513   4.539  12.687 -0.2783 -0.0465  0.3116
 3638W        W18769   4.599  13.783   1.994 -0.0431 -0.1183  0.0822
 3639W        W18770   8.291  12.662   3.619 -0.1429  0.3218 -0.0068
 3640W        W18771   5.803  12.730  16.272 -0.0755  0.0418 -0.2387
 3641W        W18772  12.889   0.366  12.038 -0.0974  0.1601  0.0575
 3642W        W18773   1.582  13.377   2.216  0.0446 -0.1898  0.0646
 3643W        W18774  12.409   4.389  14.421 -0.1835  0.1271 -0.4468
 3644W        W18775  12.505  17.784  14.167  0.0360 -0.1435  0.1003
 3645W        W18776   8.732   4.490  11.585  0.1062 -0.1967  0.2387
 3646W        W18777   2.800  14.574  16.300  0.1153 -0.1496 -0.2443
 3647W        W18778  15.715   7.920   1.199  0.0483  0.0574 -0.1085
 3648W        W18779  16.959  14.775  15.363 -0.2543 -0.2723 -0.3332
 3649W        W18780  15.774  15.709   4.833 -0.2415  0.0909 -0.0848
 3650W        W18781  10.025   8.365   3.292  0.1050 -0.1376  0.4089
 3651W        W18782   5.466   7.658  13.968  0.0708  0.1027 -0.0445
 3652W        W18783  14.681  17.230   3.715  0.0430  0.0038  0.2302
 3653W        W18784  16.433   0.006   4.186  0.2759 -0.3080  0.0686
 3654W        W18785  16.208   6.691   4.000 -0.3377 -0.0580 -0.4073
 3655W        W18786   4.540  16.436  11.545  0.0680 -0.1898 -0.2077
 3656W        W18787  12.207   3.214  13.228  0.3591 -0.1747 -0.0326
 3657W        W18788   7.519   1.386  10.360 -0.2534  0.2464  0.1833
 3658W        W18789   2.110   3.636  14.667 -0.1672 -0.0449  0.2031
 3659W        W18790   7.120  16.566  16.063 -0.2625 -0.0652  0.3522
 3660W        W18791   8.091   5.655  12.618 -0.1746 -0.2132  0.0657
 3661W        W18792   8.135   8.174   5.280 -0.0044 -0.0547 -0.0972
 3662W        W18793   6.305  12.049   1.860  0.1748 -0.4090  0.0318
 3663W        W18794   3.497   6.356  12.883  0.1160 -0.1283 -0.1552
 3664W        W18795  15.398  10.809  16.101 -0.0333  0.2488 -0.3317
 3665W        W18796   8.408   1.557  13.531 -0.1376 -0.3045  0.0275
 3666W        W18797   7.651  10.141   4.144 -0.2291 -0.1752 -0.2087
 3667W        W18798  14.468   2.110   3.343 -0.1475 -0.1957 -0.0397
 3668W        W18799   9.601   3.058   4.817  0.0069  0.2055 -0.1958
 3669W        W18800  12.479   3.372  12.295 -0.0997 -0.2347 -0.1744
 3670W        W18801  17.013  13.656  16.437 -0.2057 -0.1966  0.2243
 3671W        W18802   0.084  12.231  11.073  0.0732 -0.0795  0.1643
 3672W        W18803   8.833   2.224   2.103  0.1875  0.2659  0.2778
 3673W        W18804   6.616   5.610   6.191  0.1649 -0.0650  0.4983
 3674W        W18805  15.237  13.904   3.715 -0.0442  0.1895  0.1116
 3675W        W18806   5.788   6.119   4.151  0.1115 -0.2537 -0.0820
 3676W        W18807   4.470  12.324  10.538 -0.0580 -0.1382  0.0393
 3677W        W18808   0.569  17.562  11.200  0.1022  0.0713 -0.0809
 3678W        W18809  12.623  11.969   1.517 -0.2266  0.0109  0.1463
 3679W        W18810   0.126   1.201   2.878 -0.0143 -0.1449  0.2796
 3680W        W18811   5.793  11.723   5.014 -0.2770 -0.0912  0.2103
 3681W        W18812   0.678  15.803  11.701  0.4336  0.0318 -0.2531
 3682W        W18813  13.104  16.285  14.143 -0.1156 -0.0397  0.0101
 3683W        W18814   2.708   0.032  11.413  0.0565 -0.0176 -0.2782
 3684W        W18815  13.616  16.336   3.925 -0.1920 -0.2396 -0.0267
 3685W        W18816   2.212  17.624   1.647  0.1092 -0.1517  0.0077
 3686W        W18817   8.807   4.396   0.686  0.1993 -0.0637  0.3058
 3687W        W18818   1.105  15.950  14.801 -0.0969 -0.0203 -0.1208
 3688W        W18819  10.041  17.511   1.354 -0.0732 -0.2048  0.2218
 3689W        W18820   5.576  13.976  15.380 -0.0616 -0.1293 -0.2328
 3690W        W18821  13.645   5.041  16.147 -0.0374  0.0949  0.0563
 3691W        W18822  11.219  10.308  13.370 -0.1901 -0.2518  0.3535
 3692W        W18823   0.315  10.266   1.499  0.1265  0.1951  0.0123
 3693W        W18824  14.858   1.074   3.552  0.1911  0.1298 -0.2711
 3694W        W18825   9.857  10.240  11.798 -0.0109  0.1528 -0.2070
 3695W        W18826  11.228  14.803   5.432  0.0987  0.0624  0.1164
 3696W        W18827  11.323  14.128  11.362  0.1179 -0.0044  0.0292
 3697W        W18828  17.564   8.519  12.972  0.0636 -0.1750 -0.1572
 3698W        W18829  18.030  17.903  13.770 -0.2526 -0.2461 -0.0637
 3699W        W18830  15.412   2.318   3.977 -0.2908  0.2269  0.1400
 3700W        W18831   9.573   9.882  16.084  0.0332 -0.0694 -0.0545
 3701W        W18832   9.688   1.535  12.976 -0.2622 -0.3230 -0.0461
 3702W        W18833  14.357   1.746  14.701 -0.2610  0.0731 -0.1340
 3703W        W18834  11.781   4.116   1.998 -0.1813 -0.1537  0.1449
 3704W        W18835  14.214  13.401   3.114 -0.3150 -0.0491  0.1507
 3705W        W18836   5.511   7.442  12.639 -0.0110  0.0088 -0.0329
 3706W        W18837   8.134   0.484   0.272 -0.1242 -0.0616 -0.2735
 3707W        W18838   5.314   0.041   1.125  0.3225  0.1341  0.1161
 3708W        W18839  11.935   1.014  12.015  0.1247 -0.0818 -0.1328
 3709W        W18840   3.997   1.267   3.860 -0.1448  0.1468 -0.2168
 3710W        W18841  10.035   3.610   1.338  0.4293 -0.4816 -0.0732
 3711W        W18842  16.371  16.717   0.744 -0.2347 -0.0512 -0.1199
 3712W        W18843   0.710  11.554   1.321  0.3056  0.2720  0.1870
 3713W        W18844  13.183   7.947  12.259  0.0914  0.0891  0.2402
 3714W        W18845  17.278   3.260   0.741  0.3578 -0.0053  0.2990
 3715W        W18846  13.485   5.411  14.788  0.1740  0.0684 -0.0586
 3716W        W18847   9.879   7.110  14.298 -0.0144  0.1550 -0.1519
 3717W        W18848   0.845   5.598   1.102 -0.1140 -0.2024  0.0482
 3718W        W18849  14.330  12.901   5.008  0.2024  0.0605 -0.3473
 3719W        W18850   2.708  10.514  10.979 -0.0413  0.0291  0.1456
 3720W        W18851   5.406  10.658  12.373 -0.0122 -0.0722  0.1191
 3721W        W18852   5.993   2.867   5.382  0.0452  0.0869 -0.0946
 3722W        W18853   7.868   5.350  13.943  0.1325  0.1647 -0.0693
 3723W        W18854   0.635   2.766   4.303 -0.3752 -0.1231  0.1344
 3724W        W18855  14.586  13.225   4.442 -0.1989  0.3097 -0.0605
 3725W        W18856  10.990  10.397  11.801  0.0485 -0.2272 -0.4862
 3726W        W18857   8.770   8.333   0.195 -0.0424  0.1632  0.1607
 3727W        W18858   8.535   5.901  11.768  0.1000 -0.0052  0.0751
 3728W        W18859   9.209  17.351  14.526  0.0179 -0.0630 -0.0428
 3729W        W18860   7.623  13.565  11.741  0.0693 -0.1321  0.1869
 3730W        W18861   5.513  12.907  13.256  0.2056  0.0994 -0.1883
 3731W        W18862   3.462  14.330   0.775  0.2465  0.0518  0.1340
 3732W        W18863   4.010   1.010  11.598 -0.2691  0.1473  0.0770
 3733W        W18864   9.809  11.976   2.890  0.2541  0.1527 -0.2098
 3734W        W18865   8.724   5.884  15.385 -0.1996 -0.1673 -0.2565
 3735W        W18866   7.591   0.661   4.150  0.1506 -0.1966  0.0179
 3736W        W18867   8.864  12.174  10.081 -0.1598 -0.0859  0.2189
 3737W        W18868  10.200   2.498  15.861 -0.1288  0.2135 -0.2600
 3738W        W18869   2.226   7.465  14.169 -0.2125  0.2294 -0.2009
 3739W        W18870   1.107   0.150  12.411  0.0073 -0.0059 -0.1410
 3740W        W18871   8.025  12.169   0.872  0.2258  0.0270 -0.2575
 3741W        W18872  11.092  10.849  11.518  0.1317 -0.0447  0.0411
 3742W        W18873  12.245   3.121   3.392  0.0073  0.2527 -0.0997
 3743W        W18874  11.587  16.319   0.426  0.2263 -0.1860 -0.0149
 3744W        W18875  16.464  17.877  13.597 -0.1182 -0.2215  0.0037
 3745W        W18876  15.034   7.300  13.395 -0.0308  0.3387 -0.0433
 3746W        W18877   1.748  13.099   3.329 -0.3623  0.3583 -0.0506
 3747W        W18878  12.171   3.272   3.876 -0.0967 -0.4366  0.0035
 3748W        W18879  17.229   8.859  12.732  0.1025 -0.3985 -0.0033
 3749W        W18880  12.886   1.094  15.704  0.0640  0.0444 -0.0933
 3750W        W18881  12.253  14.395   1.094 -0.0429 -0.0429 -0.2903
 3751W        W18882  12.145  16.578   4.996  0.0899  0.1518 -0.2929
 3752W        W18883  11.930   4.802   2.976  0.0018 -0.0464 -0.1343
 3753W        W18884  10.691   9.775  13.042 -0.1742 -0.0804 -0.3902
 3754W        W18885   9.310   0.029  14.820 -0.0603 -0.2974  0.0519
 3755W        W18886   4.632  17.458  14.337 -0.0277 -0.1482 -0.0212
 3756W        W18887  10.937   7.923   1.096  0.1668 -0.0648  0.0761
 3757W        W18888   9.164   7.970   4.038  0.0932  0.1049  0.0228
 3758W        W18889   5.280  11.205   0.542  0.0196 -0.3253 -0.2827
 3759W        W18890   3.825   9.411  15.241  0.1213  0.1491 -0.0250
 3760W        W18891   4.730   8.262  13.177 -0.1303  0.0783  0.0860
 3761W        W18892  15.471  17.558  11.755  0.4024  0.1618 -0.0847
 3762W        W18893   8.929   9.527  14.268  0.0805  0.1412  0.3533
 3763W        W18894   2.670   7.779   0.102  0.2984  0.2601  0.1817
 3764W        W18895  13.541   1.295   1.988 -0.3112  0.1072 -0.0631
 3765W        W18896   1.779   5.701   3.191  0.4926 -0.1984  0.0040
 3766W        W18897  17.874   9.495   6.598 -0.0551 -0.0580  0.2233
 3767W        W18898   3.593   0.819  14.670 -0.0060  0.0680  0.1699
 3768W        W18899  11.183  16.223   6.256  0.2062  0.0836 -0.2099
 3769W        W18900   9.867   2.622   3.748 -0.2578 -0.0977  0.0191
 3770W        W18901   7.987   8.400  12.024 -0.1751 -0.0583 -0.2360
 3771W        W18902   1.781   4.793   5.876 -0.0088  0.2403 -0.1881
 3772W        W18903   3.799  11.112  15.513 -0.2972 -0.3594 -0.2488
 3773W        W18904   6.437   3.626  13.429  0.0235 -0.0304  0.2291
 3774W        W18905   6.182   8.335  11.380 -0.1189 -0.0391  0.1840
 3775W        W18906  12.387   1.828   2.404 -0.1767 -0.2352 -0.1497
 3776W        W18907   3.716   4.215  14.567 -0.1295  0.2682  0.1453
 3777W        W18908  10.762   9.024  13.329  0.0332 -0.1174  0.3843
 3778W        W18909   8.990  12.787   0.237 -0.0791 -0.3035 -0.0814
 3779W        W18910  14.961   4.172  16.135 -0.1209 -0.3053 -0.1290
 3780W        W18911   9.234   3.036  11.832  0.0453 -0.4241  0.0263
 3781W        W18912   6.447   6.084   6.008 -0.0918 -0.0776  0.2326
 3782W        W18913   5.518  10.445   1.048  0.0291  0.4551  0.1743
 3783W        W18914  16.482  12.405   5.557  0.1565 -0.3292  0.1833
 3784W        W18915   1.225   9.486  11.452  0.0203 -0.1119  0.1633
 3785W        W18916  12.725   5.982  11.236 -0.3236 -0.0829  0.2283
 3786W        W18917   9.144  15.134   4.628  0.2445  0.0663  0.2003
 3787W        W18918   8.759   9.581   1.493 -0.0122 -0.0545 -0.0645
 3788W        W18919   7.427   4.251   4.439  0.1665  0.1611 -0.0269
 3789W        W18920   4.204   0.754  13.543  0.0121 -0.1285  0.0162
 3790W        W18921   6.178   8.347  13.555 -0.1067  0.1110 -0.0173
 3791W        W18922   4.028   5.452   4.176  0.0363 -0.1851  0.2371
 3792W        W18923   1.165   2.638  16.154 -0.0632 -0.0632  0.0509
 3793W        W18924  17.872   0.145  16.071  0.1586 -0.2724 -0.2105
 3794W        W18925  10.993  10.097   0.624 -0.1135 -0.2755 -0.4722
 3795W        W18926  10.184  17.577   0.671  0.2198  0.0441 -0.2223
 3796W        W18927  11.054  15.088  11.041 -0.0611  0.3449 -0.2912
 3797W        W18928  16.679  16.473  12.266  0.0621  0.1663  0.2245
 3798W        W18929  11.786   0.890   4.877 -0.1038 -0.1006 -0.0820
 3799W        W18930   6.290   1.736   3.814 -0.0008  0.2603  0.1861
 3800W        W18931  10.295  13.011  10.435  0.1443  0.0150  0.0775
 3801W        W18932   5.576   1.924   0.252 -0.0098 -0.2630 -0.0034
 3802W        W18933   2.713   7.132  15.063 -0.1187  0.0744  0.1735
 3803W        W18934  14.639   4.004   5.280 -0.0976 -0.4780  0.0816
 3804W        W18935  11.615   5.623   1.253  0.1297 -0.1297  0.0765
 3805W        W18936  17.093   5.949  15.967 -0.2428 -0.1406  0.3295
 3806W        W18937  17.590  13.571  13.718 -0.1985 -0.1347 -0.0799
 3807W        W18938   8.332   1.130   5.991 -0.0687  0.1983  0.0055
 3808W        W18939  15.296   3.302  12.463 -0.0336 -0.1801  0.0103
 3809W        W18940   6.376   2.446  15.633 -0.1024 -0.3029  0.0307
 3810W        W18941   6.789   7.508   1.782  0.0733 -0.1111  0.0120
 3811W        W18942   3.403   7.487  15.750  0.0228  0.0361 -0.0854
 3812W        W18943  17.622   4.006   1.983 -0.2498 -0.1924 -0.0273
 3813W        W18944  17.192   3.265  14.184  0.0774 -0.0528 -0.2098
 3814W        W18945  16.508   8.347  14.705 -0.5158 -0.0329 -0.2681
 3815W        W18946  12.879  14.667  12.959 -0.0837 -0.1867 -0.2605
 3816W        W18947  17.564  15.889  14.753  0.1176 -0.2232 -0.2252
 3817W        W18948  12.867   8.051   2.262  0.0459 -0.0537 -0.1279
 3818W        W18949  10.631   2.974  13.717 -0.0078  0.0059 -0.0436
 3819W        W18950   8.879   7.381  16.339 -0.1966 -0.1443 -0.0242
 3820W        W18951  16.040  16.777  14.237 -0.0083 -0.1052  0.1852
 3821W        W18952   5.047  13.030   4.144  0.1299 -0.1329 -0.0885
 3822W        W18953  12.557  10.992  15.158  0.0585  0.1753  0.0053
 3823W        W18954   0.129   8.521  14.769 -0.0113  0.0512  0.1145
 3824W        W18955   3.187   1.364  13.341  0.2084  0.2681 -0.2553
 3825W        W18956   9.217   0.855  15.939  0.1507 -0.2808  0.0963
 3826W        W18957   7.155  11.796   2.826  0.2459  0.3341  0.1933
 3827W        W18958   8.020  13.750   5.174  0.0564  0.1409  0.1213
 3828W        W18959   9.213  13.412   3.002  0.0755  0.0868 -0.0754
 3829W        W18960   7.769  12.059  11.421  0.2026  0.1933 -0.0397
 3830W        W18961   6.524  11.057   3.857 -0.1116 -0.0087 -0.2139
 3831W        W18962  13.859   8.791  15.545  0.2506 -0.2141 -0.0507
 3832W        W18963  15.079  13.425   5.508  0.1439  0.1076  0.3056
 3833W        W18964   5.297   6.130   3.832  0.2645  0.0973  0.3244
 3834W        W18965   0.916  11.033   1.694  0.0792 -0.0101 -0.3466
 3835W        W18966   6.163   9.962  13.772  0.0575  0.0302  0.1905
 3836W        W18967   0.350   8.681  12.673 -0.0803  0.2366  0.0296
 3837W        W18968   1.153   6.083   2.080 -0.0742 -0.0593  0.1398
 3838W        W18969   9.879  16.815  12.994  0.0704  0.0355 -0.0151
 3839W        W18970   4.834  12.476   2.790 -0.1028  0.0455 -0.2762
 3840W        W18971   3.194  16.058  14.790  0.1383  0.2712 -0.0697
 3841W        W18972   6.250   2.970   3.316  0.1210 -0.1451  0.0621
 3842W        W18973  10.641  14.743  10.426  0.0741  0.0579 -0.1079
 3843W        W18974   8.157  17.450  14.599  0.2260 -0.0881 -0.1232
 3844W        W18975  13.171  13.209  11.544  0.0006  0.1558  0.0890
 3845W        W18976   0.384  14.585   4.375 -0.0996  0.1198 -0.0742
 3846W        W18977  12.242   4.619   5.869 -0.1619 -0.3177  0.1054
 3847W        W18978  11.655   8.089   2.069 -0.0980 -0.0798 -0.0159
 3848W        W18979   6.555   6.355  11.637 -0.0406 -0.0360 -0.1931
 3849W        W18980  15.784   7.685  15.157 -0.0523  0.1755  0.3328
 3850W        W18981  15.946   0.766  14.819  0.0483  0.2605  0.0024
 3851W        W18982   7.688   9.565   0.555  0.0986 -0.0122  0.1717
 3852W        W18983   4.719   0.764   2.256  0.0267 -0.0428  0.1689
 3853W        W18984  10.563   7.825   1.878  0.2088  0.2437  0.1554
 3854W        W18985   1.957  11.350   4.574 -0.0861 -0.1109 -0.1595
 3855W        W18986   6.815   6.612  13.504 -0.3071  0.2124 -0.2829
 3856W        W18987  10.397  16.299  11.061  0.5467  0.1390  0.0485
 3857W        W18988   5.127   4.321  14.080  0.1041 -0.1529 -0.1698
 3858W        W18989  10.243  13.014  10.966  0.1581  0.1315  0.3576
 3859W        W18990   6.268   3.862  15.883  0.1033  0.2397 -0.3956
 3860W        W18991  13.399  15.510   0.126 -0.0330  0.0116  0.0184
 3861W        W18992   3.589   6.407  10.230  0.1310  0.0992 -0.0274
 3862W        W18993   1.640  16.793  14.977 -0.1422 -0.0408  0.1326
 3863W        W18994  10.892   6.268  11.872  0.0647  0.0514 -0.0622
 3864W        W18995  13.781  10.143   0.833  0.1349 -0.0125  0.0100
 3865W        W18996   1.860  12.191  13.190  0.1150 -0.1266 -0.1387
 3866W        W18997   1.645   4.407   2.492 -0.0720  0.2019 -0.2220
 3867W        W18998  11.077   1.886  10.998  0.1904 -0.0873  0.1871
 3868W        W18999   3.446   7.010   0.063 -0.0691 -0.0165 -0.1537
 3869W        W19000  16.402   4.974  14.175  0.1578 -0.0344 -0.1140
 3870W        W19001  14.977   3.550   2.441 -0.0488 -0.0873  0.1953
 3871W        W19002   1.893   6.375   0.989  0.2234  0.2261  0.0748
 3872W        W19003   7.718  15.157  15.550 -0.4175 -0.1084  0.2703
 3873W        W19004   1.265   2.349  11.900 -0.0126  0.0524 -0.0350
 3874W        W19005  12.269  11.197   3.637  0.2993 -0.0803  0.0067
 3875W        W19006  16.165   0.359  15.989 -0.0264 -0.1792  0.0905
 3876W        W19007  16.076  10.759  11.782  0.1391 -0.2284 -0.1665
 3877W        W19008  12.504  15.158   4.330  0.1173 -0.1359  0.1350
 3878W        W19009   1.263  16.171  11.967 -0.0241 -0.3345  0.2802
 3879W        W19010   3.393  14.797  11.907 -0.0185 -0.1411  0.0150
 3880W        W19011   1.661   8.747   5.700 -0.1629  0.0492  0.0891
 3881W        W19012  12.957  10.845  11.097 -0.1439 -0.0021  0.0192
 3882W        W19013   6.232  10.903   0.564  0.2966 -0.2204 -0.0953
 3883W        W19014  10.510   1.245  12.398 -0.2258  0.1323 -0.0049
 3884W        W19015   4.578  16.417   2.623  0.1516  0.0107  0.1698
 3885W        W19016   9.838   1.282   0.277  0.4770 -0.0396  0.0028
 3886W        W19017  16.184   4.177   6.236 -0.0395  0.1514 -0.0259
 3887W        W19018   3.908  12.101  12.979  0.0318 -0.0945  0.4183
 3888W        W19019  11.270  13.948  13.897 -0.1108  0.0841  0.0126
 3889W        W19020   3.222   7.927  14.818 -0.1359 -0.2912  0.0532
 3890W        W19021   6.894  10.632   1.872  0.0709  0.3027 -0.0443
 3891W        W19022   5.582   6.114  16.363  0.1907 -0.0664 -0.0485
 3892W        W19023   9.142   1.331   4.182  0.2204 -0.0900 -0.2412
 3893W        W19024  10.804  14.275  11.384  0.1130  0.1230 -0.0552
 3894W        W19025   6.743  15.138   3.073 -0.1985  0.1424  0.0206
 3895W        W19026   1.150   7.119   6.156  0.1384 -0.3288  0.2898
 3896W        W19027   7.196   3.114   0.691  0.2342 -0.1092  0.1611
 3897W        W19028   1.606   1.384   2.277  0.1162  0.1991  0.1696
 3898W        W19029  16.499  11.691   2.624 -0.0394 -0.0027  0.0794
 3899W        W19030  14.150  17.282   2.282  0.3314 -0.2553  0.2860
 3900W        W19031   8.526   9.825  14.184 -0.2702  0.0297  0.1009
 3901W        W19032   9.321   8.711   4.977 -0.4012 -0.1242 -0.3207
 3902W        W19033  11.665  13.401   3.035 -0.1149  0.0142  0.1914
 3903W        W19034   6.791   6.253  14.618  0.3824  0.1138 -0.3936
 3904W        W19035   4.274   9.281  11.229  0.1314  0.2063  0.2727
 3905W        W19036   9.741   2.441  15.069 -0.3769  0.0787  0.2509
 3906W        W19037  16.978  16.807   5.957 -0.1279 -0.0667 -0.0796
 3907W        W19038  16.884  11.916  12.195 -0.0079 -0.1332 -0.0788
 3908W        W19039   6.778   4.439  15.012  0.0021  0.2033 -0.2232
 3909W        W19040  13.973  17.043  15.049  0.1720 -0.0633  0.0729
 3910W        W19041   1.085   8.155   5.914 -0.2152  0.0987  0.0578
 3911W        W19042   6.257   8.122   1.248 -0.3771 -0.0553 -0.0258
 3912W        W19043  12.151  10.999   4.521 -0.4368 -0.1529  0.1457
 3913W        W19044  15.295   6.835   1.778 -0.0200 -0.2742 -0.0341
 3914W        W19045   9.635   7.422   6.001 -0.0966 -0.1310 -0.2693
 3915W        W19046  15.863   3.840   4.593  0.0730 -0.0507 -0.0572
 3916W        W19047   7.092   1.186  10.630 -0.1486 -0.0970 -0.0949
 3917W        W19048  13.616  14.354   2.820  0.0233 -0.0606  0.1332
 3918W        W19049   1.863  16.247   2.427  0.2396  0.0801 -0.0088
 3919W        W19050  16.612  14.103   0.218 -0.0895  0.2470 -0.1165
 3920W        W19051  13.202   6.440  10.533 -0.2879 -0.2389  0.0523
 3921W        W19052   5.603  11.067   5.456 -0.0298  0.1847  0.0164
 3922W        W19053  14.852  11.583   1.637  0.2460 -0.2655  0.2614
 3923W        W19054   7.118   9.758   2.260 -0.3852  0.1725 -0.1023
 3924W        W19055  14.590   9.476  10.773  0.4608 -0.0520 -0.0903
 3925W        W19056  13.705  13.343   4.256 -0.0604  0.0919 -0.0771
 3926W        W19057  13.644  15.973  12.746 -0.3415 -0.0285 -0.3630
 3927W        W19058   9.889   3.041   0.567 -0.0774  0.2469 -0.2953
 3928W        W19059   6.586  10.706  11.011  0.1658  0.0204 -0.0168
 3929W        W19060   4.623  15.125   0.231 -0.0145  0.2901 -0.2959
 3930W        W19061  12.443  10.965  11.183  0.0319 -0.0141 -0.0565
 3931W        W19062  14.124   5.763   4.076  0.1431  0.0667  0.3269
 3932W        W19063  17.094  12.413  14.444 -0.0193 -0.0582  0.0825
 3933W        W19064   3.274   5.590   0.488 -0.1110 -0.0092  0.1042
 3934W        W19065  17.004   5.054  15.329 -0.2112 -0.1022 -0.1398
 3935W        W19066   0.876  10.335   1.665  0.0144 -0.2291 -0.2325
 3936W        W19067   8.697   2.251   2.623  0.2506  0.1293  0.0662
 3937W        W19068   5.249   3.215   3.440  0.3580  0.2001 -0.4258
 3938W        W19069  17.167  17.995  12.539  0.4014 -0.1770  0.0620
 3939W        W19070   8.123   2.312   1.527 -0.0773  0.1864 -0.0792
 3940W        W19071   3.130  14.345  15.357  0.0352  0.0371  0.0810
 3941W        W19072   8.642  13.932  14.590 -0.0956  0.0155 -0.0119
 3942W        W19073  12.986   1.026  15.161  0.1500 -0.1565  0.0039
 3943W        W19074  16.869  13.346   1.360 -0.0227 -0.2841 -0.3710
 3944W        W19075  13.391  10.179  12.783 -0.0605 -0.2950  0.0789
 3945W        W19076  16.233   6.533   5.096 -0.2215  0.1811 -0.0776
 3946W        W19077  12.118  14.615  14.779 -0.0525 -0.0287 -0.0333
 3947W        W19078   1.778   8.585  11.775  0.0870  0.1001 -0.2752
 3948W        W19079   0.900  13.566  11.875  0.0804  0.1369 -0.0154
 3949W        W19080   5.255  14.581   5.442  0.0890  0.1596  0.1908
 3950W        W19081   7.159  15.581  14.839  0.0629  0.0013 -0.0303
 3951W        W19082  12.630  13.276   5.519 -0.0184 -0.1145 -0.1673
 3952W        W19083  13.194   8.242   0.936 -0.2281  0.0662  0.2552
 3953W        W19084   1.587   9.524  15.876  0.1083 -0.0388  0.1098
 3954W        W19085   3.044   8.391   4.830  0.1304 -0.1540 -0.0345
 3955W        W19086   5.452   9.578   5.839 -0.1917 -0.2514 -0.1268
 3956W        W19087   2.152  16.481  15.029 -0.0483  0.0434  0.1217
 3957W        W19088  16.215  12.692  10.971  0.2620 -0.1304 -0.0717
 3958W        W19089  12.777  11.849  14.757 -0.0774 -0.1233  0.1485
 3959W        W19090   0.801   7.512   2.639  0.1958 -0.2157 -0.2190
 3960W        W19091   8.576   1.659  14.046 -0.0845  0.0813  0.1048
 3961W        W19092  11.856  15.503   2.358 -0.0023  0.0644 -0.0082
 3962W        W19093   4.514  10.523   1.339  0.0117  0.0825  0.1351
 3963W        W19094  16.640  13.410   2.979  0.2392  0.2427  0.2605
 3964W        W19095   9.294   9.689  12.904  0.0131  0.1654  0.2348
 3965W        W19096   0.839   4.949   0.385  0.1681  0.1611 -0.0641
 3966W        W19097  10.113   5.548   2.455 -0.3303 -0.1539 -0.1727
 3967W        W19098   1.786   6.885  10.231 -0.3773 -0.1889 -0.1019
 3968W        W19099  12.565   4.112  13.022  0.2145 -0.0394  0.3010
 3969W        W19100   3.722   8.496   4.478 -0.1839  0.1402  0.0371
 3970W        W19101   8.177   1.409   4.620  0.1166  0.2371 -0.0393
 3971W        W19102  18.075   7.657   5.453 -0.0228 -0.0852  0.3018
 3972W        W19103  15.357  17.689   0.565 -0.1890  0.2846 -0.1391
 3973W        W19104   4.139   5.763   0.825  0.1012  0.0553 -0.2555
 3974W        W19105   5.545   6.612  16.305 -0.0330 -0.0888  0.3315
 3975W        W19106  15.141   4.193   2.441  0.1716 -0.2902  0.3864
 3976W        W19107   1.669  11.051  14.255 -0.0278  0.1532  0.2764
 3977W        W19108   5.823   7.524  16.152 -0.0424 -0.3047  0.0298
 3978W        W19109  14.583   1.499  15.840  0.1997 -0.2311  0.0529
 3979W        W19110   7.130   4.182  14.234  0.1200 -0.0076 -0.2930
 3980W        W19111   6.420  13.409  12.179  0.2648 -0.2815  0.0835
 3981W        W19112  17.855   4.681   1.232 -0.1219 -0.0204  0.1088
 3982W        W19113  17.220   1.035  15.217 -0.0939  0.2898 -0.0126
 3983W        W19114   1.033  10.851  15.593 -0.0063 -0.2408 -0.0922
 3984W        W19115   8.765  10.548  11.785 -0.0352 -0.1790  0.0741
 3985W        W19116   9.742   6.979   2.562 -0.0290 -0.1503 -0.2192
 3986W        W19117   2.673   5.199  13.576 -0.0008  0.0718  0.0211
 3987W        W19118  16.817   7.757   3.178  0.0129 -0.2756 -0.2553
 3988W        W19119  16.617  11.674   0.887  0.1061 -0.4078  0.2996
 3989W        W19120   0.498  11.366   3.448 -0.0119 -0.1462 -0.2399
 3990W        W19121  17.547   3.339  15.947  0.3005 -0.1503  0.0743
 3991W        W19122  13.712   3.937  12.554  0.2870 -0.1534  0.0244
 3992W        W19123   5.691  11.262  12.999 -0.0160 -0.0984 -0.1757
 3993W        W19124   4.679   2.723  10.554 -0.0657 -0.3750 -0.0665
 3994W        W19125  16.397   1.166   2.042  0.1731  0.0731  0.1156
 3995W        W19126   3.007   7.313  15.534  0.0227  0.1983 -0.5207
 3996W        W19127  17.382  15.572   3.487  0.0098 -0.1281  0.4453
 3997W        W19128  10.579   9.845   1.895 -0.1259 -0.2089  0.0060
 3998W        W19129   8.579  15.683  16.180  0.1859 -0.1736 -0.2846
 3999W        W19130  16.741   0.024   2.129 -0.0461 -0.1135  0.0945
 4000W        W19131  16.713   3.204  11.750  0.3288 -0.0177  0.3304
 4001W        W19132   5.033  11.298  14.689  0.0198  0.0782  0.3363
 4002W        W19133   3.324   9.042  16.217  0.1361  0.0119 -0.1050
 4003W        W19134   4.348   4.784   3.004 -0.1276  0.1875 -0.1359
 4004W        W19135   3.013   8.554  14.516 -0.0603  0.0512  0.2174
 4005W        W19136   7.441   7.133   2.372 -0.1165 -0.3247 -0.1394
 4006W        W19137   8.844  16.025   4.489 -0.2720 -0.0528  0.3978
 4007W        W19138   0.334  10.214  14.819 -0.1387  0.4047 -0.0283
 4008W        W19139   4.026   6.882  12.194  0.1351 -0.2038 -0.0306
 4009W        W19140   3.096   7.448   0.795  0.4782  0.0082  0.1011
 4010W        W19141   1.541  18.005  13.699  0.2432 -0.1639  0.2315
 4011W        W19142  16.631  12.106  15.064  0.0868 -0.0189  0.2331
 4012W        W19143  17.071   7.365  12.566 -0.0698  0.0445 -0.1284
 4013W        W19144  12.821   4.939  11.802  0.2113 -0.1662 -0.1781
 4014W        W19145  12.338  12.484   3.302 -0.1903  0.1176  0.0479
 4015W        W19146  15.818   6.472   4.654 -0.2442  0.2600 -0.0620
 4016W        W19147  11.398   0.192   2.577 -0.0942  0.0431  0.2829
 4017W        W19148  17.766   0.308   4.802 -0.1720  0.1536  0.1297
 4018W        W19149  17.661   3.479   4.811 -0.1898 -0.0809  0.1383
 4019W        W19150   0.316   9.779  15.574  0.0121 -0.2174  0.0585
 4020W        W19151   0.687   1.570   4.503 -0.2612 -0.0885 -0.5630
 4021W        W19152  16.616   9.577  15.261 -0.0887 -0.0587 -0.0389
 4022W        W19153  16.646   8.615   1.926  0.0637  0.0905  0.1854
 4023W        W19154  10.811  15.014   4.164 -0.0410  0.1568  0.1646
 4024W        W19155   1.021   5.651  12.571  0.0216  0.3327  0.1687
 4025W        W19156  14.715   9.994  15.920  0.0176  0.1680  0.2326
 4026W        W19157  17.735   7.689  15.776  0.0352 -0.0876 -0.1469
 4027W        W19158   0.970  15.584   5.574  0.0582 -0.0827 -0.1055
 4028W        W19159  10.350  14.891  11.877  0.0504  0.1895 -0.4135
 4029W        W19160   6.790  17.641  10.749 -0.2461  0.0846  0.1077
 4030W        W19161  18.017   5.006  13.254  0.3036  0.1225  0.0362
 4031W        W19162  10.541   9.063  11.867  0.1361 -0.2463  0.0635
 4032W        W19163  17.372   0.850  15.645  0.1049  0.1800  0.0312
 4033W        W19164   6.839  14.193  11.201  0.4770 -0.0430 -0.1288
 4034W        W19165  11.022  11.824  13.968 -0.0415 -0.2399  0.1117
 4035W        W19166  15.217   5.373  15.320  0.0202  0.1478  0.0450
 4036W        W19167   5.931  17.830  10.458  0.5737  0.1221  0.0078
 4037W        W19168  11.284  16.605   2.029  0.1396  0.1287 -0.4014
 4038W        W19169   8.837  11.851  15.983 -0.2227 -0.0255  0.0981
 4039W        W19170   8.618   8.851  14.817 -0.0699 -0.0172 -0.1391
 4040W        W19171   4.617  17.653   0.684  0.0087  0.2644  0.2354
 4041W        W19172   0.807   2.459  12.971 -0.0174  0.0923  0.0728
 4042W        W19173   3.456   3.379  12.517 -0.3510 -0.0281 -0.2827
 4043W        W19174  12.012  14.557  13.940  0.0198 -0.3274 -0.1117
 4044W        W19175   4.374   0.590   1.849  0.1972  0.2529 -0.1768
 4045W        W19176  13.845   1.839  13.590  0.3417 -0.1216  0.1456
 4046W        W19177   3.759  16.876   4.640 -0.0481  0.0392  0.1119
 4047W        W19178   7.555  12.185   1.018 -0.1927 -0.1130  0.0799
 4048W        W19179  13.615  16.117  13.435 -0.1200 -0.1253 -0.0368
 4049W        W19180   8.267  16.373   0.463  0.0117  0.1658  0.1155
 4050W        W19181  15.404  10.486   4.313  0.2822 -0.4317 -0.2929
 4051W        W19182   1.366  15.529   5.117  0.2156 -0.0642 -0.0621
 4052W        W19183  16.265  17.835   1.433  0.4635  0.2007  0.0453
 4053W        W19184   8.745   1.715   4.671  0.0028  0.2331 -0.0850
 4054W        W19185   6.589  17.717   5.733 -0.0048  0.1946  0.0575
 4055W        W19186   2.962   8.381  16.164  0.0733 -0.1045 -0.1235
 4056W        W19187  14.222  12.421  11.554  0.1761  0.2523 -0.0795
 4057W        W19188   8.103   0.997   1.556 -0.0667  0.0126  0.4781
 4058W        W19189  15.164   6.221  15.678 -0.0788 -0.0058  0.2223
 4059W        W19190   4.093   7.282   4.561  0.2182 -0.0498  0.1066
 4060W        W19191   5.293   8.779   0.373  0.0873  0.0538  0.2455
 4061W        W19192  17.676   6.090   0.736  0.0732 -0.2085 -0.0867
 4062W        W19193  12.441  13.772   1.262 -0.0118 -0.2848  0.3813
 4063W        W19194  17.430  12.235  10.392  0.0432 -0.1372  0.1182
 4064W        W19195  17.664  10.524  15.880 -0.1041  0.2915 -0.1235
 4065W        W19196  10.441  17.599  14.181 -0.2234 -0.2052  0.1690
 4066W        W19197  12.348   4.479  13.920 -0.0509  0.0217  0.1341
 4067W        W19198  12.018   2.246  16.199  0.1177  0.3687 -0.2151
 4068W        W19199  16.011   5.161   4.778  0.0196 -0.0974  0.2787
 4069W        W19200   9.730  11.983  15.716  0.1166 -0.0360 -0.1594
 4070W        W19201  15.780  15.006   0.270  0.2904 -0.0712 -0.2463
 4071W        W19202   9.706  15.449   3.144 -0.1846  0.1770 -0.0405
 4072W        W19203  13.423   8.606   3.739  0.3107  0.0544 -0.0911
 4073W        W19204   4.645   5.805  14.522 -0.0016  0.0753  0.0019
 4074W        W19205  13.223  13.292   1.572  0.0398  0.1923  0.1375
 4075W        W19206  16.793  11.224   6.078  0.1231  0.2530  0.0725
 4076W        W19207   0.183  14.477  15.339  0.3061  0.3592 -0.1081
 4077W        W19208   4.609  10.715  11.692  0.0536  0.3572 -0.0196
 4078W        W19209   3.647   7.900   0.590 -0.1363 -0.0013 -0.1996
 4079W        W19210   2.008   0.901  14.854  0.0972 -0.1920  0.2841
 4080W        W19211  18.032   8.337  11.263  0.0367  0.3196 -0.1425
 4081W        W19212   7.029   1.899  11.098  0.0613 -0.2438  0.0074
 4082W        W19213  11.972   7.619   1.956  0.0761 -0.3407  0.1211
 4083W        W19214  10.210  13.103  16.298 -0.0336  0.0663  0.3517
 4084W        W19215   0.598  15.276  10.794  0.0249  0.2547 -0.2608
 4085W        W19216   8.147   8.942  10.944  0.0396  0.1414 -0.0192
 4086W        W19217  17.019   1.980  16.090  0.4088 -0.2472 -0.1580
 4087W        W19218   5.790   4.321   3.876 -0.3000  0.0717  0.0815
 4088W        W19219   0.596   5.341  11.994  0.1787  0.2285  0.2259
 4089W        W19220  17.113  17.416  14.803 -0.2465  0.3566  0.0496
 4090W        W19221   6.581   8.257  14.544 -0.0179  0.0043 -0.0862
 4091W        W19222   9.698   6.321   4.168 -0.2010  0.0241  0.5604
 4092W        W19223  12.394   2.138   0.410 -0.0160 -0.2041 -0.0250
 4093W        W19224   5.290  11.611   2.621 -0.2129 -0.0720 -0.2126
 4094W        W19225   0.343  17.404  15.630 -0.1235 -0.1641 -0.0536
 4095W        W19226  15.378  16.901  12.493  0.1284  0.0474  0.1441
 4096W        W19227  14.248  11.804  14.867 -0.2077  0.1540  0.0643
 4097W        W19228  12.426  11.132   4.152  0.3413  0.0210 -0.1093
 4098W        W19229   5.067  10.709   1.322  0.1216  0.0511  0.0179
 4099W        W19230  14.826  11.973  12.026  0.0660  0.1161  0.0589
 4100W        W19231   3.073  13.665   5.150 -0.3256 -0.2221 -0.0513
 4101W        W19232   5.594  12.379  15.901 -0.0177 -0.2021 -0.2576
 4102W        W19233   1.676   3.901  14.626 -0.1943  0.0828 -0.0186
 4103W        W19234  18.057   5.328  11.585 -0.1422  0.0590 -0.1626
 4104W        W19235   7.860   6.822   1.617  0.0327  0.2357  0.1519
 4105W        W19236  11.457   0.329  12.212 -0.0903 -0.0752 -0.4025
 4106W        W19237   4.988   8.826   2.400 -0.1844  0.2037  0.0953
 4107W        W19238  16.530  10.091  15.173 -0.2945  0.0834 -0.4640
 4108W        W19239  12.132  12.878  11.897 -0.2037 -0.1721 -0.0461
 4109W        W19240   2.349   9.102   4.379  0.0655  0.0153  0.2329
 4110W        W19241   7.616   1.276  10.862  0.0095 -0.2605  0.1494
 4111W        W19242  13.299  12.041  16.396 -0.0010 -0.1682  0.3439
 4112W        W19243  16.016  13.818   5.116  0.1162  0.1184  0.0827
 4113W        W19244   6.700   3.529   4.565 -0.1007 -0.4466  0.0037
 4114W        W19245   5.343  11.080   2.268 -0.4301 -0.1666  0.0426
 4115W        W19246   1.510  15.534   1.091 -0.1323 -0.0150  0.0461
 4116W        W19247   8.190   3.339  11.332 -0.1104  0.2878  0.1092
 4117W        W19248  14.915  13.558   4.969  0.1525 -0.0789 -0.1359
 4118W        W19249   6.221   2.178  10.252  0.0586  0.4807 -0.0836
 4119W        W19250  13.617   3.701   1.580 -0.0604 -0.0680 -0.0956
 4120W        W19251   5.328   5.419  16.260 -0.1267 -0.1025  0.0731
 4121W        W19252   4.130  17.369  14.494 -0.0270  0.1600  0.1740
 4122W        W19253   5.858   0.146  15.205 -0.3137 -0.0919 -0.2482
 4123W        W19254  11.961   8.341  12.486 -0.0901  0.1124 -0.1206
 4124W        W19255   4.232   8.018  16.179 -0.1033 -0.1134 -0.1230
 4125W        W19256  15.883  10.667  15.610 -0.1178 -0.1681  0.1447
 4126W        W19257  12.972  11.174  13.466  0.0365 -0.1838  0.3840
 4127W        W19258  16.403  14.143  15.869  0.0613 -0.2602  0.1318
 4128W        W19259   1.863   4.901  14.666  0.0521  0.1729 -0.2754
 4129W        W19260   2.644  14.952   4.957 -0.0804 -0.1806  0.0968
 4130W        W19261  14.161   9.307  15.274  0.1876 -0.0511  0.5590
 4131W        W19262  17.313  11.733   4.197  0.0841 -0.0995 -0.1276
 4132W        W19263   8.697  10.384  13.752  0.1418  0.1592  0.0987
 4133W        W19264  12.058   7.082   4.566 -0.2320 -0.0736  0.1359
 4134W        W19265   6.778  17.166  11.052  0.3033  0.0332 -0.1225
 4135W        W19266   7.353  13.735  13.346 -0.0843 -0.0003 -0.1121
 4136W        W19267   5.886   7.979  13.814  0.1421 -0.1364 -0.0478
 4137W        W19268   4.709  11.739  15.686  0.0640  0.0242 -0.1767
 4138W        W19269   1.922  10.019   1.335  0.0371  0.0975  0.4130
 4139W        W19270   4.582  11.622   3.958  0.0159 -0.1295 -0.3236
 4140W        W19271   3.998  13.138   0.878  0.1109 -0.0941  0.1287
 4141W        W19272  16.940  15.033   1.573 -0.0364 -0.1174  0.2981
 4142W        W19273   5.960  16.566  11.423  0.0064 -0.0396 -0.2504
 4143W        W19274  18.058   0.731  14.468 -0.1827 -0.0097  0.0591
 4144W        W19275  14.881   8.061  14.411  0.1692 -0.3657  0.1133
 4145W        W19276   8.586  16.129   2.624 -0.2426 -0.1394 -0.2336
 4146W        W19277   9.934   2.401  13.054  0.0838  0.1810 -0.2597
 4147W        W19278  12.873  14.511   3.581 -0.1223  0.0910  0.1194
 4148W        W19279   9.189  16.537  15.663 -0.0653 -0.2064  0.2200
 4149W        W19280   0.742  11.825  11.841  0.1252  0.0556 -0.1182
 4150W        W19281  12.804  13.532   2.237 -0.1964  0.2394 -0.3357
 4151W        W19282  14.878  17.128  10.881  0.1286  0.0200 -0.0785
 4152W        W19283  10.912  12.260   1.397 -0.0012 -0.0780 -0.1741
 4153W        W19284   3.354  15.646  11.234 -0.0190  0.2034 -0.2175
 4154W        W19285   7.211  13.727  12.457 -0.2544  0.1760  0.1194
 4155W        W19286  17.605   2.064  16.028  0.0151 -0.3109 -0.1553
 4156W        W19287  12.901  14.118   5.100  0.3205  0.2225 -0.2455
 4157W        W19288  10.369   9.716  14.802 -0.1861  0.1160 -0.1435
 4158W        W19289   6.982   3.544  10.486  0.0260 -0.0375 -0.2329
 4159W        W19290  10.404   6.476   0.182 -0.3382  0.0406  0.0654
 4160W        W19291   1.560   6.937  15.909 -0.1631 -0.1137  0.4084
 4161W        W19292   2.841  13.309  10.798  0.3114  0.1419  0.1199
 4162W        W19293  13.209  16.803   2.803 -0.1736  0.2178 -0.1524
 4163W        W19294   3.973  11.452  14.054 -0.0106 -0.0330 -0.0009
 4164W        W19295  15.196  17.005  10.486 -0.0925  0.0116  0.1601
 4165W        W19296   5.965   9.560  10.217  0.1325  0.0348  0.2000
 4166W        W19297   0.027   8.140   3.024 -0.2205 -0.2067 -0.0003
 4167W        W19298   4.479  13.067   4.827 -0.0098  0.0732  0.0688
 4168W        W19299   1.557   1.458   4.978  0.1814 -0.0986  0.0054
 4169W        W19300  10.092  11.445  12.720 -0.1995 -0.0398  0.1804
 4170W        W19301  11.785   2.075   4.261  0.1737  0.1126 -0.0402
 4171W        W19302  16.022   1.339  16.275 -0.0559 -0.0512 -0.2012
 4172W        W19303  13.763  18.087  16.446 -0.0440 -0.1827 -0.0306
 4173W        W19304   2.748  17.582   0.888  0.0353  0.2804  0.0365
 4174W        W19305  12.538   7.647   2.250  0.3391  0.1713  0.2517
 4175W        W19306  12.853   7.368   0.788 -0.0868 -0.1842 -0.1643
 4176W        W19307   3.586  13.442   3.242  0.2043 -0.2127 -0.0170
 4177W        W19308   6.850  12.052   3.560  0.0672  0.0679 -0.1011
 4178W        W19309   0.767   3.323   3.066 -0.0611 -0.0050 -0.5841
 4179W        W19310   7.851  16.874  13.035 -0.1526 -0.1305  0.0392
 4180W        W19311  11.611   3.244  13.974  0.0326  0.1318 -0.4525
 4181W        W19312   8.850  17.276   3.666 -0.2086 -0.1999  0.1847
 4182W        W19313  15.189   7.459  15.200 -0.3346 -0.1369  0.2843
 4183W        W19314  14.629   5.089  15.971  0.0157  0.0629  0.1138
 4184W        W19315   5.435  12.726   4.191 -0.0397 -0.0255  0.1369
 4185W        W19316   0.347   8.887  11.228  0.0708 -0.2311 -0.0667
 4186W        W19317   0.177   0.886   3.290 -0.2723  0.1011 -0.0576
 4187W        W19318   6.283  16.257   4.422  0.0492 -0.1637  0.3265
 4188W        W19319   3.842   1.668   4.154 -0.1166 -0.1130  0.2178
 4189W        W19320  11.014  15.452   6.303  0.2079  0.1344 -0.1031
 4190W        W19321   1.551  13.474   3.624  0.0918  0.0606 -0.1192
 4191W        W19322   1.572   0.910  14.388 -0.2328 -0.0045 -0.0234
 4192W        W19323  17.391  10.002   4.659  0.0368  0.3800 -0.0333
 4193W        W19324   7.810   9.057   5.405  0.0327  0.0390 -0.0733
 4194W        W19325  12.182   8.193   0.151  0.0330 -0.0434 -0.2235
 4195W        W19326  17.806  16.601   3.218 -0.0518  0.0057  0.0728
 4196W        W19327  10.605   5.780   1.840 -0.1409 -0.1091  0.0213
 4197W        W19328  14.443  17.983  15.811  0.2871  0.0658  0.1685
 4198W        W19329  13.613  15.409   5.623 -0.0819  0.0745 -0.1899
 4199W        W19330  17.557   7.183  15.633  0.0650  0.0924 -0.5394
 4200W        W19331  10.579   6.021  13.861 -0.0411 -0.2675 -0.1009
 4201W        W19332  10.324  14.093   2.357  0.2534  0.2464 -0.1054
 4202W        W19333   3.032   7.367  11.184 -0.2011 -0.0081 -0.1425
 4203W        W19334  17.624  10.993   5.791 -0.2362  0.0923  0.0521
 4204W        W19335   4.011   7.734   2.338  0.0834 -0.0430  0.0056
 4205W        W19336  11.715  10.488  12.969 -0.1641  0.0782 -0.1601
 4206W        W19337  13.742   8.416   4.591  0.0006 -0.0275  0.1413
 4207W        W19338   2.009  13.184  14.506 -0.1002  0.1466 -0.2304
 4208W        W19339  17.074   9.391  11.802 -0.1144 -0.0774 -0.0704
 4209W        W19340   4.795  13.485  11.591  0.1686 -0.0736  0.1722
 4210W        W19341   5.668   8.697  13.550  0.1096  0.1025  0.3034
 4211W        W19342   8.698   1.785  14.477  0.0027 -0.1207 -0.2365
 4212W        W19343   3.489  16.086   1.732 -0.0544  0.1346  0.0107
 4213W        W19344   5.745  15.992  15.964  0.3664  0.0881  0.1859
 4214W        W19345  13.912   8.804  13.663 -0.1082 -0.0109 -0.1523
 4215W        W19346  10.459  16.897  11.770  0.3243 -0.2698  0.1291
 4216W        W19347  14.148  11.310  15.010  0.0041 -0.0809 -0.1501
 4217W        W19348   8.953   6.649   2.983 -0.2372  0.0625  0.2287
 4218W        W19349   9.617   7.730   1.040  0.1774 -0.2286 -0.2067
 4219W        W19350   0.894  12.496   2.459 -0.4044  0.0413  0.3653
 4220W        W19351   6.226   4.041   2.561  0.0869  0.0279 -0.0549
 4221W        W19352  16.106  14.961  11.596  0.0985 -0.1410  0.1451
 4222W        W19353   0.151   3.883  16.191  0.1170 -0.0709 -0.1652
 4223W        W19354  12.138   7.362   1.303  0.0931 -0.0246 -0.0841
 4224W        W19355  17.448   1.009  12.863  0.0129 -0.0429  0.2398
 4225W        W19356   6.923  15.870   0.061  0.1720 -0.3680 -0.0390
 4226W        W19357  13.939   1.685  12.387  0.1004 -0.0376 -0.1354
 4227W        W19358   0.816  13.926  13.972 -0.0895  0.2317  0.0966
 4228W        W19359   9.905   2.567   0.471 -0.2361  0.3982 -0.2377
 4229W        W19360   5.023  11.679   4.815  0.0084  0.2472  0.0573
 4230W        W19361  16.683   6.766   4.271  0.0237 -0.3863  0.3164
 4231W        W19362   2.012   7.418  12.308 -0.0190  0.0979  0.2537
 4232W        W19363  14.073  10.354   1.634  0.2119  0.2342  0.0327
 4233W        W19364   4.307   8.877  14.435  0.1870  0.0072  0.1836
 4234W        W19365   0.327  11.777   2.738 -0.1575  0.2495  0.1515
 4235W        W19366   5.742   7.629   3.268 -0.0413  0.0179  0.0638
 4236W        W19367   0.056  13.415   1.870 -0.0044  0.0638  0.0784
 4237W        W19368  11.505   3.067  11.326  0.0887 -0.4095 -0.1318
 4238W        W19369   7.260   5.373  11.791 -0.1789 -0.1021  0.1772
 4239W        W19370   6.638  14.678   5.331 -0.1980  0.2772 -0.2667
 4240W        W19371  11.110  17.650  11.424  0.3072  0.1027 -0.1631
 4241W        W19372   3.120   3.513  12.848  0.3506  0.1651  0.3747
 4242W        W19373  13.145  15.211   5.397 -0.2150  0.1161  0.1331
 4243W        W19374   4.040  10.094  15.277  0.2526  0.2406 -0.1973
 4244W        W19375  11.215   1.545   3.162  0.3468  0.0403  0.1976
 4245W        W19376   6.330   1.598   5.900 -0.0518 -0.0059 -0.1260
 4246W        W19377   6.647   7.901  10.426  0.0312  0.1459  0.3054
 4247W        W19378   4.923   1.640   4.843 -0.0195  0.0108  0.6053
 4248W        W19379   8.652  10.809  14.843  0.1515  0.2129 -0.1593
 4249W        W19380  14.142   5.723   1.901  0.0043 -0.2224  0.0353
 4250W        W19381   0.576  15.086   3.685 -0.2699 -0.0498  0.0186
 4251W        W19382   3.313   3.041   1.628 -0.1017  0.0841  0.4496
 4252W        W19383   6.189  10.144  14.272 -0.0090 -0.1157 -0.3706
 4253W        W19384   2.705   3.407  15.258  0.2417 -0.1315 -0.2100
 4254W        W19385   9.666   7.052   3.683 -0.0074  0.0460 -0.2592
 4255W        W19386  14.440   2.067  15.203  0.0793 -0.0128  0.1625
 4256W        W19387  14.657  11.607   3.752  0.1194 -0.1231  0.3474
 4257W        W19388  18.031   9.919  14.796  0.0877  0.0997  0.1879
 4258W        W19389   9.496   4.534  15.021  0.2126  0.1966 -0.1828
 4259W        W19390  14.154   8.120   4.501 -0.0810  0.0036  0.0456
 4260W        W19391  14.437   7.172  13.422 -0.0521 -0.0027  0.0274
 4261W        W19392   5.738   3.277   1.878 -0.1437  0.1532  0.0163
 4262W        W19393   4.388   8.755   3.702  0.2188  0.1748 -0.0176
 4263W        W19394   3.109   8.114  10.783 -0.0175  0.1023 -0.4536
 4264W        W19395   2.675  11.345   3.815 -0.0574  0.1723  0.2255
 4265W        W19396   4.553   1.050   1.699 -0.0064 -0.0567 -0.2355
 4266W        W19397   1.313   5.758   4.894 -0.0632 -0.4706 -0.1401
 4267W        W19398   1.541  12.233   2.926  0.3725 -0.1259  0.4637
 4268W        W19399  14.345   4.787  16.199 -0.1144 -0.0385 -0.1212
 4269W        W19400  15.756   6.340   5.778 -0.1228 -0.1001  0.5778
 4270W        W19401   9.344   1.237  14.714  0.2500  0.0246 -0.2204
 4271W        W19402  10.800   1.189  14.159 -0.3147 -0.2798  0.0837
 4272W        W19403   5.759   3.629  15.782 -0.0414 -0.0611 -0.1745
 4273W        W19404   5.529   4.494   3.392 -0.0953  0.0149 -0.2136
 4274W        W19405  16.751  10.707  13.722  0.1489  0.3153  0.3695
 4275W        W19406   4.566  13.891  15.246 -0.2486 -0.1339  0.0307
 4276W        W19407   2.346   4.381  11.666  0.0314  0.3285 -0.1252
 4277W        W19408  12.055  11.382   4.915 -0.1428  0.0733  0.0082
 4278W        W19409  13.848  14.396  13.026 -0.1547  0.4659  0.0366
 4279W        W19410  13.685   1.062   1.556  0.0104 -0.0567  0.2066
 4280W        W19411   5.559   8.068   2.107 -0.1060 -0.1668  0.0760
 4281W        W19412  10.303  17.616   3.478  0.3299  0.0676 -0.0144
 4282W        W19413  13.022   6.189   1.027 -0.2334 -0.0598  0.0621
 4283W        W19414  11.008   8.364  11.449  0.0133  0.0428  0.0799
 4284W        W19415   7.787  12.719   3.705  0.0015 -0.1257 -0.0380
 4285W        W19416  18.087   7.623  13.252 -0.1408 -0.0229  0.1680
 4286W        W19417   5.011   9.475   0.903  0.5100 -0.0175  0.2299
 4287W        W19418  13.340   7.740  13.209 -0.1297 -0.0837 -0.0068
 4288W        W19419   3.710   7.187   5.509 -0.0228 -0.0267 -0.2893
 4289W        W19420  12.955  13.686  13.981 -0.0516 -0.2616 -0.2685
 4290W        W19421  15.364   5.892  13.023  0.0387 -0.0000  0.4728
 4291W        W19422   5.256  11.100  13.878 -0.1263 -0.1611  0.1595
 4292W        W19423  10.620   1.841  12.388  0.2829  0.0923  0.0700
 4293W        W19424   1.537  10.550   1.297  0.3758  0.2637 -0.1594
 4294W        W19425  16.126  16.066   2.910  0.1822 -0.0449  0.2623
 4295W        W19426  17.370   0.960  14.711  0.1636  0.0637 -0.1584
 4296W        W19427  13.765  15.153   1.747  0.0652 -0.1021 -0.3791
 4297W        W19428   1.196  15.817  13.569  0.0243  0.0763  0.3663
 4298W        W19429  11.689  13.628   0.473 -0.2167 -0.1158 -0.0049
 4299W        W19430   3.546  14.105  11.301 -0.2438  0.1127 -0.2292
 4300W        W19431   1.199  11.349  11.569  0.1703 -0.2105  0.1677
 4301W        W19432  13.094  17.895  15.619 -0.1134 -0.1566  0.0783
 4302W        W19433   4.540   9.287  13.070  0.0260 -0.1505 -0.0209
 4303W        W19434   3.541   7.830   2.207  0.0645 -0.0379 -0.0583
 4304W        W19435  14.276  14.425  12.242 -0.0891  0.3928 -0.0551
 4305W        W19436   7.617   5.549   3.209 -0.0591 -0.1188 -0.2011
 4306W        W19437  12.748   8.177   3.180  0.0998  0.2498 -0.2691
 4307W        W19438  10.827  12.683  12.168  0.0665  0.1401  0.2675
 4308W        W19439  14.487  10.838   4.145 -0.0450 -0.2267 -0.2349
 4309W        W19440   7.282   3.237   2.060  0.2101 -0.0491  0.0985
 4310W        W19441   6.334   5.990  16.419  0.0429 -0.3001  0.3348
 4311W        W19442   8.069  10.767   1.198 -0.0328 -0.1099  0.1643
 4312W        W19443   1.006   2.359   4.544  0.0157 -0.3538  0.2751
 4313W        W19444   6.674  15.954   4.195 -0.3535  0.2723 -0.0781
 4314W        W19445  12.889   7.094  13.948 -0.2411  0.0635  0.0638
 4315W        W19446   7.831   9.158  14.695  0.0596  0.1314 -0.1397
 4316W        W19447  17.610   6.532  14.372  0.1616 -0.1623 -0.0006
 4317W        W19448  11.896  15.179  15.992 -0.2403 -0.1174  0.4399
 4318W        W19449  17.726  17.441   5.066 -0.0326  0.0232 -0.2703
 4319W        W19450   3.620   5.625   2.149  0.0586  0.0624  0.0357
 4320W        W19451  15.462   5.534  11.118 -0.0156 -0.1208  0.1780
 4321W        W19452   4.371   3.763  12.050  0.1028  0.0910  0.4020
 4322W        W19453   0.610  16.521  11.331  0.0572  0.1692  0.3362
 4323W        W19454  18.018   7.220  12.502  0.0946  0.0001 -0.0679
 4324W        W19455   9.149  11.063   1.052 -0.0361  0.0023  0.0146
 4325W        W19456  14.709   6.287  12.704  0.0026 -0.3517  0.1197
 4326W        W19457   3.961   8.058  14.186  0.2074 -0.3189  0.4338
 4327W        W19458  12.445   6.180  14.244  0.0698 -0.1568 -0.1776
 4328W        W19459   5.455  12.899   4.912  0.1751 -0.0376 -0.0239
 4329W        W19460  10.294  17.212   4.792 -0.0701  0.2912 -0.1420
 4330W        W19461  12.301   4.866  15.616 -0.0213  0.1127 -0.1418
 4331W        W19462  12.970   9.167   2.373  0.2269  0.0446 -0.4484
 4332W        W19463  12.297  14.981  15.152  0.0689 -0.2578 -0.1040
 4333W        W19464  11.282  10.725  15.740  0.0443 -0.1993  0.1132
 4334W        W19465  15.297  14.292  12.169 -0.2120  0.0128 -0.3397
 4335W        W19466  12.064  13.275   5.578  0.3056  0.1146  0.1373
 4336W        W19467   4.195   4.816   0.310 -0.0004  0.0369 -0.0444
 4337W        W19468   7.576  12.852   2.617 -0.1070 -0.2567 -0.3151
 4338W        W19469   8.920   2.702  11.515  0.1864 -0.0035 -0.4419
 4339W        W19470   2.844   7.900   1.043  0.1059  0.1148 -0.0901
 4340W        W19471   0.885   6.269   0.284 -0.0211 -0.0420  0.0672
 4341W        W19472   3.906   5.771   3.075  0.0087  0.1615 -0.0929
 4342W        W19473   8.622  15.317   3.189 -0.0550 -0.2835  0.0769
 4343W        W19474   5.813   5.016  10.847 -0.1254 -0.1764  0.1204
 4344W        W19475   6.737  14.595   1.597  0.0748 -0.0815  0.0660
 4345W        W19476   5.727  16.985   4.392  0.0923 -0.0032  0.1161
 4346W        W19477  11.696   6.916   0.298  0.1277  0.1310 -0.1906
 4347W        W19478   3.435   7.429  11.932 -0.1519  0.1568 -0.0683
 4348W        W19479  16.184   4.887  16.060 -0.0613 -0.1181 -0.0930
 4349W        W19480  18.088   4.779  15.333 -0.0771  0.0929 -0.0942
 4350W        W19481  13.978   3.014  13.262 -0.1134  0.0168 -0.2295
 4351W        W19482  11.281  15.527   1.397 -0.1779  0.2360  0.1167
 4352W        W19483   6.412   4.141  15.239  0.1620  0.3058  0.3673
 4353W        W19484  10.257  17.823   4.529  0.2583  0.1123 -0.1292
 4354W        W19485   9.399  16.177  15.922  0.1640 -0.0144  0.1138
 4355W        W19486  10.281  13.156   5.354 -0.0479  0.1337  0.2595
 4356W        W19487  16.887   1.623  11.776  0.4138 -0.0111  0.0920
 4357W        W19488   4.457  16.963  14.441 -0.2488  0.2105  0.2136
 4358W        W19489   4.237  16.904  16.069 -0.1316  0.2737 -0.0235
 4359W        W19490  15.198   4.854  12.195  0.0334 -0.0240 -0.3640
 4360W        W19491   6.958  14.069  15.979  0.0055 -0.1879 -0.1307
 4361W        W19492   3.130   8.874  13.404 -0.4344 -0.1670 -0.0991
 4362W        W19493   1.388  13.546   0.151 -0.1639  0.1218  0.0546
 4363W        W19494   2.508  11.197   0.540  0.0587 -0.0937 -0.0200
 4364W        W19495   6.050  15.588   2.187  0.0808 -0.0846  0.0481
 4365W        W19496  16.138   0.664   4.511  0.1859  0.0609 -0.0448
 4366W        W19497  17.945  12.400   6.727 -0.1660 -0.2167  0.4718
 4367W        W19498  15.063   4.092   3.274 -0.2026 -0.1499  0.0793
 4368W        W19499   1.223   2.601  10.479 -0.1160 -0.3921 -0.0171
 4369W        W19500   5.450   6.445  13.177  0.0690 -0.2359 -0.2402
 4370W        W19501  10.423   2.008   1.936 -0.0086 -0.0205  0.2104
 4371W        W19502  13.765  14.592   1.821  0.0652 -0.2376 -0.0098
 4372W        W19503   1.847   1.790  11.365  0.0840  0.0105  0.0947
 4373W        W19504  13.604   4.747  13.460  0.0504 -0.0796  0.3250
 4374W        W19505  10.867  14.293   5.430  0.2487 -0.1105  0.0534
 4375W        W19506  16.065   7.809  12.428 -0.1196  0.2271 -0.1487
 4376W        W19507   4.044  17.471   0.105 -0.3815 -0.3530  0.3567
 4377W        W19508  15.227  14.703  11.898 -0.0502  0.1846  0.1247
 4378W        W19509   6.168   6.369  13.696  0.0605  0.1208  0.1842
 4379W        W19510  15.709   6.200   3.368  0.0365  0.0461 -0.2438
 4380W        W19511   0.073  13.849   2.082  0.0164 -0.2405 -0.0972
 4381W        W19512  12.980  11.725   2.278  0.2756  0.1508 -0.1910
 4382W        W19513  13.500   0.263  13.349  0.3003  0.1468  0.0734
 4383W        W19514  15.677  13.755  14.063 -0.1213 -0.0441  0.3248
 4384W        W19515   7.854  10.073   4.980  0.4292 -0.3392 -0.2522
 4385W        W19516  15.008   2.898  14.729 -0.5381 -0.3886 -0.3030
 4386W        W19517  15.604  13.160  14.825  0.1730  0.0155  0.2921
 4387W        W19518   6.926   3.019   1.187  0.0378  0.0544 -0.0909
 4388W        W19519  17.472   6.574   1.729  0.2124  0.4378  0.1028
 4389W        W19520  16.532  16.313   2.030 -0.2386  0.4479  0.1360
 4390W        W19521   5.101   1.507   0.436  0.0401 -0.1550  0.1460
 4391W        W19522  12.777  10.939  12.748 -0.1991 -0.1990 -0.0854
 4392W        W19523   7.112   1.354   3.611  0.0849 -0.0425 -0.1075
 4393W        W19524   0.029   7.098   1.442  0.3749  0.0487 -0.0081
 4394W        W19525  10.861   6.323   1.112  0.4048 -0.1423 -0.1642
 4395W        W19526  16.607   6.162   1.826  0.6742  0.3024  0.1106
 4396W        W19527   9.308   1.659   1.327  0.0865 -0.2039 -0.0885
 4397W        W19528   0.481   5.272   0.344  0.0025 -0.1826  0.0661
 4398W        W19529  15.545   1.058  14.854  0.3167  0.3577  0.3347
 4399W        W19530  13.378  11.173   1.781  0.1092 -0.0696  0.2447
 4400W        W19531   2.991  10.418   2.507 -0.1961  0.0760  0.0749
 4401W        W19532   0.357   3.901  15.205 -0.1435 -0.0034 -0.1497
 4402W        W19533  10.665   5.884  14.389 -0.0085  0.1289 -0.0103
 4403W        W19534  15.269  11.177  12.177  0.4127  0.0943 -0.0013
 4404W        W19535   5.418  15.548   2.518  0.0902  0.1130 -0.0547
 4405W        W19536   6.667  11.783   2.499  0.1139  0.2086  0.2575
 4406W        W19537  12.672   1.573   2.803  0.2242 -0.0633  0.2777
 4407W        W19538   3.333  16.101  13.415 -0.0670 -0.0827  0.0095
 4408W        W19539  10.323  16.874  15.217  0.3037 -0.1005 -0.0437
 4409W        W19540   8.594   5.682  15.883 -0.0688  0.1735 -0.1376
 4410W        W19541  12.600   2.913   4.894 -0.1840 -0.1675  0.1624
 4411W        W19542   8.650  14.392   0.963 -0.2302  0.0115  0.2562
 4412W        W19543  16.428  14.389   3.188  0.1849  0.0904 -0.1169
 4413W        W19544   0.624   9.319  15.606  0.0815  0.0785 -0.2475
 4414W        W19545   5.159   1.743  11.654  0.3905  0.2119  0.1381
 4415W        W19546  11.737   4.193  13.123  0.2468 -0.0061  0.2542
 4416W        W19547   5.977   9.415   3.159 -0.0462  0.2590 -0.0540
 4417W        W19548   4.410  10.851   4.811 -0.0739  0.1893 -0.1625
 4418W        W19549   3.022   4.257  15.077 -0.1912  0.0058  0.0532
 4419W        W19550  13.683   2.155   5.231 -0.1923  0.2282 -0.1273
 4420W        W19551   5.724   2.497  12.807  0.0007  0.1504 -0.1323
 4421W        W19552  12.125  15.747  11.574 -0.0579 -0.0643 -0.1945
 4422W        W19553   8.839   6.501  14.908  0.2095 -0.3660 -0.0163
 4423W        W19554   6.180  15.982   0.441  0.1310 -0.0180  0.1310
 4424W        W19555   5.788   4.819   2.553 -0.2875  0.0372  0.2388
 4425W        W19556   8.408   1.401   0.699 -0.0400 -0.0233 -0.0941
 4426W        W19557   2.964   2.975   0.926 -0.2167  0.0770 -0.3601
 4427W        W19558   9.603   2.476   1.980  0.0992  0.0111  0.0255
 4428W        W19559  11.435  15.752   2.457  0.2201 -0.2162  0.0545
 4429W        W19560  14.189  11.832   5.296  0.0666 -0.0493 -0.0960
 4430W        W19561   6.206   4.014   3.943 -0.2513  0.1292  0.0981
 4431W        W19562  16.396   2.408  13.803  0.0490  0.3033  0.1678
 4432W        W19563   2.579   0.442   1.687 -0.1597  0.2649 -0.4888
 4433W        W19564  17.995   6.289   1.020 -0.0024  0.0849 -0.1769
 4434W        W19565   1.421  11.702   2.987  0.2916 -0.1896 -0.2426
 4435W        W19566   9.811  15.369   6.329 -0.0028  0.0407  0.0128
 4436W        W19567  17.486   7.999  12.779  0.0741 -0.0088  0.0086
 4437W        W19568  11.293  12.323  15.917  0.0931 -0.2489  0.0141
 4438W        W19569  10.440   0.669  11.221 -0.1654  0.0090  0.0848
 4439W        W19570   0.196   8.743   4.778 -0.2185  0.4712  0.3730
 4440W        W19571  11.116   1.355  13.642  0.1942  0.1965 -0.0393
 4441W        W19572  15.183   3.387  14.040 -0.2067 -0.3007  0.0857
 4442W        W19573  17.078  17.638  16.240  0.0486 -0.3634 -0.0346
 4443W        W19574  10.076  14.528   6.465 -0.0148  0.1257 -0.1112
 4444W        W19575   2.680   7.763   4.343 -0.0086  0.1079 -0.0176
 4445W        W19576   0.612   1.628   5.858  0.2654  0.0435 -0.1283
 4446W        W19577   3.201  13.597  14.908  0.1546 -0.2311 -0.1562
 4447W        W19578  11.204  13.766   0.656 -0.0910 -0.0368  0.2684
 4448W        W19579  14.640  10.790  15.864 -0.1372  0.1676  0.1259
 4449W        W19580  12.059   0.273   3.266 -0.0867  0.0254 -0.1819
 4450W        W19581   0.816   7.459   1.676 -0.1014 -0.0595 -0.1074
 4451W        W19582   9.819  15.883  13.141  0.0569  0.1542  0.1238
 4452W        W19583   5.752  12.448   1.336 -0.2202 -0.0729 -0.0560
 4453W        W19584   0.016   0.163  11.710  0.2217  0.1866 -0.1526
 4454W        W19585  16.231  13.671  13.311  0.1918  0.1912 -0.0846
 4455W        W19586   1.010   3.241  13.315 -0.1167  0.0638  0.0091
 4456W        W19587   5.968   7.877  15.131 -0.0937  0.3838  0.1840
 4457W        W19588   6.606   0.150   1.540  0.1121  0.0388  0.2949
 4458W        W19589  12.024   8.396   4.668  0.0891  0.0808  0.0495
 4459W        W19590  12.109  12.093   2.506 -0.0300  0.0889  0.1646
 4460W        W19591   3.346  16.059   4.361 -0.1411 -0.0798  0.2046
 4461W        W19592   4.725  13.509  15.992 -0.0644 -0.2852  0.1870
 4462W        W19593  14.108  13.090  15.300 -0.2499 -0.1950  0.1084
 4463W        W19594  13.310   0.154   0.166 -0.2854 -0.2039 -0.3600
 4464W        W19595  10.141   2.370   4.910  0.2649  0.0798 -0.2757
 4465W        W19596  11.400   2.906   4.404  0.1925 -0.0993 -0.0035
 4466W        W19597  13.498   0.126   1.445  0.1759  0.2506 -0.2040
 4467W        W19598  11.447  17.391   3.299 -0.2881  0.0424  0.3484
 4468W        W19599   4.849   5.150   4.654  0.1443  0.2811  0.0422
 4469W        W19600  15.914  11.026   5.609 -0.0797 -0.0464 -0.3264
 4470W        W19601   4.729  17.156  11.158  0.2479 -0.0383 -0.1273
 4471W        W19602   7.990   4.871   4.687  0.2940 -0.0178 -0.1245
 4472W        W19603   0.206  15.315   3.952 -0.1023 -0.3613  0.3951
 4473W        W19604   5.628  10.483  11.921 -0.2625 -0.1721  0.0832
 4474W        W19605   7.965  15.054  12.725 -0.2478 -0.1229  0.0390
 4475W        W19606   3.752   5.329   1.713 -0.0459 -0.0890  0.0953
 4476W        W19607   8.758   9.450  12.842  0.2310  0.0003 -0.1217
 4477W        W19608   6.766   5.813   3.100 -0.2861  0.0514  0.1218
 4478W        W19609   1.150   4.523  12.310  0.1909 -0.1447  0.0116
 4479W        W19610   2.660   8.708   3.331 -0.1726  0.0980  0.0087
 4480W        W19611   4.356   5.499  14.182  0.2221  0.2959 -0.0163
 4481W        W19612  10.594   4.831  11.083  0.0771 -0.0027  0.1462
 4482W        W19613  17.935   3.438  11.892 -0.2889 -0.0444  0.1425
 4483W        W19614  12.286  18.057  16.336 -0.0530 -0.2940 -0.1683
 4484W        W19615   3.575   0.010  10.773  0.0194 -0.0311  0.1128
 4485W        W19616   5.102   0.123   3.399  0.1229  0.1061 -0.0256
 4486W        W19617  13.326   9.288  12.065 -0.0832 -0.1578  0.1005
 4487W        W19618   3.836   8.928  16.089 -0.2134 -0.2057 -0.0774
 4488W        W19619  13.189  17.486  16.338 -0.0145 -0.2361  0.0501
 4489W        W19620  17.647   1.703   3.253  0.2253 -0.0982  0.0245
 4490W        W19621  12.859  15.669   4.144 -0.0737  0.1437 -0.1377
 4491W        W19622  15.881   9.107   3.161 -0.1490  0.1160  0.2496
 4492W        W19623   8.981   5.706  10.747  0.1857  0.0824  0.1948
 4493W        W19624  10.636  12.517   3.724  0.0016  0.0517 -0.0852
 4494W        W19625   6.983   2.951  11.863  0.0104  0.1612  0.2570
 4495W        W19626  13.317   7.284   0.535 -0.0358 -0.0142 -0.1359
 4496W        W19627   6.572  11.295   2.512  0.2833 -0.1323  0.0857
 4497W        W19628  16.946   8.761  14.809  0.1525  0.1314 -0.0467
 4498W        W19629  15.075   1.311  11.024  0.2413 -0.1604 -0.1007
 4499W        W19630  17.858  12.151  10.646  0.2590 -0.0865 -0.7314
 4500W        W19631   9.395   1.362   5.957 -0.1053  0.0288  0.1449
 4501W        W19632   1.976  17.238   0.261 -0.0498 -0.1952  0.1851
 4502W        W19633  11.436  15.665   3.548 -0.0882 -0.0351 -0.3799
 4503W        W19634  16.665   8.800   3.640  0.1850 -0.0496  0.0791
 4504W        W19635   4.074  15.593  14.511  0.0603  0.2198  0.0564
 4505W        W19636   2.517   0.042   5.082 -0.0934 -0.1953  0.1831
 4506W        W19637  12.032   6.743   2.008 -0.1145  0.1853 -0.1014
 4507W        W19638   3.390   3.480  15.866  0.4157  0.3085 -0.0617
 4508W        W19639   5.737  16.671  16.011 -0.1849 -0.2023 -0.0235
 4509W        W19640   7.985   7.329  14.493  0.2881  0.4041  0.2476
 4510W        W19641  17.300   7.785   5.250  0.1901 -0.2170 -0.1754
 4511W        W19642   8.415   8.350   3.429  0.3961 -0.3572  0.0605
 4512W        W19643   3.911   4.683  10.155  0.1857  0.0318 -0.1434
 4513W        W19644  10.403   7.589  11.693 -0.3301  0.1408  0.1131
 4514W        W19645  14.636  13.891  13.832 -0.0780  0.0515  0.0798
 4515W        W19646   5.064   0.558   0.324  0.3301 -0.2877  0.2994
 4516W        W19647  13.869  11.678  16.454 -0.1347  0.0425 -0.0307
 4517W        W19648   5.678   3.026   4.715  0.2711 -0.0447 -0.1915
 4518W        W19649   4.796   9.024   0.785  0.0562 -0.5632  0.0773
 4519W        W19650   2.986   9.621  15.077  0.0988  0.2951  0.2825
 4520W        W19651   1.786   6.503   2.254 -0.0681  0.1636 -0.2796
 4521W        W19652  13.241  13.258   0.211 -0.3021 -0.0829  0.1631
 4522W        W19653   1.691   6.383  12.684 -0.0641 -0.0190  0.1940
 4523W        W19654   9.972  17.839   5.337 -0.3260 -0.1410 -0.2511
 4524W        W19655   0.613  17.377  14.203 -0.3039  0.1756  0.0899
 4525W        W19656   6.327   9.611  14.802  0.1168 -0.3478 -0.0222
 4526W        W19657  15.382   9.346   2.280 -0.0678 -0.1351 -0.0269
 4527W        W19658  14.667   3.629   3.123  0.0600 -0.0656  0.0817
 4528W        W19659  17.182   4.706   1.124  0.2662  0.4029 -0.2539
 4529W        W19660  18.050   5.870  12.125 -0.0770  0.2202 -0.2193
 4530W        W19661   3.375   7.832  11.140  0.0625  0.1059 -0.2047
 4531W        W19662   4.738  13.783   4.411 -0.2513  0.0560 -0.1261
 4532W        W19663  10.408   2.116   5.256  0.1343 -0.0891  0.3504
 4533W        W19664   7.675   3.575   2.134  0.2012 -0.1696  0.0299
 4534W        W19665   7.251   8.583  16.250  0.2357 -0.1554  0.0505
 4535W        W19666  17.723  16.757  14.824 -0.0865 -0.0331 -0.2578
 4536W        W19667   1.699   2.625  16.411 -0.1447  0.0964  0.1129
 4537W        W19668  17.953  12.596   4.840  0.0130 -0.1306  0.1172
 4538W        W19669  12.964   7.729   1.895  0.1607 -0.1058  0.0167
 4539W        W19670   6.303  15.892  14.723  0.1515 -0.0134  0.0627
 4540W        W19671  18.036   4.075  10.527  0.0376  0.1254  0.0721
 4541W        W19672   9.922   0.422   6.013 -0.0603 -0.0977  0.2769
 4542W        W19673  10.909   9.672   2.938 -0.0584  0.1071  0.0561
 4543W        W19674   0.667   1.177   0.232  0.1550 -0.0979  0.2437
 4544W        W19675   7.381   5.891   0.191 -0.3404 -0.0188  0.0535
 4545W        W19676  14.755  11.713   0.966  0.3365 -0.2669  0.5015
 4546W        W19677   0.716   0.993   5.195  0.0694 -0.2088 -0.0570
 4547W        W19678  14.814   7.936  16.323 -0.0758 -0.1159  0.0405
 4548W        W19679   4.386   2.578   2.636 -0.2507  0.1118  0.0327
 4549W        W19680   3.698  16.924  15.817 -0.1374  0.2624 -0.2806
 4550W        W19681   0.580  11.334   1.878 -0.0834  0.1681  0.1379
 4551W        W19682   8.359   7.522   4.806 -0.3487 -0.2747  0.2408
 4552W        W19683  14.804  11.267   0.684 -0.0414 -0.2177  0.0513
 4553W        W19684   8.723   2.060   3.647  0.2206  0.0591  0.1078
 4554W        W19685   5.966   6.398  10.946  0.1732  0.0865 -0.0403
 4555W        W19686  10.255   4.130  12.677 -0.1300  0.1160 -0.0085
 4556W        W19687  11.186  10.582  15.279 -0.1042  0.2876 -0.2499
 4557W        W19688  14.221   5.684  12.216 -0.2752  0.1103  0.0051
 4558W        W19689   7.690   1.741  14.209 -0.0207  0.2325  0.0377
 4559W        W19690  17.195  11.415   5.759  0.0706  0.3004 -0.3847
 4560W        W19691   1.684  12.873  11.613  0.0838 -0.1458 -0.2158
 4561W        W19692  17.059   3.297   4.140  0.1238  0.1195 -0.2111
 4562W        W19693   9.056  13.242  10.023 -0.0611 -0.1736  0.1390
 4563W        W19694  16.749  17.347   2.822  0.1131  0.0168  0.1200
 4564W        W19695   3.541  10.031   1.885  0.2987 -0.1790  0.0183
 4565W        W19696   3.446   4.338   0.761  0.3037  0.1027 -0.2393
 4566W        W19697   3.155  12.117  15.691  0.0739  0.3977  0.3133
 4567W        W19698  13.074   7.777   0.561 -0.0625  0.2431 -0.0462
 4568W        W19699   3.617   7.251   4.994 -0.0186 -0.2889  0.1536
 4569W        W19700   6.501  16.706  14.868  0.0894 -0.0766 -0.2464
 4570W        W19701  15.788   7.306   0.838  0.1734 -0.4139 -0.0751
 4571W        W19702   4.732   7.663   5.321 -0.2055 -0.1710  0.3173
 4572W        W19703   5.837   4.140  15.616 -0.2992 -0.3238 -0.0991
 4573W        W19704  17.035  14.560   5.012  0.1791  0.5055 -0.0492
 4574W        W19705  16.795  15.788   5.993  0.2343  0.0374 -0.2413
 4575W        W19706  14.812  12.985  15.213  0.0189 -0.1303 -0.1589
 4576W        W19707   3.229   1.461  13.829 -0.1721 -0.2557  0.0617
 4577W        W19708   8.162   7.122   2.537  0.0207  0.1829 -0.1403
 4578W        W19709   0.139  10.638   4.744 -0.0657 -0.0917  0.2420
 4579W        W19710   0.527   5.186  14.703 -0.3637 -0.2467 -0.1756
 4580W        W19711  14.580  11.447  11.438 -0.1502  0.1466 -0.2262
 4581W        W19712   7.965   2.636   3.507  0.0154  0.0257  0.2859
 4582W        W19713  17.851   7.136  14.720 -0.0648  0.0140 -0.2204
 4583W        W19714   2.504   4.629  12.583 -0.2298  0.2192 -0.0549
 4584W        W19715  14.627   9.082  15.380 -0.0436  0.0524 -0.2061
 4585W        W19716   0.152   2.101   2.710 -0.0078 -0.3240 -0.2060
 4586W        W19717   4.743  17.893   1.116 -0.1179  0.0692 -0.1631
 4587W        W19718   8.012  11.623   2.847  0.0427 -0.3022  0.2796
 4588W        W19719   8.404  10.593  10.554 -0.1315  0.0064 -0.0511
 4589W        W19720   9.503   0.324  13.651 -0.3423 -0.0616 -0.0505
 4590W        W19721   5.411   3.857   0.517 -0.2330 -0.1699 -0.2290
 4591W        W19722  14.340  12.875   0.265  0.2198 -0.0308 -0.1764
 4592W        W19723  16.315  16.540   2.753 -0.0960 -0.2474 -0.0102
 4593W        W19724   4.103  17.751  15.444  0.2292  0.1894 -0.1317
 4594W        W19725  10.062   6.057  15.930 -0.0013 -0.0423  0.0510
 4595W        W19726   6.956   7.955   3.918 -0.0799  0.1223 -0.1914
 4596W        W19727  10.805  12.496   4.211  0.2546 -0.0133 -0.1635
 4597W        W19728   3.620  10.527   2.750  0.1330 -0.0594 -0.0641
 4598W        W19729  17.159  13.854   1.631  0.1683 -0.0704  0.1154
 4599W        W19730  15.490  10.350  12.614  0.1157 -0.2670  0.0188
 4600W        W19731  12.186   5.486   2.534  0.1798 -0.1525 -0.1707
 4601W        W19732   3.928   2.829   0.452 -0.0603 -0.2177 -0.1336
 4602W        W19733  14.575   5.596   5.034  0.1202 -0.2176  0.0226
 4603W        W19734  17.090   6.169  13.593  0.1657 -0.0211 -0.1518
 4604W        W19735   2.115  17.205   2.823  0.0823  0.0843 -0.1541
 4605W        W19736   0.250   2.512   0.228  0.0329  0.0111  0.2275
 4606W        W19737   2.579  15.072  16.348 -0.1130  0.0327 -0.2016
 4607W        W19738  12.128   3.775   3.927 -0.3284 -0.0260  0.0960
 4608W        W19739   2.555   3.674  13.676 -0.1190  0.2326 -0.1149
 4609W        W19740   9.182   9.355  12.503  0.2814  0.0840  0.1948
 4610W        W19741  13.732  10.241   4.110  0.2126  0.0129 -0.2132
 4611W        W19742   2.360  15.028  15.526  0.1927 -0.1370  0.0884
 4612W        W19743  10.653   9.366   2.048  0.0655 -0.2519 -0.2287
 4613W        W19744  10.211  14.028  11.303 -0.5526  0.1460  0.3149
 4614W        W19745  13.881  10.991  10.977 -0.0881 -0.1610 -0.0400
 4615W        W19746  13.380  11.846  15.714  0.0053 -0.0711  0.0794
 4616W        W19747   0.330   0.383  13.681 -0.0344  0.0339 -0.1041
 4617W        W19748   0.836   1.625   2.446  0.1869  0.0140  0.0024
 4618W        W19749   8.609  16.767  11.837  0.1410  0.0394  0.0874
 4619W        W19750  15.192   7.602   2.170  0.0002  0.1551 -0.0204
 4620W        W19751  13.298  16.526  15.854 -0.2080 -0.0496  0.4840
 4621W        W19752   2.235  11.465   2.035  0.0146  0.0889  0.2038
 4622W        W19753   1.800  16.879  16.339 -0.1228 -0.4839  0.1424
 4623W        W19754  12.136   5.282   3.951  0.1620 -0.1506 -0.3548
 4624W        W19755   4.653   9.146  14.634  0.2149 -0.0660 -0.2441
 4625W        W19756   8.410  14.252  10.485  0.1308 -0.2370 -0.1325
 4626W        W19757   1.371  15.935   2.939 -0.0492 -0.0702  0.2201
 4627W        W19758   3.139   3.684   2.622  0.1402  0.0381  0.0215
 4628W        W19759   7.925  13.100  12.902  0.0651 -0.2002 -0.3508
 4629W        W19760  15.013   6.197   0.875 -0.0753  0.0608 -0.3669
 4630W        W19761  15.920  10.707  16.090  0.0566  0.0353  0.0260
 4631W        W19762   8.511  14.575  13.399 -0.3805 -0.0046 -0.0302
 4632W        W19763   5.836   7.333  14.929 -0.0241 -0.1021  0.0171
 4633W        W19764   7.616   7.823   2.241  0.0478  0.0072 -0.0351
 4634W        W19765   2.018  15.528   1.777 -0.1657  0.0322  0.0477
 4635W        W19766  16.218   4.686   5.115  0.2046 -0.0323  0.0213
 4636W        W19767   5.008   8.537   4.779 -0.0779 -0.0291  0.1170
 4637W        W19768   1.479  16.520  10.873 -0.2129 -0.1266 -0.3862
 4638W        W19769   6.359  12.220   5.646  0.0534 -0.0290 -0.2314
 4639W        W19770   7.991   7.993  10.065 -0.1872 -0.2452 -0.1107
 4640W        W19771   0.766   2.019  14.226 -0.2350  0.2164  0.0092
 4641W        W19772   8.389  10.032   4.689 -0.2454 -0.1287  0.0091
 4642W        W19773   6.181  12.345   1.015 -0.0663  0.2217  0.3204
 4643W        W19774  14.145   2.002   3.842 -0.3064 -0.1502 -0.1133
 4644W        W19775   0.368  11.378   3.986  0.0425  0.1938  0.0432
 4645W        W19776  17.610   4.801  11.939  0.3793  0.0290  0.1737
 4646W        W19777   6.201   1.058  12.776 -0.2840  0.2080  0.0680
 4647W        W19778  13.698   7.885   4.337  0.1513  0.2080 -0.0311
 4648W        W19779   8.878   5.001   4.542 -0.1395  0.2305 -0.1198
 4649W        W19780  16.093  12.995   1.170  0.0168 -0.0663 -0.2792
 4650W        W19781  13.249   0.118   5.015  0.3832 -0.3927 -0.2131
 4651W        W19782   6.087  10.762   4.631 -0.3041  0.0531 -0.0974
 4652W        W19783  11.211   3.791  12.590 -0.1352  0.3008  0.3964
 4653W        W19784   3.600   1.427   5.049  0.3889  0.2531 -0.0833
 4654W        W19785   1.623  14.577   5.126 -0.2551 -0.4125 -0.1512
 4655W        W19786  12.819  13.474   1.360 -0.2482 -0.1987 -0.1602
 4656W        W19787   8.258  14.970  13.581 -0.0216  0.0586  0.0102
 4657W        W19788  16.339   1.607   4.043  0.1799 -0.0924 -0.1855
 4658W        W19789  12.909   6.750  12.481 -0.3217 -0.1638 -0.2941
 4659W        W19790   3.708   5.391   3.376 -0.0431  0.1397  0.1486
 4660W        W19791   2.572   5.829   2.192 -0.0023 -0.1112  0.1880
 4661W        W19792  17.275  10.263   4.246 -0.3134 -0.2069  0.0883
 4662W        W19793  16.530  11.160   0.101  0.0896 -0.2945 -0.0054
 4663W        W19794   6.643   5.111  10.707 -0.0806  0.1889 -0.0975
 4664W        W19795   8.901  10.011  11.911 -0.0600 -0.2539 -0.1551
 4665W        W19796   7.060   6.784  14.023 -0.0305  0.1766  0.0413
 4666W        W19797   1.334  12.420  13.823  0.0637  0.1887 -0.1318
 4667W        W19798  14.713   8.629   5.350 -0.0752  0.0507  0.1113
 4668W        W19799  12.623   2.677  10.504  0.1324  0.0209  0.0954
 4669W        W19800  13.113   2.304  11.794 -0.0966 -0.1249 -0.0965
 4670W        W19801   9.075  15.851  13.608 -0.0843  0.2585 -0.1959
 4671W        W19802   1.277  10.890  14.566  0.5017  0.0183 -0.2535
 4672W        W19803  13.149   1.496   2.982 -0.0498  0.0123  0.0920
 4673W        W19804   0.228   4.319  14.423 -0.2247  0.0756  0.2528
 4674W        W19805  10.734   3.380  14.239 -0.0364  0.0570 -0.0885
 4675W        W19806   8.457  16.295   4.494  0.1056  0.0430  0.1528
 4676W        W19807   6.320   7.904  14.110  0.1604 -0.2672  0.2756
 4677W        W19808  16.237   7.104  15.514  0.0627 -0.0013 -0.0545
 4678W        W19809   7.549   2.294   1.386 -0.0210  0.1388 -0.0779
 4679W        W19810   6.976   9.514  13.708 -0.2251  0.2003  0.1136
 4680W        W19811  15.369   4.757   5.643  0.0414 -0.0118  0.2371
 4681W        W19812   4.263  10.755  13.378 -0.2021  0.1367  0.0131
 4682W        W19813  11.088  12.674   0.457  0.3645 -0.2065  0.0413
 4683W        W19814  14.479  10.830   3.072  0.1071  0.2475 -0.0633
 4684W        W19815   8.280   1.194   5.468  0.0460 -0.0232 -0.0704
 4685W        W19816   2.936   5.767  13.915  0.1038  0.2941 -0.2388
 4686W        W19817  16.658  13.474  13.609 -0.1069 -0.3380  0.2811
 4687W        W19818   8.650  12.064   2.468 -0.2113 -0.2882  0.0934
 4688W        W19819  16.757  10.628   5.482  0.4971  0.2248  0.0394
 4689W        W19820  14.906   1.571  11.494 -0.0180 -0.0056  0.0223
 4690W        W19821  13.725   9.100  15.901 -0.0257  0.1570  0.0378
 4691W        W19822  15.742   9.244   1.478  0.0522 -0.0197 -0.1260
 4692W        W19823   1.902   8.704   3.748 -0.1480 -0.2952 -0.0873
 4693W        W19824  15.401  12.525  13.503 -0.0099  0.2147 -0.1850
 4694W        W19825  17.458   4.498   0.656 -0.1918  0.3768 -0.2562
 4695W        W19826   6.768  11.718   5.165  0.0335  0.1067  0.0487
 4696W        W19827   0.241  10.969   4.343  0.2129  0.0460  0.0317
 4697W        W19828   3.438  10.826  11.227 -0.0282  0.0287 -0.1287
 4698W        W19829   9.264   1.333   0.922  0.0038 -0.0659  0.3158
 4699W        W19830   8.368  15.772  13.941 -0.1267 -0.1018 -0.0888
 4700W        W19831  17.707  15.285   3.179  0.2449  0.2895  0.3970
 4701W        W19832   4.866   2.895   0.935 -0.1660  0.1503  0.0035
 4702W        W19833   1.964  17.955   0.623  0.3030  0.0974 -0.0398
 4703W        W19834   6.248   9.730  15.646  0.1226 -0.1055 -0.1259
 4704W        W19835  10.062   1.486  10.820 -0.1185  0.0557  0.0992
 4705W        W19836  17.766   5.018  14.448  0.2204  0.0600  0.1896
 4706W        W19837   7.357   2.741   1.242 -0.0029  0.2788 -0.0623
 4707W        W19838   9.821   8.872   2.451  0.5312 -0.1630 -0.0600
 4708W        W19839  11.262  12.036   1.696 -0.0707  0.1907 -0.1582
 4709W        W19840   5.945   7.347  14.356  0.0588  0.2181 -0.1122
 4710W        W19841   4.555   7.518   2.957 -0.3106  0.2757 -0.1047
 4711W        W19842   6.286  15.562  11.661 -0.0632 -0.2032 -0.0823
 4712W        W19843   2.031   9.150   2.635  0.1881  0.2085 -0.1129
 4713W        W19844  17.265   2.919  12.879 -0.0849 -0.1532 -0.1874
 4714W        W19845  17.602   4.211   3.564 -0.0888  0.0046 -0.0198
 4715W        W19846  17.364  15.205  13.181  0.0236  0.0182 -0.1235
 4716W        W19847   0.088   5.310  14.504  0.1946  0.1865 -0.3188
 4717W        W19848  17.447   2.252  11.496  0.1168 -0.3421  0.2961
 4718W        W19849   3.675   0.483  15.964 -0.3305 -0.2563  0.2324
 4719W        W19850   9.564  16.359   5.329 -0.1936 -0.2599  0.0374
 4720W        W19851  15.525   4.257  14.311 -0.2108 -0.1319 -0.2094
 4721W        W19852   6.003  16.036   1.854 -0.2413 -0.0084 -0.0380
 4722W        W19853   4.004   7.996   0.946 -0.3005 -0.1427 -0.2597
 4723W        W19854   3.225  10.182  12.168 -0.2065 -0.1248  0.2038
 4724W        W19855   8.392   1.994  14.882  0.0644  0.2698  0.3777
 4725W        W19856  12.484   3.633   1.293  0.4886 -0.4569 -0.0225
 4726W        W19857  12.878   4.636   0.098 -0.1286 -0.4246  0.1375
 4727W        W19858  16.242   4.018  12.416  0.1751  0.0398  0.2253
 4728W        W19859   6.192  15.547   0.679 -0.0423  0.3662  0.0342
 4729W        W19860  16.169   2.791   5.434  0.0692  0.1389  0.1432
 4730W        W19861   9.239  10.677   3.341 -0.1674  0.0278 -0.0055
 4731W        W19862  15.273  11.131   0.466  0.0328 -0.3386 -0.2357
 4732W        W19863  18.007   4.155  15.854  0.3017 -0.0253  0.0102
 4733W        W19864  17.453  12.095   0.394 -0.0872 -0.1807 -0.2449
 4734W        W19865  13.853  13.503   3.782  0.1661 -0.2028  0.0679
 4735W        W19866   3.216  15.208   5.088  0.1200 -0.0430 -0.1583
 4736W        W19867   4.939  15.466  15.768 -0.2589  0.0229  0.0755
 4737W        W19868   1.886  10.209  12.039 -0.0248 -0.3163 -0.2916
 4738W        W19869   0.646   1.911   4.875 -0.0459  0.5068  0.1192
 4739W        W19870  11.477  16.245  11.260 -0.3567  0.0084 -0.0070
 4740W        W19871  10.741   3.561   4.076 -0.3765 -0.1547  0.1375
 4741W        W19872  18.069  14.058  13.039 -0.2759 -0.0664  0.4270
 4742W        W19873  10.418   1.840  11.028  0.0560 -0.1560 -0.0370
 4743W        W19874   0.661  13.059  12.974  0.1300 -0.0697 -0.2362
 4744W        W19875   5.092  11.632  12.441 -0.1048 -0.1097  0.0403
 4745W        W19876  16.322  17.664  13.112  0.2273 -0.1508 -0.2028
 4746W        W19877   7.165   0.571  13.607  0.4477 -0.0884  0.0044
 4747W        W19878   7.722   0.008  15.019  0.0021  0.1001 -0.1730
 4748W        W19879   6.885   0.571   1.672  0.1024 -0.1372 -0.1162
 4749W        W19880  17.911   0.086   1.383 -0.2521 -0.0607 -0.1757
 4750W        W19881  10.586  14.930   0.446  0.1600  0.2489  0.3609
 4751W        W19882   3.153  11.558  13.496  0.1886  0.0431  0.1041
 4752W        W19883  16.496   0.459  12.840  0.2104 -0.0437 -0.1708
 4753W        W19884  16.099   8.944   4.841 -0.0431  0.4392 -0.3508
 4754W        W19885   9.109  13.929  11.605 -0.2899  0.1521  0.0062
 4755W        W19886   5.335  15.463  13.732  0.1232  0.1001  0.0168
 4756W        W19887   2.864   5.880   5.659 -0.1858  0.1005  0.1251
 4757W        W19888   5.255   2.249  12.524  0.0744  0.0163  0.2403
 4758W        W19889   2.547   8.166   4.627  0.2509 -0.4043 -0.2053
 4759W        W19890  12.116   8.971   4.029  0.0476  0.1692  0.0161
 4760W        W19891   2.810   3.510   3.564 -0.3507 -0.0611 -0.0559
 4761W        W19892  16.769  11.183   1.472  0.3475  0.0578  0.0479
 4762W        W19893  16.935  16.470  14.142 -0.1668 -0.2119 -0.3499
 4763W        W19894  16.664  13.366  16.088  0.0176 -0.0515  0.2712
 4764W        W19895  15.975  10.140  16.234 -0.2976 -0.3063 -0.2685
 4765W        W19896  10.104   2.127  16.130  0.1144 -0.0107 -0.2626
 4766W        W19897   8.034   7.399   4.458  0.0965 -0.0419 -0.3110
 4767W        W19898   0.441  17.425   4.444  0.2223  0.1890 -0.1903
 4768W        W19899   6.318  15.029   2.788 -0.2672 -0.0284 -0.1384
 4769W        W19900   6.707   2.131   2.711  0.2612  0.0031 -0.1530
 4770W        W19901   1.712  12.605  14.597  0.0551  0.1568 -0.0381
 4771W        W19902   0.382   0.969  13.914  0.0562 -0.2120  0.1993
 4772W        W19903  15.098   3.681  13.658  0.2015 -0.1223 -0.1237
 4773W        W19904  16.169   5.596   6.490 -0.1515  0.2412  0.0659
 4774W        W19905   4.997  14.455   2.554 -0.0857  0.2711 -0.0184
 4775W        W19906  11.328   3.060   1.743  0.3327 -0.0292  0.2070
 4776W        W19907   8.520  13.175   1.794 -0.0470  0.1190 -0.1889
 4777W        W19908   1.639   6.442  11.678  0.4141 -0.1060  0.1587
 4778W        W19909  17.372   5.932   4.510  0.1648  0.2899 -0.2367
 4779W        W19910  11.902   3.093   4.675 -0.1859 -0.2639  0.1081
 4780W        W19911  16.717   5.521  14.400 -0.1014  0.0325 -0.0695
 4781W        W19912  16.192   3.811   1.334 -0.0077 -0.0458 -0.0289
 4782W        W19913  11.377  13.640   4.288  0.0173  0.0708  0.1278
 4783W        W19914  12.569  17.044   1.435 -0.0254  0.3705  0.2247
 4784W        W19915   0.113   8.171  12.104  0.3068 -0.1741  0.1645
 4785W        W19916  16.900   2.567  12.865  0.3118 -0.2191 -0.3305
 4786W        W19917   4.366   0.986  15.735  0.1187 -0.1031  0.3446
 4787W        W19918  11.569   8.287  14.878  0.1269  0.0746  0.1985
 4788W        W19919   5.708   8.255  13.282 -0.1081  0.0600  0.4063
 4789W        W19920   4.402  10.585  12.435 -0.4078 -0.0111 -0.0388
 4790W        W19921  13.751  15.384   0.668  0.0951 -0.0028  0.0646
 4791W        W19922  10.420   2.787   4.745  0.1065  0.0875 -0.0285
 4792W        W19923   9.603  11.777  14.889  0.0061  0.2747 -0.1013
 4793W        W19924  15.481   7.322   1.898 -0.0175  0.1569 -0.2920
 4794W        W19925   6.573   1.512   4.402 -0.0578  0.0174  0.4489
 4795W        W19926   2.554   3.345   2.134 -0.1777 -0.0028  0.2100
 4796W        W19927  17.126  16.276  13.287  0.1987 -0.1677 -0.1204
 4797W        W19928   0.598  17.645  12.279  0.0786 -0.0580 -0.0960
 4798W        W19929  12.482   8.210  14.664 -0.0269 -0.2885 -0.2010
 4799W        W19930   8.887  10.397   3.096 -0.0521 -0.0826  0.4072
 4800W        W19931   1.700   4.485  12.967  0.0501  0.1260  0.1624
 4801W        W19932  16.378  17.963   2.449  0.1888  0.0485  0.1209
 4802W        W19933   0.545   2.226   1.345  0.1906  0.0719 -0.0418
 4803W        W19934  17.301  13.690   5.206 -0.3252 -0.1587  0.0585
 4804W        W19935  11.520  14.478  15.380 -0.0904  0.0855 -0.0211
 4805W        W19936  16.169   5.740   4.083 -0.2178 -0.0219 -0.0964
 4806W        W19937  14.715  14.612   1.001  0.0412 -0.1117  0.1139
 4807W        W19938  12.355   9.392   1.238 -0.1780 -0.0626 -0.0006
 4808W        W19939   3.680  11.896  12.043  0.1154  0.0851  0.0481
 4809W        W19940  11.767   7.716  10.016 -0.1137  0.0539 -0.3544
 4810W        W19941   2.651   0.875   1.315  0.1835  0.0922  0.0761
 4811W        W19942  15.888  11.748  16.241  0.1843 -0.1286 -0.0641
 4812W        W19943   1.097   5.499   5.260 -0.1484 -0.1339 -0.0897
 4813W        W19944  15.072  10.530   3.370 -0.1831 -0.3282  0.1912
 4814W        W19945   9.544   3.895   4.800 -0.4177  0.1750 -0.0947
 4815W        W19946   0.612   7.540   3.144 -0.3403  0.1896  0.1672
 4816W        W19947   7.610  12.016  11.906 -0.1578  0.2480  0.2850
 4817W        W19948   0.053  14.050   5.765 -0.0930  0.2389  0.0296
 4818W        W19949  16.472   7.546   4.517 -0.1564  0.1374 -0.2172
 4819W        W19950  14.315   8.465   4.053 -0.2331  0.2710 -0.0926
 4820W        W19951   3.951   1.321  15.504 -0.0848  0.0456  0.3297
 4821W        W19952  16.844   0.549  15.347 -0.2705 -0.3063 -0.1192
 4822W        W19953  17.653   7.908  14.351  0.1174  0.0186  0.2723
 4823W        W19954  12.940  16.059  15.701 -0.2849 -0.0324 -0.1708
 4824W        W19955   9.779  14.062   5.029  0.1837  0.0505 -0.2087
 4825W        W19956   8.060   3.779   1.834 -0.2737  0.0808 -0.2565
 4826W        W19957  17.020   8.445   3.540  0.3383 -0.3432  0.1860
 4827W        W19958  12.150   2.336   2.819  0.0383  0.1032 -0.3475
 4828W        W19959   5.934  11.695   4.541 -0.0097  0.1758  0.0497
 4829W        W19960   0.872  16.748   3.221  0.0103  0.1830 -0.0062
 4830W        W19961   5.811  16.282   0.471  0.0048 -0.1349  0.1715
 4831W        W19962  13.481  16.334  14.456 -0.2290  0.0033 -0.0664
 4832W        W19963  13.318  11.289  12.580  0.3013  0.2556  0.3229
 4833W        W19964  15.587   6.453   1.180 -0.1616 -0.3101  0.0390
 4834W        W19965   4.946  16.363   2.892 -0.1555  0.1085  0.1224
 4835W        W19966  13.242  12.886   3.514  0.0348  0.1027  0.0070
 4836W        W19967  16.814  13.830  15.070 -0.3825 -0.1054 -0.0173
 4837W        W19968   5.707   2.063   4.928  0.1079 -0.1363 -0.0677
 4838W        W19969   7.996  11.530  11.364 -0.1044 -0.2574  0.0148
 4839W        W19970   3.811   0.087  15.601 -0.2318 -0.0001 -0.0653
 4840W        W19971   5.632   7.775   2.708 -0.1228 -0.1354  0.0576
 4841W        W19972   4.212  15.563   2.286  0.1193  0.0327  0.2359
 4842W        W19973  14.880  13.843   1.285  0.0310 -0.0352  0.2430
 4843W        W19974  16.661  11.395   4.398 -0.0318 -0.0003  0.0850
 4844W        W19975  13.242  14.460  11.613  0.2102 -0.1273  0.1309
 4845W        W19976  15.201   0.404  16.002 -0.1498 -0.2987 -0.2126
 4846W        W19977   0.788   1.096   3.638  0.3174  0.1872  0.2359
 4847W        W19978  10.861  16.114  16.393  0.0324  0.2625 -0.2739
 4848W        W19979  12.457  13.677   3.290  0.1550 -0.0954 -0.1028
 4849W        W19980   8.459  16.970  12.786 -0.0337 -0.0665  0.1058
 4850W        W19981   6.766  17.277   5.275 -0.0061 -0.0543 -0.2548
 4851W        W19982   7.289   5.056   0.871  0.1769  0.0331  0.1372
 4852W        W19983  16.514   9.354  12.991 -0.1625 -0.0335  0.1114
 4853W        W19984   1.212  12.047   2.574 -0.3285 -0.1247 -0.3943
 4854W        W19985   5.518   9.208  14.461 -0.2138  0.1043 -0.3045
 4855W        W19986  14.657   3.514   5.023  0.1496  0.0664  0.0424
 4856W        W19987   6.561  12.534  16.152  0.2327 -0.5224  0.1688
 4857W        W19988   9.756  10.752   0.211  0.0983  0.0210 -0.1168
 4858W        W19989  14.528   0.533  12.576 -0.1015 -0.0537 -0.3419
 4859W        W19990   9.344  16.817   2.539 -0.1297  0.1799  0.0483
 4860W        W19991  12.770   4.964  12.614 -0.0591 -0.0609  0.0628
 4861W        W19992   3.855   5.832   1.737  0.3095  0.4193  0.0443
 4862W        W19993   7.800   2.310   6.027  0.1110 -0.0570  0.2585
 4863W        W19994   8.028  13.503  13.446 -0.1492 -0.1608  0.0463
 4864W        W19995  16.521  17.351   4.834 -0.2480  0.1870 -0.0097
 4865W        W19996   4.834   0.953  12.293 -0.0249  0.0925 -0.3047
 4866W        W19997  16.425   7.928   5.311 -0.2336 -0.1356  0.1270
 4867W        W19998  16.306   2.124  14.730 -0.1043  0.0836 -0.1358
 4868W        W19999  17.227   1.899   3.005  0.2412 -0.0430  0.0779
 4869W        W20000   3.980  15.975   3.024 -0.0883  0.0692  0.0187
 4870W        W20001  13.653   4.699   2.766  0.3306  0.0629  0.2134
 4871W        W20002   4.235  12.549  13.093  0.1567  0.1347 -0.2235
 4872W        W20003   8.703   4.763   3.724 -0.1169  0.3575 -0.1764
 4873W        W20004   6.008   5.950   4.586  0.0687 -0.2677 -0.2036
 4874W        W20005  17.489  10.634   0.658  0.0973  0.1279 -0.2557
 4875W        W20006  16.716   1.880   0.663 -0.4898 -0.3664  0.1912
 4876W        W20007  16.122  18.007  15.986 -0.3019 -0.0074  0.0428
 4877W        W20008   3.132  14.502  10.191 -0.0325  0.1749  0.1354
 4878W        W20009   1.381  16.073   3.814 -0.0168  0.0295  0.0428
 4879W        W20010  17.143  16.908   5.313  0.1760 -0.0055 -0.3789
 4880W        W20011   4.380   0.352  12.382 -0.2062  0.0132 -0.0331
 4881W        W20012  16.095  17.686   3.174 -0.0712 -0.1907  0.0500
 4882W        W20013   6.650  10.939  14.655 -0.0124 -0.3230  0.1222
 4883W        W20014   0.858  16.937   3.771  0.3430 -0.1761 -0.0828
 4884W        W20015  12.351   0.407   1.149  0.1229  0.0821  0.2701
 4885W        W20016  16.312  16.461  15.794 -0.1897  0.0336  0.1751
 4886W        W20017   2.296  14.046   4.368  0.3313 -0.0785 -0.1503
 4887W        W20018   0.147  14.059  11.463  0.2823 -0.2545 -0.0110
 4888W        W20019   3.611   4.617  14.333 -0.3537  0.0135  0.1583
 4889W        W20020  11.121  11.355  14.093 -0.0183 -0.0356 -0.0335
 4890W        W20021  11.663  10.212  14.920 -0.2481 -0.2664  0.1463
 4891W        W20022  13.827  13.620   2.200  0.2285 -0.2306 -0.0467
 4892W        W20023  11.667   7.316   4.816  0.3251  0.2900  0.0381
 4893W        W20024   3.966   8.247  13.684 -0.2269 -0.0057 -0.1241
 4894W        W20025  12.582   8.530  15.998 -0.0194  0.2615 -0.0499
 4895W        W20026   5.545  10.803   4.447 -0.1180  0.0758  0.0977
 4896W        W20027   0.732  16.199  12.678 -0.1558  0.1857 -0.2353
 4897W        W20028  11.100  14.190   5.839 -0.1631  0.2460 -0.1527
 4898W        W20029  12.365  14.082  13.207  0.0029 -0.0390 -0.0667
 4899W        W20030  16.780   2.534  14.373  0.2866  0.0401 -0.1093
 4900W        W20031  17.751  12.091   5.501  0.2978  0.1333  0.2128
 4901W        W20032   9.523  16.680  12.559  0.0482 -0.3338 -0.2071
 4902W        W20033  15.485   5.254  15.778 -0.1095 -0.1117 -0.0508
 4903W        W20034  11.903   4.703   5.060 -0.2437  0.0476  0.1722
 4904W        W20035   2.129   5.216  15.840 -0.3209 -0.1513  0.1122
 4905W        W20036   0.027  15.639  15.974  0.1754 -0.2910  0.1904
 4906W        W20037   0.319   9.423   1.366  0.0819  0.0356 -0.1614
 4907W        W20038   2.378   1.182   5.002 -0.1771  0.1008  0.1202
 4908W        W20039   0.247   6.956   5.051 -0.2083 -0.0397 -0.0920
 4909W        W20040  14.733   0.707  15.497  0.0184 -0.1557 -0.4636
 4910W        W20041  13.608   0.391   1.012  0.0302  0.0300 -0.3769
 4911W        W20042   6.790   3.917  16.106 -0.1996  0.1442 -0.0805
 4912W        W20043   2.894  14.810  11.644  0.1263  0.0739 -0.1894
 4913W        W20044   2.747  15.983   2.612 -0.0613 -0.1291 -0.1464
 4914W        W20045  17.620  17.443  13.668 -0.0844 -0.0262  0.2587
 4915W        W20046   4.861   4.020   3.083  0.0139  0.1286 -0.1837
 4916W        W20047  10.208   6.361   1.165  0.0356  0.0951  0.1035
 4917W        W20048   5.757  10.842  11.595  0.0437 -0.2378 -0.1455
 4918W        W20049  16.389   1.487   0.814  0.0663  0.0610 -0.3089
 4919W        W20050  12.385  16.365  12.912 -0.0556  0.1312  0.4789
 4920W        W20051   7.485  17.232  13.871  0.1454  0.0872 -0.1982
 4921W        W20052   7.924   3.036   2.589  0.3284  0.1739 -0.3443
 4922W        W20053  14.845   7.121  15.530 -0.1710  0.1391  0.1485
 4923W        W20054   5.236  13.741  12.120 -0.0469  0.3507 -0.2953
 4924W        W20055  16.231   8.610  15.023  0.1284 -0.1287 -0.0842
 4925W        W20056   2.070   8.382  13.050 -0.3858  0.0812  0.1937
 4926W        W20057  14.077  13.569   5.522  0.0034  0.1929  0.1095
 4927W        W20058  13.451   7.284   5.547 -0.0680  0.1159  0.3299
 4928W        W20059   8.828   7.804  14.144  0.1199 -0.0367  0.1801
 4929W        W20060  16.801   4.054  15.649  0.0569  0.2609 -0.0404
 4930W        W20061   2.927  14.540  11.223  0.1716 -0.5246  0.0132
 4931W        W20062  11.792  11.479  12.900 -0.1041 -0.0321  0.4177
 4932W        W20063   1.294  17.146   6.103  0.0717 -0.0656 -0.0926
 4933W        W20064   0.097   6.284   4.707  0.0805 -0.2677 -0.1094
 4934W        W20065  17.113   8.937   3.790 -0.0908 -0.1421  0.1175
 4935W        W20066  10.024  17.665  11.024  0.1630  0.0722 -0.1838
 4936W        W20067  17.675  13.824  12.816  0.0204  0.0836 -0.0204
 4937W        W20068   7.623   4.226   1.004 -0.3442 -0.0392 -0.0961
 4938W        W20069  10.823  10.838   3.667  0.1564 -0.0848  0.1093
 4939W        W20070   7.101  12.949   5.704  0.1026 -0.2686 -0.2072
 4940W        W20071  17.621   3.996   0.353  0.1892  0.1793  0.1028
 4941W        W20072   8.190   6.225  13.210 -0.0730 -0.0032  0.0306
 4942W        W20073   9.990  10.334  13.459 -0.0419  0.1270 -0.2255
 4943W        W20074   1.157   4.430  13.964 -0.0676  0.2084  0.0268
 4944W        W20075   1.469  18.075  12.143  0.0857  0.2012 -0.1856
 4945W        W20076  14.363  15.631  12.650  0.0206 -0.2883 -0.0802
 4946W        W20077   2.286  14.141  11.836  0.0195 -0.3413  0.2800
 4947W        W20078   3.233  16.287  11.267  0.1979  0.0052 -0.1215
 4948W        W20079  17.728   1.540   3.809  0.0035  0.1861 -0.1842
 4949W        W20080   6.886   1.183  13.476  0.1618  0.1814 -0.0725
 4950W        W20081   5.318   5.625  10.801  0.1161  0.3653  0.2221
 4951W        W20082   6.031  12.023   3.211  0.4303 -0.1114  0.1736
 4952W        W20083  15.038   1.898   2.733 -0.3175  0.0200  0.2539
 4953W        W20084   7.814   8.587  13.879 -0.0532 -0.1133  0.1453
 4954W        W20085   3.294  13.142  15.185  0.1353 -0.0438  0.1908
 4955W        W20086   0.387   5.093   2.031  0.0832  0.3554  0.4574
 4956W        W20087  13.872  16.505   2.063  0.0449 -0.1923  0.0049
 4957W        W20088   1.001   5.901   0.620 -0.2236  0.0960  0.0603
 4958W        W20089   0.062  17.874   1.080  0.1271  0.3064 -0.1388
 4959W        W20090  14.877   9.867  11.372 -0.0895 -0.0068  0.2223
 4960W        W20091  11.807   7.129  12.654 -0.1023  0.1382 -0.1279
 4961W        W20092  11.679  10.161   4.672  0.1352 -0.4599  0.1890
 4962W        W20093   8.155  13.603  11.306  0.0974 -0.0356  0.2696
 4963W        W20094  13.427  13.618  12.073  0.0552 -0.1009 -0.2833
 4964W        W20095  10.221   0.540  14.662 -0.1668 -0.0574  0.0066
 4965W        W20096   0.162   1.656  12.411  0.2458 -0.0661  0.1797
 4966W        W20097  15.439   5.766   4.715  0.0851  0.0476  0.0837
 4967W        W20098  13.407   4.896  14.584  0.0483  0.1997  0.0802
 4968W        W20099  11.381   6.906  14.879 -0.2023  0.0554 -0.2842
 4969W        W20100  14.788   4.774  13.629  0.2707 -0.3000  0.0660
 4970W        W20101   5.624   9.346   3.502 -0.2701 -0.2622  0.3303
 4971W        W20102   2.133   5.270   2.389 -0.2917  0.1356  0.2015
 4972W        W20103   8.068  12.781  15.891  0.0592  0.0911 -0.0726
 4973W        W20104  13.858   1.358  13.376  0.0861 -0.2404 -0.0270
 4974W        W20105  10.928   0.855   4.306 -0.2190 -0.1383  0.0227
 4975W        W20106   4.397   8.360  15.700 -0.1872  0.0825 -0.0158
 4976W        W20107   8.371  10.796  11.720  0.0863 -0.0300  0.0162
 4977W        W20108  15.836  11.679   1.530  0.0196 -0.1783 -0.1506
 4978W        W20109   3.928   3.829   2.910 -0.0725 -0.1860 -0.2031
 4979W        W20110   0.145   8.518   2.687  0.2279  0.2459 -0.2243
 4980W        W20111  13.730   5.870   1.245  0.3310  0.0636 -0.0249
 4981W        W20112   6.383   5.853   1.194  0.1039 -0.0179  0.0098
 4982W        W20113   8.132   1.682  15.264  0.1944  0.0866 -0.1782
 4983W        W20114   1.356  17.097  12.239  0.0853  0.0021 -0.2645
 4984W        W20115   8.105   3.303   3.000 -0.1348  0.0212 -0.0340
 4985W        W20116   3.467   4.417  11.987 -0.1262 -0.1566  0.3388
 4986W        W20117   6.985   7.017  15.313 -0.3091 -0.2433 -0.0920
 4987W        W20118   0.058  15.166  13.691 -0.0490  0.4323  0.0320
 4988W        W20119  16.718  10.424  13.280 -0.1165  0.0163 -0.0922
 4989W        W20120   3.085  15.693   3.415  0.1149  0.3694 -0.1134
 4990W        W20121   3.503   6.571   0.384 -0.0832  0.2583  0.0049
 4991W        W20122  14.623   7.894  15.791  0.1751  0.2183 -0.4589
 4992W        W20123   4.608   4.088   3.931 -0.1745 -0.0769  0.0887
 4993W        W20124   1.876  15.147   0.365  0.0698  0.2462  0.0186
 4994W        W20125   4.560   4.718   2.502  0.0418 -0.2907  0.2803
 4995W        W20126   6.766  11.592  13.085  0.0626  0.1098 -0.3578
 4996W        W20127   9.376   3.130  15.329  0.0566  0.0721 -0.0717
 4997W        W20128   6.288  17.378   5.045  0.2015 -0.0054  0.1368
 4998W        W20129   5.280  15.783  16.268  0.0108  0.1501  0.0572
 4999W        W20130  13.868  17.220  14.271 -0.1662 -0.1227  0.1786
 5000W        W20131  12.790  16.097  12.771  0.0692 -0.3397  0.0170
 5001W        W20132   2.762   8.060   3.312  0.1321  0.3285  0.0539
 5002W        W20133  13.289   7.718   2.321 -0.0598  0.1890  0.2143
 5003W        W20134   2.651  14.949   3.278 -0.0871  0.0524  0.0611
 5004W        W20135  17.219   2.283   1.675  0.3916 -0.2323  0.0023
 5005W        W20136   7.500   0.849  15.422 -0.1975 -0.0202  0.0677
 5006W        W20137  16.228  10.642   5.465 -0.0544 -0.0088  0.3868
 5007W        W20138   5.982   3.619   4.697  0.0962  0.3033 -0.1783
 5008W        W20139   9.681  15.860   2.422 -0.1579  0.1694 -0.1099
 5009W        W20140  15.596   9.531   5.259 -0.2142 -0.3508 -0.0400
 5010W        W20141   2.132   0.082  13.709 -0.1711 -0.2838  0.2961
 5011W        W20142  16.766  12.650   5.182 -0.1172  0.1295  0.3617
 5012W        W20143   7.861   8.675   4.047 -0.4261  0.1962  0.5714
 5013W        W20144  12.557   6.018   1.255 -0.1478 -0.3202 -0.1699
 5014W        W20145   3.172  14.865  16.208 -0.0420 -0.4492 -0.0125
 5015W        W20146   2.813  10.078   2.119 -0.1590  0.0504 -0.1014
 5016W        W20147  10.551   4.847  11.890 -0.1107  0.2410 -0.1785
 5017W        W20148   1.520   2.025  13.129 -0.2976  0.2084  0.0333
 5018W        W20149  11.026   5.344  12.481  0.0635 -0.0848  0.0784
 5019W        W20150  10.546   1.112   0.894 -0.2243  0.1588 -0.1589
 5020W        W20151  12.452  17.341   2.934  0.1867 -0.3712 -0.2649
 5021W        W20152  14.728   0.218  16.124 -0.0304 -0.2854  0.0137
 5022W        W20153  10.441  14.943   1.342 -0.0700 -0.2590 -0.0326
 5023W        W20154  13.223  10.737   4.236  0.0210 -0.1473  0.2502
 5024W        W20155  10.341  11.239   4.303 -0.0797 -0.1636 -0.3796
 5025W        W20156  14.558   3.594   5.656 -0.0004  0.1687  0.1052
 5026W        W20157  11.288   6.431  11.607 -0.0343  0.3224 -0.2130
 5027W        W20158   5.894   5.328  11.782  0.3346  0.1808 -0.2179
 5028W        W20159  12.264  17.004  13.885  0.1732  0.0641 -0.2748
 5029W        W20160   3.234   5.998   1.397  0.0524 -0.2395 -0.1377
 5030W        W20161  17.165   0.700   1.095 -0.1884  0.2687  0.0465
 5031W        W20162   1.776   1.258  13.388 -0.3026 -0.0171  0.1260
 5032W        W20163   4.770   8.853   0.335  0.1115  0.3801 -0.1646
 5033W        W20164   7.614  12.056   2.569  0.2372  0.4214 -0.0238
 5034W        W20165  10.100  16.555  10.725  0.0437 -0.2187  0.0617
 5035W        W20166  11.909   4.726   3.809 -0.0947  0.1112  0.1381
 5036W        W20167   0.098  11.726  10.904 -0.2131 -0.2465 -0.0246
 5037W        W20168   1.983  11.676  13.826 -0.0742 -0.0172 -0.0738
 5038W        W20169  15.848   3.447  14.732 -0.0019 -0.0213 -0.1663
 5039W        W20170  11.701  13.989  15.191  0.0239 -0.1745 -0.1031
 5040W        W20171  14.676  16.880   0.557  0.1187 -0.0253  0.1007
 5041W        W20172   5.079  15.516   0.295  0.1778 -0.1468  0.0422
 5042W        W20173   9.440   7.854  15.255  0.1437  0.1023  0.0589
 5043W        W20174   8.877  12.377   4.487 -0.1663  0.0457  0.0804
 5044W        W20175   0.735  15.536   5.083 -0.1135 -0.1362 -0.2246
 5045W        W20176   3.935  17.282  14.983 -0.0002  0.2292  0.1478
 5046W        W20177   8.334   0.762  14.650  0.0915 -0.1358 -0.1893
 5047W        W20178   4.179   5.022  12.473  0.2018  0.3447 -0.1904
 5048W        W20179   3.675   6.923  13.059  0.1690  0.0883 -0.0307
 5049W        W20180  10.194   7.168  12.585 -0.0651 -0.0429 -0.1160
 5050W        W20181  10.514   1.816  15.925  0.0180 -0.1116  0.0361
 5051W        W20182   9.443   9.074   2.117  0.2245 -0.3239 -0.1098
 5052W        W20183   9.751   7.209   0.933  0.0315  0.0339 -0.0255
 5053W        W20184  11.507  14.750  12.330 -0.1529  0.2982  0.2499
 5054W        W20185   9.298   6.670  13.235  0.1370 -0.0723 -0.0572
 5055W        W20186  13.665  12.576   3.077 -0.0512  0.0267  0.3843
 5056W        W20187   6.300   0.042   5.863 -0.0840 -0.0217  0.1907
 5057W        W20188  12.917  17.929   4.396 -0.0839 -0.3067  0.1149
 5058W        W20189   2.478   9.544  13.798 -0.2040  0.1560 -0.0624
 5059W        W20190  18.065  13.926   3.952 -0.0139  0.1524 -0.0699
 5060W        W20191   3.533  17.089   2.375  0.1288  0.1691 -0.0776
 5061W        W20192   6.384  16.317   0.124  0.1230 -0.1438 -0.2774
 5062W        W20193   5.469  10.402  11.460 -0.2340 -0.2372 -0.3053
 5063W        W20194  16.226  11.372   0.505  0.1508  0.1050  0.1894
 5064W        W20195  16.958  11.840  15.879  0.1557  0.0668  0.1112
 5065W        W20196   3.126  10.628  11.890 -0.2126 -0.0023 -0.1557
 5066W        W20197   6.357  12.791   3.801 -0.1080  0.2476  0.0880
 5067W        W20198  17.308   6.846   2.128  0.0580  0.0086  0.2682
 5068W        W20199  17.026   0.722   2.534 -0.6395  0.2896 -0.2840
 5069W        W20200   2.455  15.438  13.179 -0.0682 -0.0601 -0.0567
 5070W        W20201  10.315   4.042   1.304  0.0134 -0.0025 -0.0219
 5071W        W20202   8.707  15.033   1.754  0.2338  0.1486 -0.1892
 5072W        W20203  10.711  12.671  13.874 -0.3871  0.1121 -0.1011
 5073W        W20204  16.102   1.089   0.442 -0.0999  0.0759  0.1070
 5074W        W20205  15.378   7.533   3.221 -0.3561 -0.1219 -0.2414
 5075W        W20206   2.658   2.876  15.966 -0.2787 -0.1836 -0.1085
 5076W        W20207  13.308   7.789   4.034 -0.0866 -0.0372  0.2393
 5077W        W20208   3.734   6.417   2.643 -0.0805 -0.0759  0.1852
 5078W        W20209  15.837   7.360  15.612 -0.1780  0.1148  0.0987
 5079W        W20210   1.751   8.125  11.194  0.1231  0.1575  0.0749
 5080W        W20211   1.655   0.930  11.667 -0.2892  0.2449  0.0896
 5081W        W20212   1.230   8.313  11.132  0.0356  0.0833 -0.0122
 5082W        W20213  12.588   4.872  16.204  0.0671  0.2574 -0.1083
 5083W        W20214   3.038  15.610   5.218  0.1596 -0.2585  0.0860
 5084W        W20215  13.613  14.779  11.449  0.0716 -0.1560 -0.3678
 5085W        W20216   1.147  13.169   1.206 -0.0458 -0.0746  0.1046
 5086W        W20217  15.437   0.090   0.402 -0.1754 -0.0045  0.0087
 5087W        W20218  13.352   5.860   0.894  0.0551  0.0111 -0.0292
 5088W        W20219  11.787   5.479   2.074 -0.3978  0.4515 -0.3658
 5089W        W20220   5.602  17.919  12.855 -0.1172  0.2360  0.2504
 5090W        W20221   3.518  12.421   2.795  0.2538 -0.2519  0.3615
 5091W        W20222   6.546  15.591  11.227 -0.1007 -0.0532 -0.0671
 5092W        W20223  12.362  13.286   1.432 -0.3345 -0.1417  0.1124
 5093W        W20224   8.258   4.694   3.986 -0.1794  0.1035  0.1449
 5094W        W20225  17.524   4.730  11.376  0.0774  0.0412 -0.1822
 5095W        W20226  13.137   9.888   0.527  0.1285  0.0968  0.0428
 5096W        W20227  13.133   4.908  13.506 -0.0494  0.1091  0.4066
 5097W        W20228   8.969   7.474   4.103 -0.1704 -0.1472  0.1753
 5098W        W20229   6.102  12.823   0.742 -0.0081 -0.0687  0.4281
 5099W        W20230   4.046  12.903  11.311 -0.2832  0.1297  0.2203
 5100W        W20231   2.682  17.699  10.480 -0.0783  0.1879  0.3573
 5101W        W20232   2.296  16.126   5.225 -0.2039  0.0068 -0.1967
 5102W        W20233  16.936  17.601  11.473 -0.0482 -0.1190 -0.2290
 5103W        W20234   6.153   2.554   2.420 -0.5194 -0.0288 -0.1310
 5104W        W20235   4.046  16.849   5.523  0.1780  0.0126  0.0642
 5105W        W20236   1.492  13.277   1.669 -0.1091 -0.1961  0.1529
 5106W        W20237   6.214   7.340  11.039  0.0606  0.2474 -0.0538
 5107W        W20238   0.958  17.236   0.103  0.1490  0.0557  0.0564
 5108W        W20239   7.087   2.605  15.280 -0.0423  0.1792  0.3170
 5109W        W20240   4.185   3.252  13.582 -0.3715  0.2962 -0.0385
 5110W        W20241   4.918   0.885   5.940  0.1189  0.1847 -0.1786
 5111W        W20242   9.550   9.727  15.545  0.0436  0.3669  0.0109
 5112W        W20243   6.211  10.376  16.298  0.2562  0.1353  0.1152
 5113W        W20244  16.950  14.424   3.258 -0.0036  0.0128  0.0005
 5114W        W20245  12.324  16.745  15.660 -0.0656  0.0726 -0.0681
 5115W        W20246   9.139   8.845  12.572 -0.3190 -0.2975 -0.0990
 5116W        W20247   1.205   9.528  14.983  0.4290 -0.0014 -0.2784
 5117W        W20248   6.649  14.655   4.246 -0.1802 -0.2693 -0.0458
 5118W        W20249   1.264   3.670  12.819  0.0241  0.3257  0.3541
 5119W        W20250  13.019  14.691   5.579 -0.0167  0.0122 -0.2575
 5120W        W20251   0.871  12.024  14.696 -0.0603 -0.0039 -0.2489
 5121W        W20252  10.954   5.786   4.907  0.0157 -0.1436 -0.0617
 5122W        W20253   0.377  16.892   6.173 -0.4574  0.0964 -0.0918
 5123W        W20254   3.349  14.051  11.879 -0.0563 -0.0288 -0.0088
 5124W        W20255   4.808   5.739   4.958  0.4314 -0.2850 -0.1845
 5125W        W20256   5.489  13.451   2.234 -0.0707 -0.0126  0.3824
 5126W        W20257  12.789   7.636  14.934 -0.0505 -0.3556 -0.4326
 5127W        W20258   4.933  11.088   2.004  0.1626  0.3219  0.1981
 5128W        W20259   5.343  16.057   4.322 -0.0649 -0.1750 -0.0649
 5129W        W20260  13.849   1.744  11.554  0.1607  0.2730  0.0838
 5130W        W20261   5.208   5.496  13.156 -0.0303 -0.1578 -0.2964
 5131W        W20262  11.470   1.812  13.812  0.2939 -0.0131  0.1525
 5132W        W20263  10.107  11.415  16.260 -0.2813 -0.1434 -0.2567
 5133W        W20264  14.135   6.664  14.916 -0.1669 -0.1589 -0.1039
 5134W        W20265  15.908  13.411  14.422  0.1218 -0.0047  0.0815
 5135W        W20266  12.935   6.292  12.263  0.0081 -0.1759  0.0230
 5136W        W20267  10.332   7.587  12.205  0.0926 -0.1043  0.0838
 5137W        W20268   8.734   4.879  12.292  0.3093  0.1545  0.2976
 5138W        W20269  12.742   6.507   1.885 -0.3623 -0.1023  0.1937
 5139W        W20270  11.155   3.990   2.019 -0.1585 -0.0401  0.3205
 5140W        W20271  16.807   1.093   5.538 -0.0334 -0.0332 -0.1233
 5141W        W20272   2.257  12.727  13.648  0.0042 -0.1375  0.0324
 5142W        W20273  14.584   2.867  16.207 -0.1035 -0.3649  0.2219
 5143W        W20274   2.945  13.507   1.734 -0.1425 -0.2232 -0.2010
 5144W        W20275  17.861   5.992   4.406 -0.0709 -0.0402 -0.0689
 5145W        W20276   2.918   3.181  11.402 -0.1223 -0.1819 -0.1564
 5146W        W20277  11.042  14.952   2.740 -0.1109  0.0607  0.1199
 5147W        W20278  16.802  13.886  11.944 -0.1846 -0.1234  0.2703
 5148W        W20279  14.089   9.529   3.446 -0.0912 -0.0902 -0.2109
 5149W        W20280   5.742   9.728   2.488  0.3205  0.0793  0.0325
 5150W        W20281   0.610   1.950   0.342 -0.1919 -0.0596 -0.1188
 5151W        W20282  12.342  16.385   1.038 -0.1309 -0.3066 -0.0658
 5152W        W20283  12.420   1.162  12.051 -0.3028 -0.3065  0.2198
 5153W        W20284   5.664   9.107  13.955  0.0190 -0.2573 -0.0021
 5154W        W20285  15.104  13.619  14.157  0.2418 -0.2989 -0.3418
 5155W        W20286   3.776  12.603  16.190 -0.0624  0.0238  0.0921
 5156W        W20287   4.944   4.538  15.330 -0.0375 -0.1515  0.2461
 5157W        W20288  13.933  17.199  16.048  0.1109 -0.2405 -0.1233
 5158W        W20289   4.713  13.935   1.527  0.2001  0.0622 -0.0473
 5159W        W20290   8.796  15.540   1.978  0.0691 -0.1677 -0.1648
 5160W        W20291   5.237   0.922   3.038  0.1426  0.2812  0.0347
 5161W        W20292   9.332  12.609   0.566 -0.4622  0.3487  0.2916
 5162W        W20293   5.761  15.646  13.393  0.3264 -0.0704  0.1041
 5163W        W20294   5.885   0.632  12.046 -0.0940 -0.0591 -0.3151
 5164W        W20295  12.689   5.064   3.337  0.0659  0.0494 -0.3184
 5165W        W20296   9.887   8.491   9.993 -0.1513 -0.1358 -0.1726
 5166W        W20297   9.421  14.066   5.408  0.0798  0.1008  0.2704
 5167W        W20298   3.056   4.411  12.334 -0.1596 -0.0487 -0.1746
 5168W        W20299  12.065   5.640   3.099 -0.3070  0.0032  0.0645
 5169W        W20300  15.978  13.459   3.558 -0.2212  0.0930 -0.2433
 5170W        W20301   4.234   1.299   0.441 -0.1354 -0.0058  0.0032
 5171W        W20302   4.702   4.707   1.952  0.1623  0.1066 -0.2196
 5172W        W20303  17.778   3.587  14.572  0.0966 -0.0345  0.1071
 5173W        W20304   8.168   9.818  16.305 -0.0341  0.1737 -0.0317
 5174W        W20305   0.067   9.844  16.092 -0.0505  0.1211 -0.1559
 5175W        W20306  13.088  10.919  11.632  0.0368 -0.2734  0.2961
 5176W        W20307   9.406  13.126  12.934 -0.4488 -0.0791 -0.2360
 5177W        W20308   0.580   5.535   5.245 -0.2102 -0.1895  0.2591
 5178W        W20309   1.380   4.910  11.039  0.2979 -0.1763 -0.2283
 5179W        W20310  12.907  11.084   1.545  0.0650  0.0219  0.0963
 5180W        W20311   3.411   2.704   3.479  0.1608  0.0906 -0.0207
 5181W        W20312   1.919   6.696   1.488  0.2426 -0.1902 -0.2491
 5182W        W20313   7.298   6.151  12.674  0.0433 -0.2287 -0.0422
 5183W        W20314  13.260  14.958  13.519  0.1984  0.2283  0.2534
 5184W        W20315   8.455   4.114   1.906 -0.1254 -0.2788 -0.1270
 5185W        W20316  15.329   3.032   4.670  0.2059  0.0340  0.1841
 5186W        W20317  14.963  11.265  14.751 -0.0196 -0.1833 -0.0893
 5187W        W20318   3.731  14.425  11.950  0.0724  0.0885 -0.1476
 5188W        W20319   7.049  10.675   2.399  0.0772 -0.1594  0.1041
 5189W        W20320   1.970   1.149  12.861  0.2474  0.0918  0.2032
 5190W        W20321   5.707   9.712  15.656 -0.3616 -0.0005 -0.2188
 5191W        W20322   7.437   8.248   3.916  0.0058  0.2587 -0.0016
 5192W        W20323  15.691   8.535   4.647 -0.1853  0.0363 -0.2438
 5193W        W20324  11.457   8.248  12.330  0.2402  0.0155 -0.1017
 5194W        W20325   1.936  15.577  14.834 -0.1501 -0.0236 -0.2542
 5195W        W20326   7.853  13.921   3.151  0.0534 -0.0256 -0.2221
 5196W        W20327  12.882   3.844  16.257  0.0667  0.1629  0.0805
 5197W        W20328  17.428   8.055   0.712  0.0804  0.0796 -0.3892
 5198W        W20329  10.088  14.645  14.054  0.2344  0.0882 -0.1481
 5199W        W20330   0.313  16.219   1.058 -0.2708  0.0639 -0.4807
 5200W        W20331   2.706   1.982  11.801 -0.2689 -0.0093 -0.0619
 5201W        W20332   4.068   6.026   5.320  0.0260  0.1334  0.0292
 5202W        W20333  17.205  10.905  13.882  0.0579  0.0210 -0.0387
 5203W        W20334  13.041   6.924  15.597 -0.0997  0.2274  0.3142
 5204W        W20335   9.511   1.646  15.543 -0.3241  0.1277  0.0460
 5205W        W20336  17.708  15.571  14.403  0.2957  0.0278  0.0925
 5206W        W20337   3.077   8.537  11.099  0.2231 -0.0213 -0.2167
 5207W        W20338  16.085  15.607  13.537  0.3795  0.1794 -0.3279
 5208W        W20339   8.821  12.332  15.728  0.3424  0.1427  0.1088
 5209W        W20340   0.096  12.892  12.299 -0.1007  0.4342  0.2632
 5210W        W20341  12.861  14.505   4.596  0.1839 -0.0592  0.1603
 5211W        W20342  16.735  10.273   0.464  0.0331  0.1168 -0.1976
 5212W        W20343  17.272  11.433   2.113  0.2150  0.0294 -0.3091
 5213W        W20344   4.340   6.949  14.160 -0.0261 -0.0904 -0.0022
 5214W        W20345  16.097   6.108   1.903  0.1628  0.2129  0.0972
 5215W        W20346  17.791   1.958  10.689 -0.0252 -0.0399 -0.3218
 5216W        W20347  15.287   9.912  15.800  0.0335  0.1430  0.3338
 5217W        W20348   2.714   8.670  10.290  0.1523  0.0921 -0.0073
 5218W        W20349   7.564   5.228  11.382 -0.0661 -0.3243  0.2079
 5219W        W20350   0.218  15.865  11.406 -0.0364 -0.0332 -0.0361
 5220W        W20351   7.623  10.073  13.025 -0.0300 -0.1174 -0.0873
 5221W        W20352   3.352   6.240   0.928  0.1703 -0.2607  0.1672
 5222W        W20353   3.431   3.192   3.346 -0.1420 -0.2551 -0.0691
 5223W        W20354  17.316  15.547   5.111  0.1736 -0.0353  0.0673
 5224W        W20355   1.622   0.529  16.078 -0.1943  0.0141  0.3378
 5225W        W20356  15.728   1.890  10.584  0.1251  0.1635  0.0254
 5226W        W20357   4.815   3.656   2.493  0.0790  0.3442 -0.1128
 5227W        W20358   3.941   0.492  13.833 -0.2556  0.2149 -0.0756
 5228W        W20359  10.835  17.709  15.048 -0.3394  0.1766  0.1229
 5229W        W20360   9.073  16.237  12.880  0.1809  0.0755 -0.0858
 5230W        W20361   4.383   9.920   0.214 -0.2656  0.1012  0.2388
 5231W        W20362   1.554   6.952  13.611  0.0449  0.1644 -0.0244
 5232W        W20363  13.199   1.679   4.105 -0.2840  0.1497 -0.1923
 5233W        W20364   3.688  12.847  15.706  0.5896 -0.2897 -0.1861
 5234W        W20365   5.645  10.830  13.799 -0.5941  0.0922 -0.0458
 5235W        W20366  16.011   0.243  12.693  0.0794 -0.0764  0.1705
 5236W        W20367  11.487  15.017  12.794  0.1223 -0.4082 -0.1768
 5237W        W20368   0.396  12.412  12.369 -0.2207 -0.0191  0.4204
 5238W        W20369  12.239  17.975  11.485 -0.1612 -0.1984  0.1312
 5239W        W20370  11.383   6.758  15.951 -0.0547 -0.1595 -0.0207
 5240W        W20371   1.742  14.736  12.838 -0.2176 -0.0891 -0.0059
 5241W        W20372  11.612   4.572   1.079  0.1653  0.0090 -0.3279
 5242W        W20373   6.336  10.657  14.342  0.3001 -0.1952 -0.0707
 5243W        W20374  17.970  10.460   0.684 -0.1939  0.0035 -0.0232
 5244W        W20375   2.720  14.234   5.728 -0.1480 -0.0903 -0.1448
 5245W        W20376  10.125   5.940   5.079 -0.1607 -0.0943  0.4146
 5246W        W20377   9.985   3.952  14.432  0.0427 -0.1781  0.0702
 5247W        W20378   6.105   7.208   4.308 -0.0652 -0.1552 -0.1333
 5248W        W20379  17.211  12.612  15.532  0.2644  0.0522  0.0444
 5249W        W20380   6.978   4.920   2.089  0.0868 -0.2669 -0.2917
 5250W        W20381  10.180  10.964  12.974  0.1822 -0.1733  0.0464
 5251W        W20382   7.676   2.118   3.756 -0.2870  0.2357  0.0045
 5252W        W20383  13.585  10.610  16.094  0.2589  0.1791  0.0650
 5253W        W20384  15.787   4.125   0.738 -0.1176 -0.0852  0.1060
 5254W        W20385  16.337   7.365  12.700  0.1222 -0.0593  0.1789
 5255W        W20386  11.076   1.425   0.756 -0.1289 -0.0435  0.2619
 5256W        W20387  10.840   7.378   0.745  0.3254 -0.0254 -0.0882
 5257W        W20388   5.635   6.869   0.269  0.0672  0.1331  0.4202
 5258W        W20389   1.947  14.303   0.789 -0.3051 -0.3906 -0.0720
 5259W        W20390  14.494   4.657   5.427  0.0628 -0.3270 -0.1151
 5260W        W20391   1.647  17.136  13.161 -0.1028 -0.1803 -0.0352
 5261W        W20392   3.476  15.035   1.461 -0.3819  0.0120  0.0427
 5262W        W20393   9.336   2.009   0.339  0.2185  0.0941 -0.1986
 5263W        W20394   7.148  13.496   4.925 -0.2141 -0.2526  0.0872
 5264W        W20395   3.990  14.495   5.172 -0.2339 -0.0600  0.2260
 5265W        W20396   1.983  11.125  12.133  0.1692 -0.0996  0.0955
 5266W        W20397   7.509   7.772   3.105  0.0439 -0.0336 -0.1579
 5267W        W20398   2.050   4.530   0.180 -0.0631 -0.0378 -0.1506
 5268W        W20399  15.778   3.269  15.282 -0.1054 -0.1797 -0.0494
 5269W        W20400  11.693   6.506  15.225 -0.2405 -0.1030  0.2208
 5270W        W20401  16.662   1.123  13.600  0.3019 -0.1520  0.2844
 5271W        W20402  13.221   7.102   4.604  0.0968 -0.0084 -0.0888
 5272W        W20403   7.306  17.636   4.124  0.1039  0.1536  0.0283
 5273W        W20404   8.610   9.509   3.417  0.2045 -0.0065  0.3264
 5274W        W20405  15.678   6.956   0.462  0.0317 -0.0383  0.2741
 5275W        W20406  15.583  11.109   4.910  0.1355 -0.0208 -0.3949
 5276W        W20407   4.868  16.423   3.790  0.2235  0.2629 -0.2234
 5277W        W20408   8.807   8.508  11.574  0.0092  0.0787  0.1460
 5278W        W20409   2.321  17.922  16.338  0.0100 -0.0802 -0.1175
 5279W        W20410   3.017  13.595  15.760  0.0268  0.1041  0.0410
 5280W        W20411   9.129   7.511  12.524 -0.0276  0.0390  0.3233
 5281W        W20412   3.405  16.593   4.326  0.1306 -0.0326 -0.2701
 5282W        W20413   1.196  14.302  15.511  0.6149 -0.2096  0.2230
 5283W        W20414   6.127  13.970  15.224  0.4156  0.1178  0.0851
 5284W        W20415  15.023   0.923  14.613  0.3612 -0.1648 -0.2516
 5285W        W20416  13.453   5.223   2.115  0.3265  0.2160 -0.1594
 5286W        W20417  11.367  14.143  13.202  0.2586 -0.3128  0.0568
 5287W        W20418  11.444   6.153  12.024 -0.1490 -0.2918  0.3252
 5288W        W20419   2.623  12.239  10.798  0.0259  0.3098 -0.0596
 5289W        W20420  14.294  16.922   1.309 -0.1268 -0.0166 -0.0986
 5290W        W20421   7.444  16.456   3.582 -0.0070 -0.0223 -0.1375
 5291W        W20422  10.267  10.088  14.403  0.1327  0.5272  0.1552
 5292W        W20423  16.008   1.580   4.906 -0.0749 -0.1421  0.0514
 5293W        W20424   7.572  10.092   0.918  0.1065 -0.0574 -0.1980
 5294W        W20425   0.390   3.805   1.845  0.0311  0.3718 -0.2375
 5295W        W20426  15.861   9.145   3.686 -0.0060  0.1813 -0.2155
 5296W        W20427  13.067   9.708  16.451  0.0871 -0.0717  0.3962
 5297W        W20428  10.691  14.331   3.947  0.2826  0.1315 -0.2241
 5298W        W20429  10.611  16.206   1.684 -0.4166  0.0687  0.0909
 5299W        W20430  11.988  12.915  11.395 -0.0684  0.3089 -0.0134
 5300W        W20431  17.724   8.801  11.576 -0.0033  0.0281  0.1257
 5301W        W20432   0.671   6.555  12.612 -0.1600  0.0380  0.1397
 5302W        W20433   1.293   3.550  14.669 -0.0685  0.0050 -0.1250
 5303W        W20434  14.658  18.065   2.285  0.0561 -0.1742  0.1204
 5304W        W20435  10.455  13.211   0.819 -0.0825 -0.0790  0.2588
 5305W        W20436  10.497   3.436  13.821 -0.1043 -0.2886 -0.1770
 5306W        W20437   2.997  10.703  13.800 -0.2151 -0.0861 -0.0072
 5307W        W20438  15.694  11.307  13.973  0.2135  0.0546 -0.0824
 5308W        W20439   2.319  15.566   3.990 -0.0922 -0.4589  0.2856
 5309W        W20440   1.922  15.989   5.663  0.1039 -0.1196 -0.1072
 5310W        W20441  14.254  11.273  12.291 -0.1863 -0.3183 -0.0676
 5311W        W20442  13.199   1.081   1.720 -0.0357  0.2458 -0.1037
 5312W        W20443   2.862   1.558   2.790 -0.2336  0.0722  0.0532
 5313W        W20444   0.900   5.210  12.420  0.0877 -0.2109 -0.2034
 5314W        W20445  14.353   6.649  15.809 -0.1757  0.1630 -0.2335
 5315W        W20446   5.516   5.727  10.201 -0.0043 -0.1668 -0.0162
 5316W        W20447   2.114  10.413   1.017  0.1013  0.1085 -0.1974
 5317W        W20448  17.999  11.718  10.065  0.2992 -0.0226  0.3620
 5318W        W20449  15.854  17.526  14.840  0.0028  0.0642 -0.0804
 5319W        W20450  12.387   6.115   6.018 -0.0176 -0.1134  0.0562
 5320W        W20451  11.021   9.021  13.825  0.0607 -0.1437  0.0576
 5321W        W20452  13.089   6.499   0.357 -0.0719 -0.1375 -0.0265
 5322W        W20453  10.993  12.864  16.059 -0.0571 -0.4699  0.0451
 5323W        W20454  13.657   3.880   2.498 -0.0779 -0.1465  0.2126
 5324W        W20455  11.622   5.264  11.047 -0.2921 -0.0401 -0.4226
 5325W        W20456   1.770   1.417  15.840  0.0462  0.1079 -0.5605
 5326W        W20457  11.878   3.832  12.052  0.0724 -0.2557 -0.0732
 5327W        W20458  17.337  10.171  14.869 -0.1249  0.2216 -0.1099
 5328W        W20459  14.012   2.261   3.432 -0.1133  0.2932 -0.1401
 5329W        W20460  17.930   0.025  12.093  0.1402 -0.2010  0.0559
 5330W        W20461  12.543  11.477   0.707  0.1330  0.1061 -0.0860
 5331W        W20462   6.104   9.954   0.153  0.0217  0.0491  0.2004
 5332W        W20463   1.207  14.987  14.741  0.1490 -0.2399  0.1600
 5333W        W20464   2.237   7.028  15.217  0.0328 -0.0183  0.0186
 5334W        W20465   1.108  15.910   4.849 -0.0129  0.0566  0.1563
 5335W        W20466   6.247  15.719   6.121 -0.0036 -0.1115 -0.0005
 5336W        W20467  17.660  11.697  11.833 -0.0722 -0.1385 -0.1770
 5337W        W20468  10.100  16.490   6.133  0.1621  0.0723 -0.0351
 5338W        W20469   0.183   4.451   0.945  0.0867 -0.1746 -0.2373
 5339W        W20470   6.583   1.011   3.482 -0.0097  0.1101  0.0264
 5340W        W20471   8.329   7.729   1.736  0.3089 -0.3697 -0.1045
 5341W        W20472   7.530   7.365   4.441  0.0679 -0.3609 -0.2378
 5342W        W20473  14.731   7.673  15.096 -0.0234  0.2104 -0.0026
 5343W        W20474   2.532   0.659   2.946  0.1428 -0.0057  0.0691
 5344W        W20475  11.282  16.372   5.267  0.2004  0.1327 -0.1320
 5345W        W20476  14.296  13.666   4.579 -0.4128  0.1617  0.1599
 5346W        W20477  10.328   1.270   5.584 -0.1446  0.2363  0.0931
 5347W        W20478  11.107  12.512   1.796 -0.1881 -0.1097  0.2294
 5348W        W20479  12.846  17.661  11.420  0.0845 -0.0137 -0.2444
 5349W        W20480   2.959   2.206  12.473  0.1172  0.3280 -0.0713
 5350W        W20481   9.251  17.236  15.014  0.0387 -0.0828  0.2346
 5351W        W20482   7.472   6.237  12.168 -0.3637 -0.0461 -0.1266
 5352W        W20483   7.765  14.246  15.936  0.0465 -0.0551  0.1959
 5353W        W20484   5.764  14.532  13.928 -0.4491  0.0079 -0.0784
 5354W        W20485   3.361   2.521  11.844  0.0668  0.1624 -0.0751
 5355W        W20486  13.302  13.926   5.439 -0.2136 -0.0826  0.1542
 5356W        W20487   7.566   5.798   4.561  0.0792 -0.0693  0.2685
 5357W        W20488  15.545   7.408   3.731 -0.2274  0.0136 -0.0231
 5358W        W20489   9.480   1.759  11.490  0.0567  0.1863  0.1273
 5359W        W20490   2.975   5.546   1.357  0.1280  0.1553  0.0074
 5360W        W20491   2.064  13.943  13.540 -0.2987 -0.2538 -0.1206
 5361W        W20492  17.028   9.165   3.239 -0.1058  0.0265  0.0350
 5362W        W20493  12.950  11.281   2.765 -0.2307 -0.0478 -0.2800
 5363W        W20494   7.608  10.548  11.206 -0.2188  0.0997  0.4735
 5364W        W20495   1.054   3.161  16.016  0.1474  0.0773 -0.0680
 5365W        W20496   1.407  15.164  15.862  0.0941 -0.2452 -0.0950
 5366W        W20497  10.188   4.502   9.681  0.1942  0.4179 -0.1912
 5367W        W20498   4.636  10.718   2.185 -0.0020  0.2339  0.0891
 5368W        W20499  13.554   6.503   3.824 -0.1178  0.3951 -0.2800
 5369W        W20500  11.415   2.605   4.973 -0.2775  0.3265  0.1413
 5370W        W20501   5.383  16.835  14.476  0.0484 -0.1181  0.0849
 5371W        W20502   2.671  10.233   1.640  0.1180  0.2300  0.1450
 5372W        W20503  16.713   9.106  12.585  0.3090 -0.2329 -0.3183
 5373W        W20504   5.200   4.905  12.274 -0.1424  0.0140 -0.0612
 5374W        W20505   2.616   8.801  13.546  0.0432  0.3620  0.0360
 5375W        W20506  10.332  16.410   3.780  0.1340 -0.5150 -0.0676
 5376W        W20507  17.572  13.664  15.870 -0.1664 -0.0617  0.2983
 5377W        W20508   6.958   4.755   1.318  0.0488  0.0755  0.1057
 5378W        W20509   2.204  11.469  12.887 -0.0765 -0.0252 -0.1523
 5379W        W20510  14.356   5.163   0.076 -0.2418  0.1865 -0.0540
 5380W        W20511  10.807  16.118   4.201 -0.1444  0.3450  0.0995
 5381W        W20512   5.085   2.728  16.308 -0.0389 -0.3099 -0.2279
 5382W        W20513  10.476  13.991   3.743  0.0965  0.1516  0.2305
 5383W        W20514   1.503  13.463   3.119 -0.0385 -0.0021  0.2559
 5384W        W20515  12.740  10.585   1.596  0.1738  0.0644  0.4858
 5385W        W20516  13.309   6.813  14.917 -0.0298 -0.0190  0.3657
 5386W        W20517   4.606  13.122  15.105  0.1696  0.1674 -0.1541
 5387W        W20518   1.325   4.839  16.029 -0.0686 -0.0772  0.0711
 5388W        W20519   4.366  12.703  10.929 -0.0227 -0.2968  0.0162
 5389W        W20520  13.724  15.515  14.151 -0.3625 -0.1605 -0.0145
 5390W        W20521   8.457   0.306   3.921 -0.0210 -0.1267  0.1361
 5391W        W20522  11.524  16.859  14.539  0.4098 -0.0418 -0.1094
 5392W        W20523   0.931   0.586   5.366  0.0324  0.3541  0.0130
 5393W        W20524   3.982   0.369  12.665 -0.1944  0.0306  0.1464
 5394W        W20525   8.110   3.252   4.765  0.2611 -0.1398  0.0078
 5395W        W20526  16.436  13.453   4.323  0.1656  0.1986  0.0661
 5396W        W20527   9.152   2.597  13.350 -0.2030  0.0348 -0.4021
 5397W        W20528   2.986  12.722  15.680 -0.4589 -0.4804  0.0038
 5398W        W20529   3.488   4.589   0.287 -0.0578  0.0288 -0.1023
 5399W        W20530   3.632  13.380   3.711  0.0288  0.0597 -0.2827
 5400W        W20531   5.743   4.208  14.324 -0.0640  0.0198 -0.4164
 5401W        W20532   7.911   0.751   2.525  0.0305 -0.1212 -0.0089
 5402W        W20533   0.690  16.763   0.688  0.0596  0.1727 -0.0846
 5403W        W20534   2.224  11.657   4.968  0.3063 -0.0182 -0.0205
 5404W        W20535   4.300  17.081  11.419 -0.1077  0.5429  0.0482
 5405W        W20536   4.022   9.837   2.988 -0.0063  0.2575  0.2625
 5406W        W20537   4.817  14.243  12.739 -0.0562 -0.0237 -0.1384
 5407W        W20538   8.003   7.285  11.647  0.2237  0.1670 -0.1655
 5408W        W20539   4.581   4.975  13.732 -0.1986  0.0814  0.1926
 5409W        W20540   2.095  11.578  11.932 -0.1229  0.0270  0.0579
 5410W        W20541   6.495  12.795  13.672  0.0198 -0.1016  0.1146
 5411W        W20542   6.645   1.691  11.675  0.1158 -0.1679  0.0426
 5412W        W20543   9.104   4.140  12.279 -0.2289  0.0997 -0.1555
 5413W        W20544  10.961   6.472  13.101  0.1006  0.0987 -0.1896
 5414W        W20545   5.222  13.705  11.239 -0.1021  0.1695 -0.2425
 5415W        W20546   6.040  12.391   0.519 -0.1099 -0.1349  0.3254
 5416W        W20547   5.710   9.630  11.010  0.0876  0.0677 -0.2906
 5417W        W20548   4.807   1.219  10.294 -0.0487  0.1184 -0.0018
 5418W        W20549   8.584   1.328   2.156 -0.1685 -0.1247 -0.0454
 5419W        W20550   8.842   3.880   3.196  0.0034 -0.1859  0.1293
 5420W        W20551  14.344   3.339  16.260 -0.1012 -0.0302 -0.2219
 5421W        W20552  14.108   1.762   4.528 -0.0380  0.1173  0.2157
 5422W        W20553   9.707   1.643   4.737 -0.0752 -0.1024 -0.1090
 5423W        W20554  15.609   6.920   1.392 -0.2542  0.4481 -0.0782
 5424W        W20555  13.976  10.559   0.155  0.0147 -0.0309 -0.0425
 5425W        W20556   1.231   4.045  13.181  0.1903  0.2693 -0.0759
 5426W        W20557  17.869   3.546   5.997  0.0489  0.0665 -0.2706
 5427W        W20558   4.984   4.708   1.442  0.0426  0.0994 -0.0155
 5428W        W20559  14.426   2.257  13.580  0.0194  0.0861  0.2236
 5429W        W20560   2.147   6.435   2.548  0.1283  0.1589 -0.0111
 5430W        W20561  17.911  15.648   0.316  0.0969 -0.0404 -0.2498
 5431W        W20562   8.108  12.774  11.660 -0.1917  0.1201  0.0526
 5432W        W20563  14.424  10.907   0.546 -0.1727 -0.2278  0.1946
 5433W        W20564   6.260  14.335  16.416  0.1922  0.1541  0.0037
 5434W        W20565   0.640  10.178  12.509  0.0830 -0.0974  0.2432
 5435W        W20566   4.019   4.674  14.766  0.1555  0.0862  0.1929
 5436W        W20567   6.647  14.696   0.597  0.4094 -0.0062  0.1333
 5437W        W20568  14.052   1.600   0.341  0.1364  0.1224  0.0804
 5438W        W20569   4.567   1.178   2.507  0.0945 -0.2439  0.3330
 5439W        W20570  10.575   8.388   5.016  0.4878  0.2457 -0.2786
 5440W        W20571  15.952   3.167   3.911  0.0789  0.0011 -0.0929
 5441W        W20572   4.708   5.134   1.726  0.1473 -0.0568  0.0447
 5442W        W20573   2.852   7.499  13.823 -0.3594  0.1939  0.3368
 5443W        W20574   4.187   2.387  15.520 -0.2673  0.0774 -0.1786
 5444W        W20575   9.423   8.334  14.576 -0.2033  0.0335 -0.0239
 5445W        W20576   5.429   9.440  12.481  0.0952 -0.0037  0.0938
 5446W        W20577  14.729  16.410  12.821  0.0634  0.0563  0.2191
 5447W        W20578   9.834  11.966   2.332  0.0934  0.1078 -0.0883
 5448W        W20579   7.375  13.746   3.252 -0.0896 -0.0072 -0.1158
 5449W        W20580   9.119   3.121  13.758 -0.2759 -0.0491 -0.2492
 5450W        W20581   9.742   0.176   4.377 -0.1489 -0.1746  0.0276
 5451W        W20582   3.691   3.783   1.564 -0.0023  0.3265  0.0668
 5452W        W20583   8.502   6.206   1.612 -0.2235 -0.1087  0.0638
 5453W        W20584   8.255  11.763  13.738 -0.4931 -0.3185  0.2034
 5454W        W20585   3.254  15.148  14.335 -0.2606  0.1079  0.1829
 5455W        W20586  11.944  15.056  13.907  0.2026 -0.2024  0.1526
 5456W        W20587  13.293   0.357   3.886 -0.3072 -0.0554  0.3788
 5457W        W20588  13.341  15.297   1.362 -0.2976 -0.1647 -0.2005
 5458W        W20589   9.552   2.637  11.985 -0.1137  0.0808  0.0072
 5459W        W20590   1.174   3.554  14.139  0.0284 -0.1323  0.2113
 5460W        W20591   4.515   5.886  12.337 -0.0513 -0.0098 -0.0417
 5461W        W20592  15.509   3.811   0.303 -0.1174 -0.1063  0.0023
 5462W        W20593  14.067  14.215  14.415 -0.4794 -0.0346 -0.0531
 5463W        W20594  13.116   3.384   0.790 -0.1812 -0.2936 -0.0217
 5464W        W20595  17.558  10.039  15.339  0.0156  0.2472  0.1511
 5465W        W20596   4.038  14.301  15.892 -0.2585  0.3485  0.1973
 5466W        W20597   0.968   6.362   4.636  0.1246 -0.0583  0.1263
 5467W        W20598   7.533   5.835   3.678  0.1920  0.2383  0.0414
 5468W        W20599   2.595   9.858   1.191 -0.0214  0.7266 -0.3818
 5469W        W20600   3.003   6.114  12.188  0.2169 -0.0776  0.2434
 5470W        W20601   3.259   9.946  10.749 -0.1695 -0.3274 -0.2143
 5471W        W20602  12.712  17.586   5.431 -0.0364 -0.1689  0.1563
 5472W        W20603   8.876  17.416   4.483  0.0972  0.1750 -0.1861
 5473W        W20604   1.240  12.190  12.026 -0.0938 -0.0585  0.1851
 5474W        W20605   0.790   0.415   2.906  0.0126  0.0864  0.2023
 5475W        W20606   6.272  14.383   1.620 -0.1596  0.2334 -0.1660
 5476W        W20607  14.557   5.612  11.800  0.2382 -0.2127  0.0564
 5477W        W20608  15.052   3.952  14.131 -0.1093  0.0375 -0.3190
 5478W        W20609  15.411   3.781   5.765 -0.0363  0.0773  0.0782
 5479W        W20610   9.251  11.364  12.897  0.0391 -0.3719 -0.0987
 5480W        W20611  10.201  17.707  12.028  0.0915 -0.0483 -0.1537
 5481W        W20612   4.350  17.061   3.415  0.0125  0.0931 -0.1060
 5482W        W20613   3.474   6.351   3.021  0.2761 -0.0206 -0.1544
 5483W        W20614  17.776   8.282   0.195 -0.0885 -0.0161 -0.2130
 5484W        W20615  13.376  17.148  10.881  0.0122  0.3979 -0.0045
 5485W        W20616  11.940  17.136   0.836  0.1819 -0.1035  0.1518
 5486W        W20617   2.327  15.973   3.670 -0.3099  0.0448  0.0544
 5487W        W20618   5.824   8.749   2.652 -0.0854  0.0529 -0.2416
 5488W        W20619   8.232   5.692   4.141 -0.0795  0.0907 -0.2088
 5489W        W20620   4.547  12.694  13.415 -0.1424 -0.3010  0.0235
 5490W        W20621   3.557   0.153   5.305 -0.0869 -0.1358 -0.1090
 5491W        W20622   0.055  17.518  12.182  0.0014  0.0403 -0.0880
 5492W        W20623   2.823  13.956   3.495  0.1515  0.2617  0.0309
 5493W        W20624   3.450   7.754   4.040 -0.0923  0.0549 -0.2229
 5494W        W20625   7.303   4.337   1.413  0.1519 -0.2919 -0.0448
 5495W        W20626   3.960  17.812  15.986 -0.1224 -0.2130 -0.2410
 5496W        W20627   2.447   1.076  14.652  0.1468  0.2984  0.1273
 5497W        W20628   1.053   7.310  16.417 -0.1344  0.0457  0.0166
 5498W        W20629   4.741  17.115   4.536 -0.1474 -0.0515  0.4050
 5499W        W20630   4.507  14.927   0.654 -0.2035  0.1566  0.1253
 5500W        W20631  10.483   4.178  12.146 -0.1687  0.0030  0.1490
 5501W        W20632  13.198   1.055   5.516  0.0184  0.1712 -0.3134
 5502W        W20633  17.388  11.244   0.734 -0.0256  0.0777 -0.1553
 5503W        W20634   4.692   9.833  11.880 -0.1472 -0.0668 -0.2734
 5504W        W20635  11.332  10.092   1.129 -0.2853 -0.0086  0.0656
 5505W        W20636  16.044   9.959  13.691  0.4026  0.3762  0.6396
 5506W        W20637   2.229   2.676  14.653 -0.1548  0.3358 -0.2296
 5507W        W20638  15.909  14.724  12.010 -0.0699  0.2138 -0.0668
 5508W        W20639   8.227  12.433  13.795  0.1355  0.4051 -0.0311
 5509W        W20640  14.074  10.579   0.667 -0.2168  0.1437  0.2174
 5510W        W20641  13.682   0.055  11.748  0.0009 -0.1154  0.0897
 5511W        W20642   5.396  14.134   2.568  0.1207  0.1191 -0.1272
 5512W        W20643  11.124  14.662   4.024  0.1834 -0.1126 -0.1635
 5513W        W20644   3.897   0.659   4.074 -0.1640 -0.0103  0.0471
 5514W        W20645  17.917  17.852  14.466 -0.0783 -0.1424  0.3569
 5515W        W20646  15.455   2.862   2.339 -0.1493 -0.1758 -0.2159
 5516W        W20647   5.369   9.178   2.240 -0.0110  0.0778  0.1456
 5517W        W20648   6.999   2.683  13.050 -0.2259 -0.1635 -0.1090
 5518W        W20649   1.136  18.064  15.174  0.1545  0.0604  0.0112
 5519W        W20650   9.958   1.888  15.219 -0.2597 -0.0335  0.0400
 5520W        W20651  13.880   0.142   3.828  0.1350  0.1443 -0.3077
 5521W        W20652  12.270   6.904   0.148 -0.4203  0.1678  0.1118
 5522W        W20653   6.825   8.825   4.267  0.1163 -0.3152  0.2580
 5523W        W20654   5.953   9.455   0.401 -0.0379  0.1567 -0.1702
 5524W        W20655   7.724   3.557   1.148 -0.0340 -0.1565 -0.2196
 5525W        W20656   3.336  17.506   4.017 -0.3450  0.1129  0.2142
 5526W        W20657   7.595   6.580  12.585 -0.0502  0.0213  0.2333
 5527W        W20658   7.050  12.011  12.167  0.0563  0.3465  0.1366
 5528W        W20659   2.950  10.715   0.983 -0.1759  0.0988 -0.1205
 5529W        W20660  16.822   1.778   4.422 -0.0053 -0.0791  0.1172
 5530W        W20661  10.597  16.929   4.483 -0.0630  0.3442 -0.0213
 5531W        W20662   2.508  17.771  14.967 -0.3854  0.3560  0.1251
 5532W        W20663   9.158  16.066   4.861 -0.1015  0.2884  0.1086
 5533W        W20664   1.409   3.348   6.408 -0.1497 -0.0232 -0.3736
 5534W        W20665   8.722   6.448   4.249 -0.0554 -0.0622 -0.1438
 5535W        W20666  17.240   2.464  14.693 -0.1971 -0.0700 -0.1440
 5536W        W20667   9.355  15.056   0.410  0.0263 -0.1718  0.1659
 5537W        W20668  12.038  17.484   2.618  0.0465  0.1958  0.1076
 5538W        W20669  13.533  10.105  14.613  0.0663 -0.1033  0.1052
 5539W        W20670   3.615   1.642  15.322 -0.1954 -0.5471  0.1166
 5540W        W20671  11.300   4.140  14.735 -0.0901  0.3304  0.0057
 5541W        W20672   5.390   8.482  14.713 -0.2279 -0.1137  0.0141
 5542W        W20673  12.026   5.285  13.471 -0.0532  0.0882  0.1268
 5543W        W20674   8.466  17.728   1.417 -0.1580  0.5153  0.1877
 5544W        W20675  17.629  10.250  14.442 -0.3050 -0.1659 -0.0267
 5545W        W20676  17.988   5.523   3.456 -0.0003 -0.0371 -0.1122
 5546W        W20677   5.406   1.986  11.276  0.0439 -0.0699 -0.1092
 5547W        W20678   4.769   1.617   2.361 -0.0857 -0.2170  0.1528
 5548W        W20679  14.053   3.790   1.875  0.0880  0.3997  0.1764
 5549W        W20680  16.345  16.736   2.237  0.3017  0.0720  0.3477
 5550W        W20681   7.254   4.082  14.935  0.1108  0.2846  0.2713
 5551W        W20682   5.103   1.122   1.707 -0.3178  0.1543  0.0430
 5552W        W20683  13.088  10.005  15.500 -0.3018  0.0967  0.0405
 5553W        W20684  12.115   3.630  12.527  0.1987  0.0668  0.1650
 5554W        W20685  11.044   4.563   3.288 -0.0308 -0.2587  0.1856
 5555W        W20686   6.666  15.420  12.593 -0.1274 -0.1525 -0.1981
 5556W        W20687  13.683  14.066  12.082  0.0207  0.1880 -0.0663
 5557W        W20688   5.900   4.116  14.819 -0.1597  0.1994  0.1048
 5558W        W20689   3.571   9.770  15.509  0.0900  0.1930 -0.0521
 5559W        W20690   2.809  16.761  13.469  0.1232  0.1944 -0.1798
 5560W        W20691   7.521   5.733   0.955  0.1540  0.4127 -0.0659
 5561W        W20692  12.205  15.364   1.944 -0.2031  0.0382  0.0169
 5562W        W20693  10.084   0.635   2.217 -0.3267 -0.0463  0.1128
 5563W        W20694   9.931   3.241  13.932  0.1026 -0.0282  0.1042
 5564W        W20695  16.007  10.475  14.483 -0.0422 -0.1449  0.0692
 5565W        W20696   7.362  13.650   0.945 -0.3341 -0.3731 -0.0827
 5566W        W20697  17.574   9.851   2.249  0.0914 -0.0369  0.0596
 5567W        W20698   2.580   2.285   0.480  0.0855 -0.2182  0.1668
 5568W        W20699   2.875   9.545  14.151  0.1808 -0.0386  0.0358
 5569W        W20700  14.449   2.737   4.466  0.1489 -0.1091 -0.0613
 5570W        W20701   4.581   1.929  15.367  0.0249  0.0296  0.0937
 5571W        W20702  15.320  16.972  11.085 -0.0543 -0.2727 -0.1286
 5572W        W20703   1.640   4.464   1.985 -0.1328  0.0416 -0.0664
 5573W        W20704  11.099   3.181   4.039  0.2091  0.0347 -0.1168
 5574W        W20705   2.200  17.316  12.353 -0.2520 -0.0977 -0.0154
 5575W        W20706   8.077  11.407  15.345  0.2717 -0.1952  0.2688
 5576W        W20707  10.112  12.033   4.716  0.0455 -0.2259  0.0310
 5577W        W20708   9.640   0.357   3.330 -0.0677  0.0801 -0.0951
 5578W        W20709   1.102   1.419   1.749  0.2073 -0.1476  0.0926
 5579W        W20710   3.260   6.092   0.386  0.0600 -0.1432  0.1447
 5580W        W20711   9.239   7.805   1.369  0.0291  0.0245 -0.1896
 5581W        W20712  17.242   8.653   5.615  0.0980 -0.0699  0.2048
 5582W        W20713   9.690   4.665  11.353  0.1835  0.1342 -0.1967
 5583W        W20714   9.015  13.632   2.577 -0.1312  0.3566  0.2683
 5584W        W20715  13.980  15.196   3.179 -0.0257  0.2428 -0.0566
 5585W        W20716  11.469   3.524   6.156 -0.3693  0.3337 -0.3576
 5586W        W20717  12.892   3.595  15.416  0.1716  0.2015  0.1124
 5587W        W20718   7.971   1.773   5.479  0.0844  0.1670 -0.2626
 5588W        W20719  12.860  11.070   4.957  0.1313 -0.1529 -0.0832
 5589W        W20720   4.227  11.907  10.950 -0.1171 -0.2759 -0.1515
 5590W        W20721   7.584   5.582  13.618  0.3260 -0.2170  0.2867
 5591W        W20722   7.476   1.693  13.289  0.1636 -0.3357 -0.0079
 5592W        W20723  10.698   6.786   1.173 -0.0329 -0.0957 -0.0223
 5593W        W20724  16.324   9.948   1.338  0.0585 -0.0378 -0.1895
 5594W        W20725   1.964  15.623  12.907  0.3200  0.1867 -0.2813
 5595W        W20726   7.520   1.480  13.807  0.0071 -0.0782  0.0507
 5596W        W20727  15.316  14.093  13.147  0.0756  0.2119 -0.0892
 5597W        W20728  13.672   6.941  12.218 -0.1703  0.1326 -0.0174
 5598W        W20729   7.779  17.211  14.315  0.1969  0.0453  0.4387
 5599W        W20730   6.571  14.711   4.764  0.0972  0.2077 -0.3098
 5600W        W20731   5.592  10.800  13.171 -0.1301 -0.2492 -0.1400
 5601W        W20732   1.452   6.697   2.683  0.0810 -0.1850  0.0155
 5602W        W20733   1.288   7.761  16.460 -0.5640 -0.1766  0.0095
 5603W        W20734  11.903  16.872  15.946 -0.0742  0.0810  0.0953
 5604W        W20735  14.783   6.146  15.170  0.0865 -0.0296 -0.2937
 5605W        W20736  11.884  16.460   1.357  0.0635 -0.0760 -0.0739
 5606W        W20737  15.200   7.616   4.404  0.0775 -0.2267  0.0645
 5607W        W20738  15.081  14.049  15.281 -0.2063 -0.2006  0.1286
 5608W        W20739  14.661   0.144   0.198  0.2488 -0.0247 -0.0887
 5609W        W20740  15.119  10.076  16.440  0.0294  0.3072 -0.4219
 5610W        W20741  10.242   8.374  15.833 -0.1558  0.4322 -0.1369
 5611W        W20742  10.002   1.568   4.318  0.3435 -0.0050 -0.2005
 5612W        W20743   0.975   2.044   2.664  0.0113  0.1279 -0.2228
 5613W        W20744   4.684   6.532  13.909 -0.2578 -0.0977  0.1239
 5614W        W20745   5.946  12.271  12.119  0.1239  0.0135 -0.2828
 5615W        W20746  10.066  13.728   4.479  0.1803 -0.1298  0.1453
 5616W        W20747   7.084   6.271  11.810 -0.1160  0.0008 -0.0492
 5617W        W20748   9.581   6.676  12.808  0.0559  0.2145 -0.1914
 5618W        W20749  11.816   3.873  14.703  0.3157  0.1321 -0.1588
 5619W        W20750   4.452   4.652  15.400  0.1178 -0.1204  0.1050
 5620W        W20751  10.743  17.395  12.779  0.2110 -0.3336 -0.1661
 5621W        W20752  15.239   9.985   4.446 -0.0128  0.2579 -0.1267
 5622W        W20753  17.070   7.154  11.528 -0.3133 -0.2557 -0.1472
 5623W        W20754  14.268  18.107   4.486 -0.0002  0.1888  0.2608
 5624W        W20755  11.025  16.232   0.433  0.2082  0.0502  0.1312
 5625W        W20756   9.941   9.403   1.141 -0.2031  0.0739 -0.0673
 5626W        W20757   2.612   6.276  11.369 -0.1170  0.3155 -0.0046
 5627W        W20758   2.472   5.600   0.994  0.1483  0.1047 -0.0942
 5628W        W20759  15.906   9.995  12.420 -0.0203  0.0378  0.0274
 5629W        W20760  10.048  10.441   3.705  0.0912 -0.0978 -0.2446
 5630W        W20761   7.654   9.654   4.802  0.2685  0.1319  0.0539
 5631W        W20762  15.619   3.850  11.510  0.0358 -0.1023 -0.0125
 5632W        W20763  15.436   9.745   1.410  0.1264 -0.1063 -0.1306
 5633W        W20764  14.946   2.905   1.164 -0.0768 -0.1923 -0.1084
 5634W        W20765  15.633  12.040  13.962 -0.0202 -0.1246  0.5754
 5635W        W20766  10.531  13.070   1.347 -0.3325 -0.0186  0.0475
 5636W        W20767  14.042  14.420  11.374  0.1031  0.0061  0.1230
 5637W        W20768  15.630   0.294  13.082  0.4226 -0.4734 -0.3121
 5638W        W20769  12.971   8.461   1.304 -0.1431  0.0857 -0.1395
 5639W        W20770  12.512   7.024   2.027  0.1801 -0.2315 -0.1113
 5640W        W20771   3.538  14.447  16.024 -0.0716 -0.4482 -0.1683
 5641W        W20772  17.025  17.748   2.053  0.0752  0.2480  0.1389
 5642W        W20773   2.274   8.011   1.060 -0.1249  0.1697  0.0932
 5643W        W20774  17.871   6.723  15.425  0.4120 -0.3032  0.1621
 5644W        W20775  13.775  16.465   4.895  0.0028 -0.0906  0.0611
 5645W        W20776  11.952  16.861  14.870  0.0553 -0.1846  0.1622
 5646W        W20777  17.952  12.848   1.818 -0.0588 -0.1111  0.0750
 5647W        W20778   7.440   8.635  14.853  0.0054  0.2190 -0.1430
 5648W        W20779   0.030  12.613   6.254 -0.1598  0.5434 -0.1262
 5649W        W20780  11.966  12.001  15.508 -0.0176 -0.3182 -0.3535
 5650W        W20781   7.556  17.939   2.311  0.1816 -0.1413 -0.0450
 5651W        W20782   9.522   7.719   2.920  0.1956 -0.2664  0.0142
 5652W        W20783  10.936   8.551   2.991 -0.0488  0.1710 -0.2206
 5653W        W20784  11.362  17.714  15.030  0.2037 -0.2226  0.0183
 5654W        W20785   0.580   1.776  11.693 -0.1936  0.0367  0.0665
 5655W        W20786   4.716   7.407   1.151  0.0244 -0.2647 -0.0029
 5656W        W20787  10.912  10.132   2.195 -0.2498  0.0928 -0.1758
 5657W        W20788   6.249   7.964   2.647  0.1194  0.1025  0.0592
 5658W        W20789  10.682  17.288  15.387  0.1028  0.0226 -0.1677
 5659W        W20790  17.713   4.618   0.174 -0.1184 -0.0800 -0.3565
 5660W        W20791  15.032   4.933   6.484  0.1807  0.1763 -0.1629
 5661W        W20792   2.083  13.464   3.845  0.0553 -0.0237  0.1767
 5662W        W20793  10.318  10.433   4.662 -0.2364 -0.0006 -0.0744
 5663W        W20794  16.398  13.707  14.021 -0.1558 -0.2195 -0.2717
 5664W        W20795  13.393   2.845  12.549 -0.3535  0.0607 -0.0384
 5665W        W20796  15.666  13.584   2.924 -0.0234  0.2002 -0.2211
 5666W        W20797   9.551   2.659   5.577 -0.0353 -0.1859  0.0175
 5667W        W20798   0.145   6.723   1.879  0.0927 -0.0618 -0.0717
 5668W        W20799  16.194   9.460   5.004 -0.0281  0.1557 -0.0919
 5669W        W20800  16.078   8.953   0.050  0.0148  0.3120 -0.3335
 5670W        W20801   8.393   3.044   3.509  0.0267 -0.3572  0.0884
 5671W        W20802  17.501   2.110   5.596  0.0190  0.0080  0.0830
 5672W        W20803   3.660   8.218  11.836 -0.0737  0.0865  0.2825
 5673W        W20804  10.249   9.002   0.908  0.1740  0.2759 -0.1987
 5674W        W20805   9.767  12.405   5.019 -0.1939  0.0627  0.0261
 5675W        W20806   4.265  10.827   3.368  0.1122 -0.1079  0.2568
 5676W        W20807  16.841  12.029  12.687 -0.1732  0.0451  0.0008
 5677W        W20808  15.633   7.173  11.778 -0.0729 -0.1216 -0.1266
 5678W        W20809  17.064  15.861   1.946  0.2100 -0.0254 -0.2033
 5679W        W20810  12.184   5.867   3.508  0.0237 -0.1574  0.2271
 5680W        W20811  15.850  18.020   3.903 -0.0269  0.0382 -0.2039
 5681W        W20812  16.987   5.147   5.590  0.0090 -0.3077  0.1056
 5682W        W20813   6.507   2.206   4.802 -0.1029  0.1007  0.1143
 5683W        W20814   7.994   4.979  16.242  0.1671  0.1172  0.3326
 5684W        W20815  10.397   4.523   3.847  0.2984  0.1638  0.2088
 5685W        W20816   4.357   1.203  12.487  0.1061  0.1499  0.2141
 5686W        W20817   3.953  17.546   0.822  0.2370 -0.1548  0.2173
 5687W        W20818  17.843   0.591  13.986 -0.0141  0.3320 -0.4173
 5688W        W20819   5.148  16.675  15.285  0.3267  0.1654  0.0192
 5689W        W20820   7.246  18.107  16.134 -0.3621 -0.2275  0.0391
 5690W        W20821   7.504  11.151   3.470  0.3105  0.1505 -0.0159
 5691W        W20822   1.098  14.400   0.588 -0.3116 -0.0420  0.1175
 5692W        W20823   1.814   6.425   3.764 -0.0071 -0.0874 -0.1338
 5693W        W20824   9.373   1.136  12.548 -0.1360  0.0629 -0.0909
 5694W        W20825  14.490  12.510  16.193 -0.1209 -0.0429  0.0161
 5695W        W20826  11.909  17.035   2.154 -0.0524  0.2547  0.0875
 5696W        W20827   3.762   9.168  13.390 -0.1394 -0.0685 -0.1172
 5697W        W20828   7.701   4.342  13.073 -0.2261  0.0055  0.1207
 5698W        W20829  14.065   4.860   3.602 -0.2533 -0.1252 -0.2156
 5699W        W20830  16.038  11.966  15.701  0.0122 -0.3528  0.0839
 5700W        W20831  16.178  12.833   1.706  0.0183  0.0285 -0.0979
 5701W        W20832  15.121   3.796  11.359 -0.1795  0.2358 -0.2428
 5702W        W20833   5.398  12.403  12.290  0.0257 -0.1846 -0.5302
 5703W        W20834  14.603  11.299  12.752 -0.0679  0.1361 -0.2689
 5704W        W20835  10.455   4.676   2.937 -0.1996  0.1172  0.0623
 5705W        W20836   4.467   4.098  11.408 -0.0907 -0.0451 -0.1212
 5706W        W20837   5.857  17.716  13.448 -0.1728  0.1833 -0.0405
 5707W        W20838  17.915  10.213  12.823 -0.3604  0.0412  0.1903
 5708W        W20839  16.833  10.642   1.743  0.1068  0.0834 -0.2324
 5709W        W20840  14.957  17.703  14.389 -0.1149 -0.1210  0.1450
 5710W        W20841   8.333   1.394   1.207  0.3157 -0.1636 -0.0729
 5711W        W20842  14.280   9.161   0.251 -0.1215 -0.2474 -0.0880
 5712W        W20843   8.061   2.357   3.085 -0.3561 -0.0269  0.0432
 5713W        W20844  17.859  12.854  11.860 -0.0581  0.1837 -0.1465
 5714W        W20845   7.863   7.144  12.985 -0.1344  0.0749  0.0017
 5715W        W20846   5.889   8.464   1.828  0.0842 -0.0717  0.1939
 5716W        W20847   4.085   3.233  13.086 -0.1771  0.0465  0.0701
 5717W        W20848   0.074   3.474  10.389 -0.2164 -0.0151  0.0369
 5718W        W20849  10.486   1.363  14.536  0.2310 -0.1097 -0.0388
 5719W        W20850   7.111   2.131   0.969 -0.1012 -0.0807 -0.3296
 5720W        W20851   3.736   9.324  16.398  0.1865  0.0993  0.1017
 5721W        W20852  11.555   4.315   2.560  0.2570 -0.1485 -0.0607
 5722W        W20853   8.768   7.266   4.576  0.2371  0.0502 -0.0660
 5723W        W20854   3.002   7.580   3.927  0.3495 -0.2193  0.0210
 5724W        W20855   5.344  13.609   3.682 -0.0352 -0.1058 -0.0806
 5725W        W20856  10.491   6.060   4.814 -0.2803  0.2772 -0.0447
 5726W        W20857   1.870   3.417  15.661 -0.1907 -0.2569 -0.2184
 5727W        W20858  13.952  12.374   3.873 -0.3071  0.0601  0.0407
 5728W        W20859  13.168   1.620   4.601  0.1695  0.0730  0.0238
 5729W        W20860   2.461  10.102  10.861 -0.2667 -0.1621 -0.1456
 5730W        W20861  14.452  10.711   1.375  0.0674  0.1214 -0.1649
 5731W        W20862   7.414   9.326  13.922 -0.2456 -0.1446 -0.0291
 5732W        W20863  15.371   9.861   2.777  0.1728 -0.2622 -0.0398
 5733W        W20864   8.805  13.224  11.314  0.2301  0.0872  0.1281
 5734W        W20865   6.372   4.579  10.027 -0.1674 -0.0696 -0.1818
 5735W        W20866   5.216   8.716  13.801 -0.0537 -0.0964 -0.0189
 5736W        W20867  15.774  11.532  15.753  0.1195  0.2336  0.2498
 5737W        W20868  12.991  10.731   0.607  0.3246  0.2939 -0.2920
 5738W        W20869  14.794   2.800  15.186  0.0167 -0.1605  0.1973
 5739W        W20870   6.239  16.470   0.591  0.1852  0.3734 -0.0959
 5740W        W20871   7.968   1.077  12.549 -0.0697  0.2865 -0.1223
 5741W        W20872  15.509  17.858  14.918 -0.1961 -0.0377  0.0567
 5742W        W20873   3.475  13.868  16.096  0.0633 -0.1740  0.3970
 5743W        W20874   0.656  12.451  10.677 -0.1487 -0.3259 -0.1341
 5744W        W20875  10.997  14.571   5.026 -0.2694  0.3778  0.0303
 5745W        W20876   5.012   1.594   1.307 -0.1616 -0.2813  0.0051
 5746W        W20877   6.897   5.700  12.717 -0.0896  0.0995 -0.0290
 5747W        W20878   3.683   9.868   3.967  0.1645  0.0169  0.0362
 5748W        W20879  10.832   9.415  15.315 -0.2803 -0.0034  0.3779
 5749W        W20880  10.981  11.692  15.778 -0.2017 -0.2338  0.1571
 5750W        W20881  13.782  12.486  11.753  0.1068 -0.2452  0.0377
 5751W        W20882   9.529   1.812   4.196 -0.2863 -0.0184 -0.2243
 5752W        W20883  16.293  17.255  11.812  0.1420  0.1544 -0.1812
 5753W        W20884  14.086  13.310   0.329  0.0969 -0.1629  0.3002
 5754W        W20885  16.211  14.340   2.643 -0.4069 -0.1316 -0.1496
 5755W        W20886   2.086   4.710   3.076  0.3290  0.1992  0.1961
 5756W        W20887  12.671   7.960   5.737  0.1626  0.0467 -0.0296
 5757W        W20888  17.730  12.233   3.081 -0.0913  0.1252  0.3494
 5758W        W20889   0.680  13.601  13.040  0.0890 -0.0878 -0.0684
 5759W        W20890   5.475  14.069   1.093  0.2511  0.2713  0.1172
 5760W        W20891   4.749   0.225  15.847 -0.2136  0.0547  0.1236
 5761W        W20892  13.739  13.148  13.344 -0.0596  0.3925  0.3049
 5762W        W20893   2.050  10.652  15.217 -0.0526  0.1123 -0.0273
 5763W        W20894   1.026   3.858  15.839 -0.0485 -0.2118 -0.0407
 5764W        W20895  12.542  14.566   5.690  0.1654 -0.0914  0.0141
 5765W        W20896   6.951  14.464  16.329  0.0305 -0.1301  0.0732
 5766W        W20897   8.181   3.626  12.102  0.2454  0.2653 -0.0405
 5767W        W20898  14.446  14.229   2.533 -0.0508  0.1729  0.1186
 5768W        W20899  17.602   7.040   3.995  0.0527  0.1582  0.2102
 5769W        W20900  17.577  15.002   4.344 -0.0262 -0.1680 -0.0645
 5770W        W20901  15.662  15.469  13.351  0.0453  0.0847 -0.1524
 5771W        W20902   7.292   4.532   0.178 -0.1242 -0.1602 -0.0432
 5772W        W20903   2.086   4.031  14.940  0.2753 -0.1489  0.1948
 5773W        W20904   0.702  10.652  15.130  0.1106 -0.0601 -0.0077
 5774W        W20905  11.625  17.426   2.288 -0.0537 -0.1534  0.0006
 5775W        W20906   3.480  17.832   4.392 -0.1460  0.1790  0.3436
 5776W        W20907   0.397  13.204  11.274  0.0583  0.3234  0.0936
 5777W        W20908   4.671   0.660  13.561  0.0459  0.0308  0.1324
 5778W        W20909  12.870  14.274  11.027 -0.2759 -0.0500 -0.2175
 5779W        W20910  14.476  14.218   3.963 -0.0269 -0.0821 -0.0126
 5780W        W20911   2.134   5.518  13.570  0.1324  0.1783  0.1055
 5781W        W20912   9.100  14.499   1.201 -0.1812  0.2500  0.1693
 5782W        W20913   5.037   8.865   5.268 -0.0498  0.2494  0.3466
 5783W        W20914  13.239   4.526   1.567 -0.3552 -0.0808  0.0308
 5784W        W20915  15.922   9.718  10.208  0.2220 -0.1784  0.0231
 5785W        W20916   4.336  14.828  14.360  0.0946  0.0328 -0.0552
 5786W        W20917   6.934  16.146   3.371  0.0263  0.1063 -0.0740
 5787W        W20918   8.182   2.355  16.183  0.0336  0.1733  0.0073
 5788W        W20919  15.966  15.814   3.470 -0.2365 -0.0488  0.1150
 5789W        W20920  15.132  15.969   2.304 -0.0538  0.2725  0.2120
 5790W        W20921  14.775   6.946  13.117 -0.0205 -0.1788 -0.1525
 5791W        W20922  12.131  13.958  12.170 -0.0619  0.0317  0.2911
 5792W        W20923  12.240  13.778  11.473 -0.0446 -0.0135 -0.1406
 5793W        W20924   9.268  17.297   5.486  0.2359 -0.0677  0.2116
 5794W        W20925   9.322  16.877  14.335 -0.0766  0.0144 -0.0369
 5795W        W20926  14.306  10.306   2.139  0.0584  0.0308  0.0172
 5796W        W20927  13.582   0.670  12.366  0.1738  0.2474  0.2062
 5797W        W20928  10.886   2.749   0.531  0.1793 -0.1067  0.2116
 5798W        W20929   1.391  12.247  14.337  0.1006  0.0782  0.1577
 5799W        W20930  16.917   8.977  14.352 -0.3360 -0.0107  0.0825
 5800W        W20931   8.913   7.150  15.608 -0.1660 -0.1709  0.0457
 5801W        W20932  14.388   1.022  15.515 -0.1068  0.0389 -0.0669
 5802W        W20933  12.378   7.204   0.608  0.1645 -0.2027  0.0931
 5803W        W20934  13.122   8.737  13.270 -0.0841  0.2138  0.1986
 5804W        W20935   0.507   0.866   0.596  0.1252  0.1999 -0.2160
 5805W        W20936  11.741   1.766  15.318  0.2014  0.0335 -0.2932
 5806W        W20937  12.594  10.571  15.930  0.1383 -0.2801 -0.0882
 5807W        W20938  10.337  16.103  12.147  0.0912  0.3564  0.0371
 5808W        W20939  14.588   0.791  15.962 -0.1451 -0.0135 -0.0731
 5809W        W20940  17.620   5.621  11.768  0.0686  0.2756  0.0618
 5810W        W20941   0.285   5.469   1.113 -0.1022  0.0753 -0.1433
 5811W        W20942  15.900  15.325  14.691  0.2288 -0.1103 -0.4589
 5812W        W20943  15.224   1.275   5.481 -0.0704  0.0151  0.1155
 5813W        W20944  13.893  13.241   4.996  0.3424 -0.1316  0.3720
 5814W        W20945  17.018  10.784  15.232 -0.1041  0.2251  0.1642
 5815W        W20946   7.188  13.142  14.877 -0.0430  0.1810 -0.0078
 5816W        W20947   5.842   4.173   6.013 -0.2473  0.0320  0.0808
 5817W        W20948  10.076   4.345   3.131 -0.0217  0.3431 -0.0271
 5818W        W20949  10.309  15.798   3.600  0.1450 -0.0672 -0.1710
 5819W        W20950   6.380  12.732  11.197  0.2851  0.0012  0.1722
 5820W        W20951   5.625  15.040  16.412 -0.0221  0.0667 -0.3603
 5821W        W20952   3.989   2.657   1.929  0.1108 -0.0868 -0.3487
 5822W        W20953  11.978   2.529  14.632 -0.1532 -0.0809  0.1004
 5823W        W20954  17.530   6.925  15.091 -0.2867 -0.1135 -0.0320
 5824W        W20955   1.998  14.562  14.867 -0.0392  0.0288  0.0913
 5825W        W20956   9.482   6.302  10.869 -0.2176 -0.1880  0.1886
 5826W        W20957   9.786   4.709  14.088 -0.2297 -0.2103 -0.0568
 5827W        W20958  16.744  16.216  12.717 -0.1851 -0.2299 -0.3840
 5828W        W20959   3.137   9.676   1.083 -0.0260 -0.0331 -0.0995
 5829W        W20960  16.434  13.028  12.012  0.3279 -0.0095  0.2449
 5830W        W20961  10.757   0.859   5.362  0.0655 -0.2936 -0.1451
 5831W        W20962  14.530  15.402   5.722 -0.1753 -0.0587 -0.1105
 5832W        W20963  15.048  15.431   5.931 -0.2764  0.1068  0.0195
 5833W        W20964   6.500  11.078   3.348 -0.1590 -0.0126  0.0849
 5834W        W20965  11.125  13.564   5.156  0.3436  0.0274  0.2814
 5835W        W20966  18.040   9.507   1.659  0.1434  0.1271  0.0063
 5836W        W20967   4.203  11.383  12.102 -0.0346  0.1378  0.0671
 5837W        W20968   0.693   1.933   3.797  0.1713 -0.1264 -0.0668
 5838W        W20969  16.353   7.388   6.233  0.0169  0.1435  0.0985
 5839W        W20970   1.105  16.775   1.982  0.0660  0.0757 -0.1498
 5840W        W20971   5.866   7.334   4.828 -0.0995  0.0849 -0.1295
 5841W        W20972  16.183  17.089  14.845  0.0540 -0.1186  0.0827
 5842W        W20973  17.999  14.844  14.359 -0.0746  0.0991 -0.2072
 5843W        W20974   0.153  14.282  14.795 -0.0413  0.0034  0.4032
 5844W        W20975   4.937   8.659  10.759 -0.1908 -0.0754  0.1478
 5845W        W20976   1.356   7.644  15.362  0.1128 -0.0252 -0.2391
 5846W        W20977  11.100  12.486   3.153  0.1130  0.3148 -0.4586
 5847W        W20978   5.001   4.110   5.066 -0.2351  0.4027 -0.0071
 5848W        W20979   7.151  17.050   1.848 -0.2724 -0.3074 -0.1014
 5849W        W20980  17.846  16.045   4.202  0.0228 -0.0685  0.1440
 5850W        W20981  10.531  12.508   1.193  0.1603  0.2584 -0.0921
 5851W        W20982   8.064   0.016   2.318 -0.0817 -0.1411 -0.0101
 5852W        W20983   5.113   9.509   2.584  0.2871 -0.0712  0.2030
 5853W        W20984   5.757  10.973   0.231  0.0540  0.0006  0.1618
 5854W        W20985   5.686   5.295   0.204 -0.0606 -0.0954 -0.0785
 5855W        W20986   5.660  12.733   1.844  0.1041 -0.1505 -0.1847
 5856W        W20987   2.573  14.819   1.493  0.0950  0.2099 -0.0025
 5857W        W20988  12.500   7.033   1.327 -0.1426 -0.3029  0.0847
 5858W        W20989   5.340   9.076  10.134  0.1544 -0.0820 -0.1295
 5859W        W20990  17.752   3.277   3.723 -0.0410  0.0995 -0.0423
 5860W        W20991  12.452  17.769   4.519 -0.0324  0.0068 -0.1200
 5861W        W20992   2.383   1.967   0.917  0.2500  0.0883  0.1409
 5862W        W20993   1.586   3.218  15.270  0.0780  0.1424 -0.0624
 5863W        W20994   8.584   4.805   2.168 -0.2453 -0.4645 -0.2157
 5864W        W20995   2.414  11.971  11.695  0.0182  0.1079  0.0139
 5865W        W20996   6.941   3.483  11.916 -0.4794 -0.2812  0.6652
 5866W        W20997   9.588  11.062  16.055  0.1845 -0.1638 -0.0159
 5867W        W20998   1.523  15.676  12.656  0.1334 -0.0402  0.2329
 5868W        W20999  14.082   8.763   4.578 -0.1313 -0.3563 -0.1948
 5869W        W21000   6.988  13.886  15.493  0.1766  0.0255  0.1349
 5870W        W21001   6.109  16.381  15.048 -0.2757  0.0209  0.1555
 5871W        W21002  17.310  15.398   4.025 -0.0623  0.3433 -0.0885
 5872W        W21003   6.593   5.024  12.410  0.1071 -0.0376  0.0198
 5873W        W21004  13.884  11.784   6.480  0.1109  0.3393 -0.2350
 5874W        W21005   7.653   6.329  13.410 -0.1859 -0.1516  0.2904
 5875W        W21006  12.091   4.774  13.370  0.0320  0.1688 -0.0483
 5876W        W21007   9.914   7.793  12.097 -0.1990 -0.0917  0.2926
 5877W        W21008  17.635   0.504  12.219 -0.1418 -0.1634 -0.3617
 5878W        W21009   7.082   4.266  12.643 -0.3630  0.2356  0.0625
 5879W        W21010   7.013  14.943   4.495 -0.2177  0.1117 -0.1061
 5880W        W21011   9.077   3.263   4.870  0.5279  0.0785 -0.0687
 5881W        W21012  13.177   6.430   5.132  0.0955 -0.3398 -0.2735
 5882W        W21013  10.767  10.408   4.261 -0.0839 -0.1995  0.2232
 5883W        W21014   0.738  15.640  14.263 -0.0930  0.0877 -0.0479
 5884W        W21015  17.947  17.457   2.080 -0.1636  0.1327  0.1558
 5885W        W21016   8.439   7.496   0.219 -0.1608  0.1482 -0.4687
 5886W        W21017  10.033   5.160  15.301  0.0114 -0.0603 -0.0754
 5887W        W21018   4.664   5.689  13.134  0.3778  0.1875  0.0458
 5888W        W21019  17.984  12.027  11.493  0.1264  0.1924  0.1116
 5889W        W21020  17.953   3.733  12.770  0.2549 -0.0964 -0.1511
 5890W        W21021   3.164   6.638  14.221 -0.2185 -0.4414 -0.0193
 5891W        W21022  11.347   5.415   5.106 -0.1648  0.3371 -0.3430
 5892W        W21023   2.056  11.759  16.070 -0.1348 -0.0777  0.1436
 5893W        W21024   9.434   3.976  15.847  0.1374 -0.2008  0.0120
 5894W        W21025   9.983  15.660   0.028  0.0547 -0.0279  0.0013
 5895W        W21026  10.306   8.852   5.000 -0.1128  0.0438 -0.2616
 5896W        W21027   4.914  10.240  15.361 -0.4064 -0.4791 -0.2475
 5897W        W21028   7.058   5.406   1.148  0.1145  0.0076 -0.5019
 5898W        W21029   1.738  13.916   0.234  0.0303 -0.0565 -0.0234
 5899W        W21030   8.655  14.654  10.363 -0.1185 -0.2433  0.5440
 5900W        W21031   0.267  13.473   5.227 -0.0419  0.2789  0.2280
 5901W        W21032   6.717   3.708  15.573 -0.2699  0.0645  0.1293
 5902W        W21033   2.242   9.072   3.079 -0.0628 -0.3167  0.3667
 5903W        W21034   2.555   6.712  13.563 -0.1815 -0.4128 -0.0474
 5904W        W21035   9.997  13.214  12.886 -0.6173 -0.1474 -0.2968
 5905W        W21036   2.709   8.868  16.350  0.3286  0.0946 -0.1011
 5906W        W21037   7.338   5.945   3.074  0.0998  0.0915  0.1498
 5907W        W21038   9.781  16.870   4.005 -0.1779  0.2557 -0.0899
 5908W        W21039   4.009  15.037  13.786 -0.0861  0.0737  0.2880
 5909W        W21040   9.494  12.593  12.878 -0.1428  0.0979  0.2011
 5910W        W21041   1.932  13.501   0.326  0.2761 -0.0226  0.0383
 5911W        W21042  10.157   1.062   0.548 -0.1037 -0.2167  0.0179
 5912W        W21043  12.307   0.925   1.011  0.1857 -0.1900  0.0355
 5913W        W21044   5.545   5.538   1.358  0.1934 -0.0637  0.1165
 5914W        W21045  14.964  10.231  15.571 -0.2923 -0.0458  0.2328
 5915W        W21046   0.727   4.298  14.198  0.1892 -0.3374 -0.1818
 5916W        W21047   4.302  12.353  13.728  0.0342  0.0301  0.2670
 5917W        W21048  17.793   6.883   2.021  0.1111 -0.1506  0.1510
 5918W        W21049   3.684   7.185   1.553 -0.0046 -0.1059  0.3036
 5919W        W21050   6.816   9.596  14.984 -0.0286 -0.1555 -0.2282
 5920W        W21051  16.196  12.973  10.538  0.0897 -0.1390 -0.1670
 5921W        W21052   6.310  16.888  15.952  0.1864  0.0303  0.1582
 5922W        W21053  15.580  11.067  11.796 -0.0267 -0.2536  0.0996
 5923W        W21054  13.946  10.033  13.395  0.1082  0.0283  0.1000
 5924W        W21055   3.061   4.137   2.390  0.2337  0.0784 -0.1957
 5925W        W21056  14.060   3.493   2.481 -0.1466 -0.0699  0.0584
 5926W        W21057   6.026  16.105  12.657  0.2826  0.0829  0.1715
 5927W        W21058   0.568  13.747   4.541  0.3674 -0.3202 -0.2954
 5928W        W21059   7.251   4.329   2.403  0.1018  0.2262 -0.0259
 5929W        W21060   9.295   9.595  13.810  0.1592 -0.1859 -0.1276
 5930W        W21061   4.199   1.988   5.580 -0.2680  0.1820  0.0520
 5931W        W21062   9.810   9.088  14.433  0.1970 -0.3865  0.0176
 5932W        W21063   8.739   1.862   2.965  0.2572  0.1144  0.0893
 5933W        W21064   0.833  17.385  13.719  0.0527  0.6984 -0.0111
 5934W        W21065  14.899   2.095   5.034  0.1581  0.2142 -0.0548
 5935W        W21066  11.334  16.328   1.400  0.0515  0.0767  0.0078
 5936W        W21067  11.553   3.023  12.254 -0.1837 -0.0316 -0.3368
 5937W        W21068  17.229  13.346   0.290 -0.0554 -0.1178  0.2992
 5938W        W21069  14.397  16.667   4.191 -0.0122  0.0654  0.1525
 5939W        W21070  11.533   1.331  10.797 -0.2881  0.0743 -0.0037
 5940W        W21071  16.311   2.730  11.098  0.0527 -0.0184 -0.4474
 5941W        W21072  12.166   4.600   3.375  0.0642 -0.3770 -0.1172
 5942W        W21073   8.220   5.170   4.109 -0.1419  0.2713  0.1807
 5943W        W21074  15.832  17.377   0.387 -0.0675  0.0239 -0.1810
 5944W        W21075   8.604   2.818  11.962  0.3247  0.0459 -0.2705
 5945W        W21076   7.963  12.782   3.281  0.0934 -0.0404 -0.0355
 5946W        W21077   1.609  14.575  14.577  0.0577  0.0688 -0.2579
 5947W        W21078   6.989   8.116  16.353 -0.3232 -0.2475 -0.4585
 5948W        W21079   5.714  13.199   5.444 -0.1526 -0.1811  0.1298
 5949W        W21080  11.366  14.263  12.282  0.0516 -0.1689  0.2274
 5950W        W21081   9.054   1.614   0.119 -0.3244 -0.1962 -0.1517
 5951W        W21082  17.060   3.232  15.836 -0.0053 -0.2202 -0.1421
 5952W        W21083  14.816   5.474  16.272 -0.2128 -0.3215 -0.1751
 5953W        W21084   9.480  14.807   3.847  0.2218  0.1794  0.0363
 5954W        W21085   1.611   5.591  13.333 -0.0131  0.0689  0.2248
 5955W        W21086   3.577  11.482   3.306 -0.1525 -0.0040  0.2402
 5956W        W21087  12.769  11.313   3.790 -0.3410 -0.1157 -0.1869
 5957W        W21088  10.017   2.102  11.595  0.0479 -0.3721  0.0856
 5958W        W21089   9.589  10.065   4.909  0.0865 -0.1180 -0.0976
 5959W        W21090  13.592   6.943  13.083  0.0581 -0.1627  0.3044
 5960W        W21091   0.866   8.009   2.395 -0.1709  0.1108  0.3201
 5961W        W21092   5.413   6.546  10.946  0.1559 -0.1273 -0.0427
 5962W        W21093  10.488   3.624   0.349 -0.1324  0.2380 -0.1734
 5963W        W21094   5.905   3.653   5.197  0.2140 -0.3090  0.0441
 5964W        W21095   9.837   1.960   5.102 -0.0113 -0.1541 -0.1908
 5965W        W21096  15.455   1.414   1.790  0.1757  0.4084  0.0639
 5966W        W21097  15.901   5.773  12.129  0.0528 -0.0158 -0.1769
 5967W        W21098  11.951  12.816   3.258 -0.2202  0.0863  0.2351
 5968W        W21099   0.913   9.193  13.757  0.1897  0.3534  0.0341
 5969W        W21100  15.330  12.405  14.091 -0.1493 -0.0652 -0.0371
 5970W        W21101  15.460  17.010  14.202  0.0293 -0.1496 -0.2258
 5971W        W21102   2.042   4.592  14.224  0.0426 -0.0013  0.3555
 5972W        W21103  16.263   8.790   6.214 -0.0909  0.0748  0.0311
 5973W        W21104   7.741  17.503   0.288 -0.0057  0.2304  0.1781
 5974W        W21105  11.635   4.385   4.598 -0.0531  0.1331  0.0708
 5975W        W21106   6.284   9.633  12.082 -0.1925 -0.1095  0.3052
 5976W        W21107  11.544   1.527   5.237  0.0668  0.1050  0.0343
 5977W        W21108   5.643  16.613   5.974  0.0480 -0.0768  0.0160
 5978W        W21109   0.760   4.697  13.182  0.0100 -0.2358  0.3472
 5979W        W21110  11.106  10.076  12.235  0.2033 -0.0237  0.1013
 5980W        W21111  17.310  17.790   5.855 -0.0126 -0.0170  0.3051
 5981W        W21112  10.641  12.352   0.486  0.0780  0.0264  0.0394
 5982W        W21113   5.288   9.061   4.285 -0.2002  0.1941 -0.0826
 5983W        W21114  11.384  14.259   0.376 -0.0971  0.0593 -0.2192
 5984W        W21115  15.524  15.312  15.712 -0.0346 -0.0510  0.0939
 5985W        W21116  11.754   3.111   5.184 -0.1649  0.1021  0.1388
 5986W        W21117   1.406   8.920   0.502  0.1865 -0.1299  0.0141
 5987W        W21118   5.237  13.340  13.463  0.2504  0.1011 -0.0174
 5988W        W21119  16.270   8.673  14.456  0.1825  0.0357 -0.2858
 5989W        W21120  17.283  15.164   1.185 -0.1713  0.4022  0.2579
 5990W        W21121   9.278   5.994   2.183 -0.1881 -0.0348 -0.0375
 5991W        W21122  14.271   6.284   2.594  0.0891 -0.0458 -0.0138
 5992W        W21123  13.782   7.233  14.239  0.1568  0.2169  0.2648
 5993W        W21124  13.705   8.339  12.764  0.0254 -0.0759 -0.1780
 5994W        W21125   9.720  10.539   4.848  0.0110 -0.1746  0.0862
 5995W        W21126   9.948   8.965   1.893 -0.2486 -0.0328  0.1711
 5996W        W21127   9.232  12.919   1.812  0.0148 -0.0458 -0.3237
 5997W        W21128   5.814  11.265  16.268  0.0131  0.0698 -0.1329
 5998W        W21129  12.273  10.711  11.669 -0.0167 -0.0026  0.2384
 5999W        W21130   0.969  14.908  10.863  0.0457  0.2400  0.1080
 6000W        W21131  12.848   8.291   0.598 -0.0900  0.1429 -0.1432
 6001W        W21132  11.116   5.454  11.667 -0.0878  0.1353 -0.0333
 6002W        W21133  14.426  15.598   2.979 -0.0768  0.0344  0.0636
 6003W        W21134   8.689   3.988   4.673 -0.3547  0.0134 -0.0067
 6004W        W21135  11.513  10.434   2.363 -0.1670 -0.1811 -0.1313
 6005W        W21136   2.231   1.777  15.280 -0.1893  0.0362 -0.1151
 6006W        W21137  12.222   2.652   1.275  0.2061 -0.0163 -0.0586
 6007W        W21138  14.240   4.375  15.697 -0.1125  0.0920 -0.1309
 6008W        W21139  13.027  11.141   2.162  0.1026 -0.2748 -0.2080
 6009W        W21140   0.145   5.548   4.315 -0.0007 -0.2478  0.0422
 6010W        W21141  15.188  11.226   1.716  0.0006  0.0881 -0.0643
 6011W        W21142  13.466   0.648   4.279  0.2167  0.0506  0.0989
 6012W        W21143  13.806  15.444   4.008 -0.2484 -0.0598 -0.0546
 6013W        W21144   2.064   1.261   0.158  0.0257  0.1728 -0.2250
 6014W        W21145   7.348  15.291   0.640  0.2508  0.1531 -0.0284
 6015W        W21146  10.735   4.048   0.549  0.1730 -0.0269 -0.2454
 6016W        W21147   1.708  16.388  16.181  0.0790  0.1300 -0.2929
 6017W        W21148   1.487   9.817  10.625  0.2278  0.0978  0.1226
 6018W        W21149   6.907  13.990   3.354 -0.0543  0.1760 -0.0470
 6019W        W21150   9.487   1.660  12.450  0.4146 -0.0349  0.1385
 6020W        W21151   6.356   7.196   3.840  0.1102  0.0459 -0.0903
 6021W        W21152   9.847   3.704   5.212  0.0854  0.1103  0.0690
 6022W        W21153   0.790   1.441  14.197 -0.0955  0.1767  0.1857
 6023W        W21154   0.282   7.281   2.042 -0.1020  0.0432  0.2859
 6024W        W21155  11.961  14.404   5.706 -0.0959 -0.2483  0.0787
 6025W        W21156  16.165  14.864  15.348 -0.2430 -0.2419 -0.0404
 6026W        W21157  11.613   3.531  16.075  0.0548 -0.2720  0.2300
 6027W        W21158   1.896   7.871  12.099 -0.1258 -0.0277  0.2426
 6028W        W21159   0.077  10.953   5.870  0.0096  0.0257  0.1637
 6029W        W21160   9.965  13.010   4.484 -0.3848 -0.1398 -0.0203
 6030W        W21161  12.334  16.946   4.054 -0.1464 -0.1838 -0.1969
 6031W        W21162   0.852   6.491  14.438 -0.1164 -0.1113  0.1100
 6032W        W21163   7.462   4.891  15.301 -0.0500  0.0418 -0.0752
 6033W        W21164  14.125  17.059   4.490 -0.0128  0.4129  0.0957
 6034W        W21165  11.521  13.458   1.867  0.0666 -0.3151  0.0949
 6035W        W21166   6.434  17.215   3.011 -0.0153 -0.0982 -0.2050
 6036W        W21167  14.970  10.773   3.976  0.2266  0.3782  0.0296
 6037W        W21168  16.579   7.136  11.496 -0.4831 -0.2270  0.0050
 6038W        W21169  16.202   9.630  14.347 -0.1991  0.0330  0.1129
 6039W        W21170   0.002   4.816   2.051  0.1104 -0.0849 -0.0608
 6040W        W21171   3.036   6.498   3.262  0.2166 -0.2494 -0.0386
 6041W        W21172  15.911   2.689  12.163  0.1329 -0.0070  0.1714
 6042W        W21173   6.084   0.059   5.329 -0.1087 -0.2064 -0.0282
 6043W        W21174   7.547   8.401  10.782  0.2003 -0.0765 -0.0102
 6044W        W21175   9.157  10.818  14.966 -0.1544  0.0748  0.0443
 6045W        W21176  10.555  13.820   4.214  0.5225  0.0806 -0.2117
 6046W        W21177   8.647   9.959   4.263 -0.0790  0.0107  0.1031
 6047W        W21178  14.705   6.110   4.361  0.0544 -0.2296 -0.2315
 6048W        W21179  15.776   6.510   6.316 -0.0668  0.1026  0.2457
 6049W        W21180  10.606  16.869  14.648 -0.2274  0.1998 -0.0202
 6050W        W21181   6.470   6.956  16.028  0.0766  0.0972 -0.1981
 6051W        W21182  17.236   0.242  12.153 -0.3652  0.3089 -0.1096
 6052W        W21183   5.181  15.484   4.900 -0.3495  0.1887  0.1010
 6053W        W21184   0.579  13.262   6.548 -0.2309 -0.0292  0.3487
 6054W        W21185   1.957  16.114  15.305  0.2911  0.0216  0.2018
 6055W        W21186  15.046   1.968   4.210  0.0804 -0.1188  0.0427
 6056W        W21187   7.341   9.200   0.374 -0.1479  0.1759 -0.1357
 6057W        W21188  16.483   4.414  12.056 -0.0284 -0.0230  0.0148
 6058W        W21189   3.344  15.037  12.535  0.2884  0.0621 -0.0527
 6059W        W21190  12.667  10.079  15.793  0.0746  0.2390 -0.0197
 6060W        W21191  14.537  14.129  16.404  0.1029 -0.3880 -0.1903
 6061W        W21192   6.014   1.792  14.674 -0.0587  0.2244 -0.1399
 6062W        W21193  17.393  15.567  16.093  0.0956  0.2510 -0.0628
 6063W        W21194   9.441  11.939   4.197  0.0433  0.0223  0.0043
 6064W        W21195   7.500   7.494  15.686 -0.0980  0.1265  0.0604
 6065W        W21196  11.829   5.586   0.769  0.0994  0.1398  0.0795
 6066W        W21197  11.983  11.874   1.750 -0.1922 -0.1620  0.4141
 6067W        W21198  12.697   8.490   3.549  0.0761 -0.1524  0.0857
 6068W        W21199   8.331  17.149   3.361 -0.2301 -0.1329  0.2071
 6069W        W21200   5.369   2.372   3.187 -0.0875 -0.3284  0.1936
 6070W        W21201   5.366   9.722   2.164 -0.3687 -0.1314 -0.2066
 6071W        W21202  16.845   8.406  11.071  0.0477  0.1346  0.0076
 6072W        W21203  16.962   7.191   2.162 -0.0467  0.1298 -0.1371
 6073W        W21204   0.065   6.758   4.591  0.1269 -0.1259  0.3106
 6074W        W21205  17.778   8.204   1.269  0.0420  0.2577  0.4151
 6075W        W21206  13.292  11.360   1.339 -0.0191  0.1140 -0.0019
 6076W        W21207   3.716   7.878  14.675  0.2206 -0.4352  0.0032
 6077W        W21208  14.362  10.013   4.965 -0.0264  0.0085 -0.0001
 6078W        W21209  12.604   2.225   1.352 -0.3531 -0.1360  0.0623
 6079W        W21210   7.026   6.943  13.177  0.1728 -0.0829 -0.0065
 6080W        W21211   3.176  16.507   5.878  0.0076 -0.0272  0.0445
 6081W        W21212   6.125  17.486  14.853 -0.2624  0.1285  0.0497
 6082W        W21213   5.945  13.590  15.475  0.1804 -0.0502 -0.0923
 6083W        W21214   2.384  11.386  10.559 -0.1925 -0.0897  0.1048
 6084W        W21215   4.445   6.244   3.157 -0.1954 -0.1830 -0.2328
 6085W        W21216  11.158   4.297  12.489 -0.1189 -0.1399 -0.0887
 6086W        W21217   4.645  12.602   4.951 -0.3172  0.1438 -0.3728
 6087W        W21218   9.991   5.513   0.114  0.0503  0.2526 -0.2796
 6088W        W21219  10.811  12.311  16.003 -0.1043  0.0406 -0.1932
 6089W        W21220  14.039  10.583  13.443  0.0359  0.0520 -0.1408
 6090W        W21221   9.780   0.320   1.464  0.2158  0.0889 -0.0202
 6091W        W21222  13.776  12.097  15.541 -0.0133  0.1787  0.0909
 6092W        W21223   2.645   7.292   0.185 -0.1922 -0.0471 -0.4411
 6093W        W21224   4.025   3.959   2.428 -0.2826 -0.1189  0.3964
 6094W        W21225  13.214   7.922  15.858  0.0838 -0.0699 -0.0226
 6095W        W21226  16.513  16.873   5.091 -0.4221 -0.3244  0.0194
 6096W        W21227   4.117  11.465   1.205 -0.1257 -0.2389  0.1225
 6097W        W21228   5.527   5.061  12.969  0.0647 -0.2030 -0.3356
 6098W        W21229   4.682   1.326   5.772 -0.1495  0.0461  0.3977
 6099W        W21230  10.136   1.957   1.020 -0.2030 -0.0847  0.0562
 6100W        W21231   0.920   8.149   4.777  0.1630 -0.0872 -0.0299
 6101W        W21232   5.754   1.636  10.531  0.2395 -0.3617 -0.0738
 6102W        W21233   5.685   0.077   1.932  0.2628 -0.0932 -0.0190
 6103W        W21234   7.164  13.976  13.781  0.3592  0.1982 -0.1522
 6104W        W21235   7.464   5.247  13.200  0.0042  0.0626  0.1182
 6105W        W21236  10.720  15.956  15.913 -0.1058  0.0367 -0.1412
 6106W        W21237  12.241  13.963   0.791  0.1732 -0.0260  0.0989
 6107W        W21238  11.326  17.146   4.233 -0.0727  0.4203 -0.2576
 6108W        W21239   5.578   7.947  12.628 -0.1376 -0.1328 -0.1508
 6109W        W21240   7.740   7.707  14.864 -0.0203 -0.0481 -0.0467
 6110W        W21241   2.459  16.637  14.244 -0.0875 -0.1040  0.2422
 6111W        W21242  17.268   1.757   4.090  0.0925  0.0852 -0.2713
 6112W        W21243  12.765  16.129  16.460  0.3482 -0.1318  0.0123
 6113W        W21244   5.404  12.144  14.224 -0.3169 -0.3654 -0.1387
 6114W        W21245   1.641  16.085  11.206  0.0556 -0.0931 -0.1786
 6115W        W21246   8.714  10.637   5.076 -0.3116  0.0857  0.3024
 6116W        W21247   4.719  17.893  13.499 -0.1356  0.3156 -0.0815
 6117W        W21248   7.771  11.212   1.365 -0.2190 -0.1950 -0.2295
 6118W        W21249  12.162  13.667   0.401  0.0094 -0.0056  0.1403
 6119W        W21250   7.299  12.591   5.050 -0.1339 -0.0073 -0.0358
 6120W        W21251   7.921   4.499   4.338 -0.0529  0.0828 -0.0422
 6121W        W21252   1.080  16.569   4.815  0.1352  0.3594  0.2209
 6122W        W21253   7.032   2.608  12.557  0.0159 -0.2092  0.0881
 6123W        W21254   4.270  12.314   0.513 -0.2557 -0.2822  0.1116
 6124W        W21255  13.932   9.718  11.337  0.4127  0.0465  0.0122
 6125W        W21256  12.702  10.694  11.969 -0.1217  0.2960 -0.0419
 6126W        W21257   3.101  16.806   2.642  0.0112 -0.4461  0.0090
 6127W        W21258   7.963  10.110  15.010 -0.0972 -0.1715 -0.1952
 6128W        W21259   6.027   6.646   3.097  0.2393 -0.0061 -0.2778
 6129W        W21260  11.773  11.765   5.023 -0.0366 -0.1582 -0.0815
 6130W        W21261   6.779  16.307  14.123  0.2679  0.1174 -0.0926
 6131W        W21262   0.774  17.455   3.569 -0.1165  0.1914  0.0713
 6132W        W21263  15.208  12.061  13.643  0.0772  0.4029 -0.1135
 6133W        W21264   5.567  14.272  14.445  0.0523 -0.0477 -0.0305
 6134W        W21265   0.758   0.239  13.877 -0.2333 -0.0336  0.0029
 6135W        W21266  16.451  15.690   0.510 -0.0122 -0.1896  0.1777
 6136W        W21267   0.305   9.667  15.055 -0.0421  0.0338  0.0031
 6137W        W21268  13.462  15.432   2.426 -0.3192 -0.1104 -0.0482
 6138W        W21269   0.176   9.442  12.273 -0.0306  0.0004  0.4202
 6139W        W21270  14.251  11.651   3.481  0.1074  0.2232 -0.0960
 6140W        W21271  16.057   3.616  14.264  0.2718 -0.1204 -0.1467
 6141W        W21272   3.697  11.781   5.486  0.0550  0.2813 -0.4257
 6142W        W21273   4.336  12.562   3.979 -0.3304  0.1736  0.0453
 6143W        W21274   2.136  10.910  16.291 -0.2589  0.2070  0.2792
 6144W        W21275   6.305   1.039   5.268  0.2753 -0.1694 -0.0313
 6145W        W21276   9.039   6.704  12.718  0.2772  0.1185  0.0048
 6146W        W21277   7.097  17.596  15.908  0.2022  0.0163 -0.0816
 6147W        W21278   2.924   7.516  12.623 -0.2275 -0.1001  0.0525
 6148W        W21279  12.666  15.633   5.074  0.2115 -0.1166  0.0114
 6149W        W21280  17.318   3.004   0.230  0.0396  0.0043 -0.0986
 6150W        W21281  13.548  11.664  11.754 -0.0771 -0.1045  0.0847
 6151W        W21282   6.718  16.215  16.131  0.2628  0.0031 -0.1136
 6152W        W21283   2.774  11.374  15.318 -0.0461 -0.2369  0.2772
 6153W        W21284   1.064  12.747   5.309 -0.0160 -0.2034  0.0548
 6154W        W21285  16.278   8.487   0.662 -0.2410  0.0733  0.1892
 6155W        W21286  10.497   0.406   2.099  0.0575 -0.2360 -0.1622
 6156W        W21287  14.870   3.458   1.180  0.1308  0.0392  0.1283
 6157W        W21288   9.578   3.747   0.547 -0.1376  0.3321 -0.2603
 6158W        W21289   0.614   3.279   1.776 -0.0760  0.1505  0.2761
 6159W        W21290  16.996  16.599   4.316 -0.0862 -0.3202 -0.1718
 6160W        W21291  11.196  10.632   5.118  0.2010  0.0103  0.1608
 6161W        W21292  10.759  12.997  14.338 -0.3507  0.3307 -0.1264
 6162W        W21293   0.552   8.276  16.415  0.1115  0.0790 -0.1876
 6163W        W21294   0.795   6.110   2.428 -0.1360  0.2975  0.2999
 6164W        W21295  16.407   8.417   3.488  0.1187  0.1076  0.2397
 6165W        W21296   6.342   6.277  13.201 -0.1416  0.0747 -0.0203
 6166W        W21297  15.604   9.615  12.207 -0.1959 -0.0733 -0.3388
 6167W        W21298   4.530  12.336   1.838 -0.0612  0.3905 -0.2067
 6168W        W21299   9.093  15.427  12.680  0.2417  0.1277 -0.2001
 6169W        W21300  12.710  11.405  11.236  0.0023 -0.2898 -0.0077
 6170W        W21301  12.605  15.950  14.291 -0.1277  0.2135 -0.2563
 6171W        W21302   0.559   9.178   4.393  0.2325  0.1408  0.0960
 6172W        W21303  14.051   0.940   4.940 -0.1227 -0.0550 -0.2565
 6173W        W21304  16.032  15.954   0.665  0.0547 -0.1842 -0.2926
 6174W        W21305  16.676  14.230  14.677 -0.2436  0.3906  0.1249
 6175W        W21306  15.841   6.598  12.419  0.0430 -0.0645 -0.2648
 6176W        W21307   8.627  18.067  14.995 -0.0289  0.1857 -0.0135
 6177W        W21308  16.368   7.549  12.160  0.2219  0.0715  0.1136
 6178W        W21309  14.967  13.066  10.980  0.2912  0.0811  0.0082
 6179W        W21310   7.552   4.029  11.268  0.2838 -0.1492 -0.0762
 6180W        W21311   5.231   0.767   2.076 -0.3603  0.1461 -0.0900
 6181W        W21312   1.800  15.908  14.200 -0.0668 -0.0500  0.2061
 6182W        W21313  11.655  16.876   1.106 -0.0286 -0.1633  0.3580
 6183W        W21314  12.076   4.852  16.038 -0.0754 -0.0709  0.0764
 6184W        W21315   4.453  13.132   3.141  0.1686  0.2501  0.0399
 6185W        W21316   6.041   7.561  13.911  0.1900  0.0221  0.2777
 6186W        W21317  11.898   1.594  13.694 -0.3529 -0.3392 -0.1394
 6187W        W21318   4.686  14.277   4.231 -0.0765 -0.2669  0.0945
 6188W        W21319   9.931  16.744  11.603  0.2425  0.2170  0.0619
 6189W        W21320   9.866   1.827   3.841 -0.1780 -0.2512  0.1009
 6190W        W21321   9.545   4.304  16.206  0.0532  0.0182  0.1788
 6191W        W21322  11.312  17.205  14.191 -0.0660  0.4092 -0.0541
 6192W        W21323  11.977  18.062  11.893  0.0137 -0.1049 -0.0913
 6193W        W21324  13.878   5.993   0.712  0.0188 -0.0132 -0.1212
 6194W        W21325  15.811   2.405  11.310 -0.2171  0.0762 -0.2154
 6195W        W21326  14.498   5.363  13.667  0.1513 -0.0009 -0.2359
 6196W        W21327   2.617   3.974  12.082  0.0891  0.0061  0.2078
 6197W        W21328  14.824  17.617  15.820  0.0235 -0.1573  0.2584
 6198W        W21329  15.646  15.880   3.072 -0.1963 -0.0801 -0.0381
 6199W        W21330   2.844   6.382  13.280  0.1677  0.0833  0.0186
 6200W        W21331  14.838  16.552   4.348  0.2475 -0.0891 -0.1531
 6201W        W21332   5.779  17.295  15.174  0.2658  0.1055 -0.3380
 6202W        W21333   4.733  11.822  16.257  0.1670  0.3913 -0.1707
 6203W        W21334  11.129   3.384  16.341  0.1852 -0.0209 -0.1656
 6204W        W21335   3.119  13.749   2.117  0.0439 -0.0091 -0.2088
 6205W        W21336   8.083  16.621  11.915  0.1009 -0.3245  0.1683
 6206W        W21337  11.351  10.090   2.003 -0.0706  0.0795 -0.2793
 6207W        W21338   0.967   4.943  11.931 -0.0256  0.0537  0.3247
 6208W        W21339   1.979   1.236   5.274  0.1908 -0.0432 -0.2879
 6209W        W21340  14.607  14.966  12.632 -0.0257 -0.6292 -0.2478
 6210W        W21341  17.803   9.368   5.515 -0.0501 -0.3068  0.0258
 6211W        W21342  12.178  11.904  12.050 -0.1646  0.3318 -0.1199
 6212W        W21343   2.718  10.891   3.630 -0.1051 -0.0101 -0.2878
 6213W        W21344  10.281  14.155  14.898 -0.1756  0.0489 -0.0053
 6214W        W21345  16.649   5.003  13.533  0.0422 -0.1781  0.2123
 6215W        W21346   1.859   7.949  14.334 -0.2739  0.0056 -0.2366
 6216W        W21347  15.446   7.378  12.994  0.2192 -0.0980  0.0714
 6217W        W21348   6.635   2.269   5.299 -0.1172 -0.0245 -0.0309
 6218W        W21349  16.429  10.684   4.810 -0.3217  0.0061 -0.0027
 6219W        W21350   4.949   9.313  11.896 -0.1617  0.0673 -0.2571
 6220W        W21351  17.701  11.334  15.015 -0.0872  0.0556  0.2564
 6221W        W21352   2.425   7.710  15.016  0.2631  0.0322 -0.2551
 6222W        W21353   1.409   8.947   4.352 -0.2269  0.4352 -0.0381
 6223W        W21354  11.898   0.618   1.234 -0.0108 -0.0340 -0.1398
 6224W        W21355  10.641  17.720  12.209 -0.1431 -0.1264  0.1408
 6225W        W21356  17.897  12.102  12.003  0.1236  0.1767  0.0494
 6226W        W21357   1.129  17.233   3.261  0.0410 -0.1330  0.1308
 6227W        W21358  16.426  16.997  14.475 -0.1474  0.0019 -0.0071
 6228W        W21359  11.319   4.793  13.820  0.2410  0.0588 -0.2193
 6229W        W21360   3.485  16.105  16.381  0.0559  0.0029  0.0701
 6230W        W21361  12.476   6.202   0.808  0.0699 -0.1459  0.0171
 6231W        W21362   0.622  10.557  15.643 -0.1896 -0.0470  0.3237
 6232W        W21363  14.561  13.594   5.557  0.0242 -0.1266  0.0558
 6233W        W21364  10.856   6.060  13.357 -0.3016  0.2697 -0.0123
 6234W        W21365   2.736   2.080  15.091 -0.4439  0.0496 -0.1700
 6235W        W21366  11.249   7.325   4.533  0.3041 -0.2406 -0.2256
 6236W        W21367   6.873  15.631   1.466 -0.0074  0.0473  0.1523
 6237W        W21368  17.787  17.863   4.743 -0.1935 -0.3941  0.2339
 6238W        W21369  13.236  14.527   5.001  0.1737  0.1715  0.2261
 6239W        W21370  14.498  12.397  10.752 -0.0367  0.0022 -0.1401
 6240W        W21371   7.418  17.127   0.441 -0.1770  0.1461  0.1488
 6241W        W21372   3.538  10.814   1.867 -0.0113  0.3334  0.2696
 6242W        W21373  17.705  14.535  12.567 -0.0511  0.0297  0.1323
 6243W        W21374   5.320   6.268   4.281  0.1469  0.0397 -0.0954
 6244W        W21375   6.797   5.601  13.318  0.0178  0.1332  0.2305
 6245W        W21376  12.674   8.775   4.775 -0.0880  0.0594 -0.0085
 6246W        W21377  14.382   9.221   5.981  0.1225 -0.0473  0.0730
 6247W        W21378  17.724  11.964   1.486  0.0938  0.0256  0.3029
 6248W        W21379  17.518  17.899  14.026  0.1268 -0.0347 -0.1969
 6249W        W21380   0.436   0.899  12.425  0.0115  0.0628  0.1308
 6250W        W21381  14.857  15.364   3.055  0.2525 -0.1280 -0.0041
 6251W        W21382  17.251  16.268  13.782  0.0314 -0.2377 -0.0441
 6252W        W21383   3.266   6.932  11.172  0.0200  0.0957 -0.0725
 6253W        W21384  15.064  15.516  16.441 -0.1724 -0.0863  0.0068
 6254W        W21385   8.728  11.520   1.152  0.0043  0.2164 -0.2285
 6255W        W21386   1.390   7.226  15.040 -0.0982  0.1026  0.0562
 6256W        W21387   8.829   0.857  11.576  0.0768 -0.1240 -0.2120
 6257W        W21388  13.922   5.206  13.773 -0.1084 -0.1750 -0.2708
 6258W        W21389   9.821  10.045   3.343 -0.0099  0.1689 -0.2153
 6259W        W21390   0.337   3.582   3.158 -0.1450 -0.1670 -0.0265
 6260W        W21391   8.659  14.535   4.952  0.0022  0.6251  0.2093
 6261W        W21392   5.959   8.855  12.735 -0.2737  0.1846 -0.0239
 6262W        W21393   3.153   8.168  12.572  0.2885  0.0429  0.1474
 6263W        W21394  15.042   3.850   4.963 -0.2249  0.0315 -0.2197
 6264W        W21395   4.157   6.459  14.298 -0.3250 -0.0535  0.1169
 6265W        W21396  16.407  17.273   3.776 -0.0948  0.5317 -0.0247
 6266W        W21397   0.121  11.839  13.592  0.0677  0.1169 -0.2905
 6267W        W21398  16.254   1.857  13.249  0.3790 -0.2430 -0.2056
 6268W        W21399  11.664  16.935   3.478  0.1056  0.0663  0.0255
 6269W        W21400  11.192   0.529  11.766 -0.2149  0.2800 -0.3890
 6270W        W21401  14.984   7.178   1.985 -0.0268 -0.0092  0.0923
 6271W        W21402   0.938   2.850   2.404 -0.0805  0.0545 -0.1222
 6272W        W21403  10.525   0.534  13.234  0.0703 -0.0318  0.0093
 6273W        W21404   9.967  14.950   1.244  0.0428 -0.0245  0.1302
 6274W        W21405  15.142   0.883  15.124  0.0009 -0.7562 -0.0990
 6275W        W21406   3.161  14.405  12.773  0.4556 -0.2647 -0.0196
 6276W        W21407   4.351  15.481  13.583  0.0453 -0.1594  0.0169
 6277W        W21408   8.146   9.761  13.917  0.2384  0.1391 -0.1005
 6278W        W21409  11.998  10.482  11.157  0.1465 -0.0556 -0.0995
 6279W        W21410   6.853   4.323   0.562 -0.0292  0.0389  0.2572
 6280W        W21411   6.337  14.045  11.132 -0.1647  0.1799  0.1451
 6281W        W21412   5.083   9.863  15.129  0.0750 -0.0939 -0.1444
 6282W        W21413  11.582  15.656   4.473  0.0424  0.0139  0.1372
 6283W        W21414   8.698  11.077   2.468  0.0755  0.0253  0.2264
 6284W        W21415   6.407   2.707   5.109 -0.1354 -0.0013  0.0478
 6285W        W21416  10.393   0.875   3.066  0.0443 -0.0115  0.2256
 6286W        W21417   5.775   7.411   5.446 -0.0527  0.3120 -0.0610
 6287W        W21418  14.407   7.785   0.150 -0.2112  0.5193  0.2936
 6288W        W21419  16.580  15.926   1.635 -0.1777  0.0149  0.2893
 6289W        W21420  14.784  15.081  16.351  0.2028  0.2726 -0.1104
 6290W        W21421   4.592  11.424  12.866 -0.0743  0.2390 -0.2493
 6291W        W21422  17.997   1.305   2.457  0.0361  0.0926  0.4712
 6292W        W21423  10.045   6.256   3.349 -0.1342 -0.0477  0.1134
 6293W        W21424   9.716   1.972  14.815  0.3223  0.0273 -0.0701
 6294W        W21425  10.528  14.745   2.079  0.1829 -0.1190  0.2872
 6295W        W21426   8.044   2.189   1.018 -0.0610 -0.3817  0.2589
 6296W        W21427   0.489   2.474  13.581  0.0106 -0.2143  0.0118
 6297W        W21428   5.586  10.523   5.352  0.0957  0.1470  0.2263
 6298W        W21429  10.320   4.816  11.457  0.4100  0.2704  0.1193
 6299W        W21430  15.113  14.520   0.137  0.1195  0.1067  0.0420
 6300W        W21431   9.801   8.466   1.656 -0.0838 -0.0396  0.1064
 6301W        W21432  11.772   3.130   2.413  0.1734  0.4049  0.0989
 6302W        W21433   4.482   4.565  11.576  0.0254 -0.0504 -0.1789
 6303W        W21434   1.229   8.103   4.273 -0.4179  0.3719  0.2134
 6304W        W21435   8.604  16.553   5.375 -0.0121  0.0301 -0.0436
 6305W        W21436   0.186   6.297  12.557 -0.3064 -0.3035  0.1568
 6306W        W21437  15.939  15.801   3.955 -0.2739  0.4027  0.0582
 6307W        W21438   5.027   9.711   4.891 -0.3933  0.1162 -0.0788
 6308W        W21439  18.009  12.686  15.106 -0.0292  0.2266  0.0866
 6309W        W21440  10.642  14.780   5.444 -0.0878  0.0539  0.2873
 6310W        W21441   2.665  11.924  13.526 -0.0108 -0.3747 -0.1974
 6311W        W21442   6.307  17.769  10.903  0.3307  0.2830  0.2698
 6312W        W21443   7.683   8.000  12.565 -0.2063 -0.1961 -0.0307
 6313W        W21444   1.902   6.313   4.278 -0.0317  0.2035 -0.1341
 6314W        W21445   6.125  12.974   5.716  0.1615 -0.1464 -0.1253
 6315W        W21446   1.535  10.301  15.160 -0.0451 -0.2898  0.0661
 6316W        W21447  10.371   9.939  15.866  0.0357 -0.1352 -0.1168
 6317W        W21448  14.148   0.502   0.909  0.3652 -0.1758 -0.0123
 6318W        W21449  16.239   3.071   0.530  0.0761 -0.3064  0.0278
 6319W        W21450   6.119   7.063  11.446 -0.2147 -0.0540  0.1901
 6320W        W21451  10.640  11.843   3.462  0.1036  0.0413  0.0665
 6321W        W21452   8.969   6.740   5.284 -0.2463  0.1183  0.2379
 6322W        W21453   8.880  11.062  13.082 -0.1927 -0.2746  0.0006
 6323W        W21454   6.353   7.239   4.938  0.1244  0.0910 -0.0991
 6324W        W21455   2.628  13.882  14.406 -0.0220  0.1566  0.1449
 6325W        W21456  10.063   5.238  12.300 -0.2846 -0.2213  0.1983
 6326W        W21457   8.066   1.132  14.305 -0.1905 -0.2598 -0.1340
 6327W        W21458   2.461   2.645   0.127  0.1927  0.3875  0.0995
 6328W        W21459  16.200   4.471   1.827  0.0323  0.1179  0.2415
 6329W        W21460  13.225   4.754  13.062 -0.1240  0.1478 -0.0676
 6330W        W21461  11.806   2.926  11.806 -0.2549 -0.1007  0.1630
 6331W        W21462  13.290  12.861  15.212 -0.2174 -0.0696 -0.1017
 6332W        W21463  17.402   8.987   2.329  0.1024 -0.0187 -0.1124
 6333W        W21464   7.089  10.211   2.658 -0.1725 -0.1396 -0.0496
 6334W        W21465  10.371   2.077  14.485 -0.4230  0.1857  0.1268
 6335W        W21466  13.620   9.069   3.697 -0.0365  0.0806 -0.0909
 6336W        W21467  14.408   2.199   2.062 -0.0065  0.1745 -0.1347
 6337W        W21468   7.790  16.006  15.922 -0.1408 -0.0112 -0.0100
 6338W        W21469  17.040  12.056   0.903  0.3832 -0.0391  0.4739
 6339W        W21470   9.624   9.785   6.096 -0.3418  0.2291 -0.2228
 6340W        W21471   0.936   8.847  12.007 -0.2664  0.2497  0.0666
 6341W        W21472   5.548   0.292   0.195 -0.0317  0.4220 -0.0042
 6342W        W21473  15.011   2.807   2.928 -0.0661  0.5731 -0.1534
 6343W        W21474   1.943   5.188   4.376  0.0766  0.2144  0.1734
 6344W        W21475  12.749   3.629  13.962 -0.0082  0.3125  0.0072
 6345W        W21476  16.691   9.637  16.206 -0.0750 -0.0930  0.2265
 6346W        W21477   5.194  15.372  11.992  0.1169  0.1564  0.0658
 6347W        W21478   7.902   4.862  11.477  0.0321 -0.0769 -0.0397
 6348W        W21479  11.891  17.121  14.316 -0.2896  0.0244  0.0177
 6349W        W21480   7.886   2.158   2.357 -0.1241 -0.0360  0.1681
 6350W        W21481   7.563   7.653   0.695 -0.1626 -0.0758  0.1299
 6351W        W21482   1.243  12.048   3.323  0.0794  0.0564 -0.3758
 6352W        W21483  11.176   4.912   0.287 -0.1048 -0.0327 -0.4977
 6353W        W21484   6.923  11.057  13.688 -0.1256  0.0833  0.1012
 6354W        W21485  14.773  12.210  10.442 -0.0226  0.0445  0.2712
 6355W        W21486   2.332  16.734   0.947 -0.0356 -0.0832  0.1142
 6356W        W21487  15.611   0.689  15.226 -0.1055  0.1728 -0.1611
 6357W        W21488   0.979   3.385   0.196 -0.1005  0.2510 -0.0381
 6358W        W21489   8.865   9.014   2.750 -0.1239  0.0798  0.0387
 6359W        W21490   6.157   4.869  14.658  0.2600 -0.3610  0.0467
 6360W        W21491  13.999  13.223   2.463  0.3526 -0.0598  0.2050
 6361W        W21492   3.970  12.943   6.104 -0.2530 -0.0887  0.1196
 6362W        W21493  11.530   7.487  12.273  0.2363  0.1540  0.0339
 6363W        W21494   3.778   1.019  12.102 -0.0118 -0.1867 -0.0351
 6364W        W21495  11.864  17.966  14.135  0.0640 -0.0088 -0.0216
 6365W        W21496  12.187  10.610   1.892 -0.2206  0.2032  0.0088
 6366W        W21497  12.755  11.751  12.139 -0.2717 -0.1056  0.1305
 6367W        W21498  13.839  16.873   3.545 -0.1262  0.1157 -0.2231
 6368W        W21499   9.167   1.240  11.427  0.2374  0.1888 -0.2652
 6369W        W21500   8.948   2.359  15.466  0.2274  0.3407 -0.0266
 6370W        W21501  13.304  17.962  16.234  0.2744  0.2843  0.0885
 6371W        W21502  14.873  12.879  12.547  0.0337 -0.1858 -0.0563
 6372W        W21503  12.503   5.352  14.125 -0.0103 -0.0974  0.2539
 6373W        W21504   9.145   4.239  10.769 -0.1816  0.2937 -0.2323
 6374W        W21505   9.271  13.078   3.389 -0.3244 -0.0955  0.6358
 6375W        W21506   4.657   2.339  12.901 -0.1140 -0.1631 -0.1880
 6376W        W21507   0.093   9.757  13.645  0.1678 -0.0431  0.1362
 6377W        W21508   0.438   4.663   3.599  0.0674  0.1550 -0.0027
 6378W        W21509  13.114  11.395   4.656 -0.1032  0.2520 -0.1474
 6379W        W21510  11.111   4.371  11.979 -0.2444  0.0921  0.1471
 6380W        W21511   4.469  13.213   2.262  0.2405 -0.0611 -0.0708
 6381W        W21512  15.729   9.177  11.334  0.0221 -0.1199  0.1650
 6382W        W21513   5.941  11.315  11.776 -0.0782  0.3777 -0.0707
 6383W        W21514  13.755   9.304  13.939 -0.0370  0.1931 -0.3423
 6384W        W21515   4.359   3.458  14.000 -0.1179 -0.0530  0.3129
 6385W        W21516   5.427  15.261   5.791  0.2300 -0.0893  0.1760
 6386W        W21517   8.408   8.077   2.861  0.0890 -0.2321  0.0824
 6387W        W21518  18.068  10.809  10.112 -0.0026  0.0125  0.1742
 6388W        W21519   2.686  14.435   4.233  0.2555 -0.0079 -0.1735
 6389W        W21520  12.152   1.700  15.976  0.0413 -0.1676 -0.0696
 6390W        W21521   5.664  17.522   0.686 -0.0108 -0.3489  0.0076
 6391W        W21522   1.204  15.933  11.532  0.0405  0.0668 -0.1241
 6392W        W21523   7.200   7.469  14.740  0.0652 -0.2385 -0.0565
 6393W        W21524  16.648   1.478   2.569 -0.3549  0.0911  0.1654
 6394W        W21525   1.582  17.247  14.248 -0.1289  0.0190  0.1738
 6395W        W21526  15.586  15.438   3.791  0.0535  0.1707  0.0287
 6396W        W21527   1.801  18.030  11.621  0.0675 -0.1349  0.1721
 6397W        W21528   6.038   1.790   1.232 -0.1380 -0.0870 -0.0843
 6398W        W21529  10.891   2.384   0.877 -0.0400  0.3262  0.1506
 6399W        W21530   8.396   3.744  14.349  0.1189 -0.1087  0.1090
 6400W        W21531  17.192  16.953   3.268 -0.1892  0.0396 -0.1173
 6401W        W21532   3.437  13.250  14.542  0.0141 -0.0290  0.1213
 6402W        W21533  12.256   9.227  13.978 -0.0479  0.2464  0.2010
 6403W        W21534  10.125   4.135   0.534  0.0975  0.0068 -0.0410
 6404W        W21535  15.980   3.005   0.965 -0.3181  0.0266  0.0517
 6405W        W21536   4.551   6.945  15.428 -0.0086  0.0156  0.2992
 6406W        W21537  14.845  17.837   3.001  0.1410  0.2653 -0.3433
 6407W        W21538  12.162  13.785  15.317 -0.1795  0.2785 -0.2086
 6408W        W21539   9.271   2.197   4.446  0.2275 -0.1264 -0.0859
 6409W        W21540   0.548   9.364  14.166 -0.0492 -0.0659 -0.1012
 6410W        W21541   7.612   5.036   0.148  0.0762  0.0400  0.2704
 6411W        W21542   0.254   9.547  13.180  0.2218 -0.1121  0.2540
 6412W        W21543  14.786  11.064  13.614 -0.1008  0.2162  0.1703
 6413W        W21544  13.042   1.426  11.283 -0.2011  0.4416 -0.0123
 6414W        W21545   0.380  11.435  14.632  0.3490 -0.1556 -0.0801
 6415W        W21546  11.082  11.222   1.993 -0.0291 -0.2288  0.3196
 6416W        W21547   2.555  12.573  12.360 -0.0401  0.1586  0.0325
 6417W        W21548   0.533  14.504  13.211 -0.0987 -0.1093  0.1468
 6418W        W21549  11.356   2.952  12.923  0.0427 -0.0705 -0.3030
 6419W        W21550   3.530   1.837   2.155 -0.2311  0.0749  0.0466
 6420W        W21551  12.397   9.607   1.784 -0.1755  0.0828  0.2210
 6421W        W21552   2.692  13.917   0.581  0.2037  0.0140  0.0710
 6422W        W21553   0.935  12.734  10.350 -0.1115  0.1407 -0.0527
 6423W        W21554   6.447  14.473  11.378 -0.2322  0.2946 -0.0508
 6424W        W21555  13.622   9.065  11.299  0.1704 -0.0835 -0.1455
 6425W        W21556   4.256   0.383   4.633 -0.0952 -0.0484 -0.1803
 6426W        W21557   8.468  10.100  15.232 -0.1041  0.0516  0.1808
 6427W        W21558  17.409  17.503   2.891  0.0872 -0.2475  0.0598
 6428W        W21559   1.148   3.343  15.588 -0.1078  0.0944  0.1124
 6429W        W21560   2.748  15.991   5.278 -0.2699  0.0627 -0.1786
 6430W        W21561   6.275   1.231   3.977 -0.3975 -0.0150  0.0687
 6431W        W21562  12.067   6.521  14.043 -0.0228  0.1183 -0.2641
 6432W        W21563  12.784  16.459   2.782  0.1631  0.1572 -0.0069
 6433W        W21564   5.022  13.860   3.318  0.0091 -0.2709 -0.1220
 6434W        W21565  13.411   1.451  13.649  0.4685  0.0180 -0.1093
 6435W        W21566   6.243  17.705  12.688  0.1807 -0.0085  0.1428
 6436W        W21567  10.414   9.088  13.688  0.0479 -0.0725  0.0353
 6437W        W21568   5.004   5.015  12.870 -0.1969  0.0803 -0.2224
 6438W        W21569  16.075   2.378   4.660  0.0101 -0.2653 -0.0250
 6439W        W21570   7.721   1.721  15.688 -0.0137  0.0916 -0.0645
 6440W        W21571   5.459  16.944  14.971  0.0328 -0.1941 -0.2276
 6441W        W21572  13.454   4.251  13.282  0.0248 -0.1953  0.1069
 6442W        W21573  15.792   3.321  13.860  0.2158 -0.3837 -0.2848
 6443W        W21574   3.759   9.140   0.445 -0.0488 -0.0189 -0.0621
 6444W        W21575   1.152   8.996  13.115  0.2337 -0.1234 -0.0038
 6445W        W21576  16.829   7.096   0.342  0.0693  0.1927  0.0887
 6446W        W21577  13.846   2.860   0.381 -0.1429 -0.2061  0.2595
 6447W        W21578   4.613  14.126  12.264 -0.0528 -0.1715 -0.1491
 6448W        W21579  11.879   0.535  12.652  0.1266  0.1145  0.2394
 6449W        W21580  17.117  12.411  13.889 -0.1131 -0.2487 -0.1725
 6450W        W21581  15.568   2.482  12.583 -0.0357 -0.0810  0.1395
 6451W        W21582   5.122  15.752   1.988  0.0627  0.1478 -0.1888
 6452W        W21583  14.376   7.642   4.732 -0.3375  0.1767 -0.2080
 6453W        W21584   5.505   7.807  14.918 -0.0190  0.1078  0.0141
 6454W        W21585  12.310  12.046   6.278  0.0469  0.3355 -0.1098
 6455W        W21586  14.156  13.586  12.105 -0.0244  0.1141  0.0236
 6456W        W21587  14.258   9.223   2.459 -0.0647  0.0596 -0.1853
 6457W        W21588  11.301   9.959   3.152 -0.0297 -0.1291  0.0623
 6458W        W21589  16.912   2.172   3.309 -0.2615 -0.4084  0.1319
 6459W        W21590   4.597  10.424  13.087 -0.0495  0.0829 -0.3333
 6460W        W21591  14.198  10.958  15.433 -0.0518  0.2508 -0.1420
 6461W        W21592  14.346   5.158   3.883  0.1103  0.0702 -0.0876
 6462W        W21593   7.049   1.620   0.102  0.3903 -0.0139 -0.1389
 6463W        W21594   9.659   0.853  16.187 -0.1927  0.0620 -0.1044
 6464W        W21595   0.037   7.167  11.662 -0.1131 -0.1171 -0.1692
 6465W        W21596  12.752   5.517   2.712  0.1500 -0.2985  0.1244
 6466W        W21597  15.475   3.756   3.323  0.3534  0.2519  0.2505
 6467W        W21598  13.144   3.802  15.801 -0.0866 -0.0428  0.0048
 6468W        W21599   9.859   1.929  11.186  0.2740  0.1100 -0.2204
 6469W        W21600  13.570   4.088   1.885  0.0226  0.0547  0.0322
 6470W        W21601   4.966  13.853   0.319 -0.0006  0.1246 -0.1766
 6471W        W21602   6.422  15.854   2.078 -0.0138  0.1713 -0.0302
 6472W        W21603   6.044  15.640   1.574  0.0478 -0.1980  0.3009
 6473W        W21604  10.068   2.191  14.031  0.2925  0.2109 -0.0929
 6474W        W21605   2.063  10.985   0.343  0.0176  0.0059  0.2399
 6475W        W21606   6.458   0.806  13.150 -0.1153 -0.0340 -0.3537
 6476W        W21607   4.095  11.194   2.496  0.1902  0.2635 -0.2838
 6477W        W21608   7.902  17.111   2.294 -0.2609  0.2440  0.0184
 6478W        W21609   3.104   9.810  13.028  0.3339  0.1224  0.2765
 6479W        W21610  11.031   8.060   3.021  0.0676 -0.1219 -0.1365
 6480W        W21611  17.406   2.467  12.886 -0.1346  0.2240 -0.2276
 6481W        W21612  14.335  17.832  15.342 -0.0371 -0.1534 -0.0218
 6482W        W21613   0.880  13.320  11.074  0.1970  0.1117 -0.2374
 6483W        W21614   7.355   6.430  10.951  0.1168 -0.0497  0.2546
 6484W        W21615   2.860   4.035  14.181  0.1153 -0.2312 -0.3728
 6485W        W21616   4.740  15.050  16.104 -0.1318  0.1888  0.2530
 6486W        W21617   6.146   1.577  13.593  0.0509  0.0176  0.1183
 6487W        W21618   1.154   8.658   3.251  0.0798  0.1652 -0.2834
 6488W        W21619  15.396  11.450   2.082  0.0724 -0.2380 -0.1315
 6489W        W21620   4.632   1.772  11.646  0.3771  0.1109 -0.3047
 6490W        W21621   8.274  10.265  13.958  0.0327 -0.0433 -0.0677
 6491W        W21622   6.671  11.922  11.490 -0.2684 -0.0391  0.1527
 6492W        W21623  13.073   7.306  10.129  0.0520  0.4027 -0.1116
 6493W        W21624  13.270  13.586   6.215 -0.2691 -0.0248 -0.3433
 6494W        W21625   1.668   1.137   1.790 -0.1208  0.2198 -0.0113
 6495W        W21626   5.558  11.736  11.172  0.0138 -0.0620 -0.2619
 6496W        W21627   9.624   1.268   1.278 -0.0763  0.3377 -0.1098
 6497W        W21628  12.312   2.744  12.869 -0.1508  0.1406 -0.0180
 6498W        W21629   4.846  10.309   2.627 -0.4027 -0.2698  0.2594
 6499W        W21630   0.440  10.665  10.276  0.1393  0.5567  0.1467
 6500W        W21631   1.801  12.386   1.227 -0.1007 -0.0807  0.1337
 6501W        W21632   1.464  15.202   0.043 -0.3366 -0.2887 -0.0396
 6502W        W21633   3.700  15.112   1.926  0.0209  0.1229 -0.1173
 6503W        W21634   8.276  15.829   0.117 -0.3358 -0.0066 -0.3265
 6504W        W21635  10.549   1.777   3.693 -0.2374 -0.2021  0.2217
 6505W        W21636  17.865   9.138  16.138  0.2551  0.3387 -0.4131
 6506W        W21637  16.200   4.471  15.710 -0.2132  0.0861  0.0977
 6507W        W21638   7.248   5.809  11.641 -0.2645 -0.1592 -0.0554
 6508W        W21639   8.783   4.956  11.218 -0.1347  0.4663 -0.2798
 6509W        W21640   1.969   7.909  13.418 -0.3461 -0.3332 -0.0328
 6510W        W21641   2.911  10.926  15.566 -0.0238 -0.1193  0.1144
 6511W        W21642  14.523   8.302   1.137 -0.1367  0.0024  0.0944
 6512W        W21643   7.135  16.121   2.891 -0.2305 -0.3503 -0.0373
 6513W        W21644   5.380  16.997   5.743 -0.1061 -0.1250  0.0074
 6514W        W21645  13.796  14.484  11.810  0.1243  0.1271  0.0153
 6515W        W21646   6.658   6.170   4.946  0.0889 -0.1855 -0.0889
 6516W        W21647  11.628   6.657   5.702 -0.0582  0.0032 -0.0271
 6517W        W21648   7.611  13.911   5.537 -0.0121 -0.2156  0.0327
 6518W        W21649  12.248  14.911   2.103 -0.1462  0.0698 -0.0559
 6519W        W21650  11.665   6.004  10.839 -0.0790  0.1499 -0.0273
 6520W        W21651  13.588   7.537   3.320 -0.1304 -0.1905 -0.2556
 6521W        W21652  12.856   8.074  12.919  0.0717 -0.0817 -0.0331
 6522W        W21653   5.374  11.813   4.026  0.0413  0.1148 -0.3275
 6523W        W21654   0.768   1.079   4.152  0.0503 -0.2866 -0.0553
 6524W        W21655   2.712   0.877  12.042 -0.1605  0.0849  0.1533
 6525W        W21656  13.278   9.412   0.335 -0.0081  0.2082 -0.1778
 6526W        W21657   0.893   2.039   0.891 -0.0340  0.2843  0.1461
 6527W        W21658  11.975   2.975   4.208  0.0391 -0.1572 -0.5193
 6528W        W21659  15.874  13.199  11.687  0.1160 -0.2324 -0.1207
 6529W        W21660  16.178  10.989   2.343  0.2003 -0.1307  0.3018
 6530W        W21661  15.660  16.072  11.739 -0.1830 -0.3634 -0.1299
 6531W        W21662   0.277  15.030   4.710 -0.1085  0.0582  0.0726
 6532W        W21663   7.185  12.660   4.561  0.0961  0.2749 -0.0773
 6533W        W21664  13.893   0.772  10.991 -0.2358  0.0902 -0.1474
 6534W        W21665   2.689  11.720   5.176 -0.2110  0.0749 -0.0943
 6535W        W21666  14.672   1.721  13.687  0.1575  0.0362 -0.1518
 6536W        W21667  17.001  10.740   4.478  0.3346 -0.1842  0.0619
 6537W        W21668   2.648  17.294  10.101  0.0582 -0.0404 -0.2029
 6538W        W21669   2.935   1.058  12.973  0.1785 -0.0614  0.1222
 6539W        W21670  11.242   4.772   0.790 -0.5972  0.0727 -0.1224
 6540W        W21671   3.084  17.821  15.699 -0.1195 -0.2177 -0.0200
 6541W        W21672  17.737   7.439   1.315  0.1385  0.1987  0.0001
 6542W        W21673  11.320  16.636  12.989 -0.2725 -0.2923  0.0605
 6543W        W21674   5.050  14.192   0.678 -0.3067  0.0785  0.2877
 6544W        W21675  16.201  14.135   3.655  0.0875  0.1686  0.0236
 6545W        W21676  17.795   1.837   1.840 -0.0283 -0.0528 -0.2093
 6546W        W21677  11.303  14.247   2.074  0.1423 -0.0269 -0.1608
 6547W        W21678  17.171   1.981  14.987  0.1412 -0.2953  0.0110
 6548W        W21679   3.078  10.988   5.803 -0.3599 -0.0568  0.2530
 6549W        W21680  15.830   5.777  15.152  0.2538 -0.1907  0.2035
 6550W        W21681  11.338   3.109   4.921 -0.0304 -0.1537  0.0117
 6551W        W21682   5.392  15.096   2.758 -0.1891 -0.1704  0.0484
 6552W        W21683   2.089   9.970  15.981  0.1969  0.0499  0.0666
 6553W        W21684  14.693  16.988  12.606 -0.4365 -0.2316 -0.0498
 6554W        W21685  10.658  15.734  10.135 -0.1487 -0.1397  0.0937
 6555W        W21686  17.707  11.158  12.764  0.1418 -0.1274 -0.3037
 6556W        W21687   5.621   2.318  15.205 -0.1800  0.3083 -0.0155
 6557W        W21688  14.810  14.009  14.296  0.3047 -0.1916 -0.1115
 6558W        W21689   0.921   5.313   3.313  0.0617  0.2134 -0.0551
 6559W        W21690   7.796   6.715  15.126  0.2468  0.1956 -0.1769
 6560W        W21691   0.825  10.482  11.677  0.0965  0.0360  0.0733
 6561W        W21692  13.454   9.861  13.811  0.0518  0.4947 -0.2517
 6562W        W21693  16.085  16.579   4.438  0.0651  0.1617 -0.0056
 6563W        W21694   1.902  17.811   4.486 -0.0669  0.1894  0.0128
 6564W        W21695   9.946  18.069   4.812 -0.2195  0.1115 -0.0618
 6565W        W21696  15.572   8.993  16.129 -0.1439  0.0615  0.0255
 6566W        W21697   0.865   9.305   5.902  0.1376 -0.0002 -0.0935
 6567W        W21698   3.543   1.898   5.064 -0.3002  0.0467 -0.2967
 6568W        W21699   1.046   6.864   5.708  0.2131 -0.0226  0.0251
 6569W        W21700   7.359   2.722  11.576 -0.2251  0.3241  0.0411
 6570W        W21701   0.508   0.575  14.645  0.1554 -0.0107  0.0682
 6571W        W21702  11.341   8.869   5.114 -0.0487  0.0187  0.1374
 6572W        W21703   6.365  10.743  15.955  0.0560 -0.0810 -0.0723
 6573W        W21704   2.731   2.200  13.960 -0.1745  0.1130  0.2648
 6574W        W21705   1.156   2.168   3.612  0.4062 -0.1322  0.1558
 6575W        W21706   3.342   0.379   2.435 -0.2546 -0.1494  0.1841
 6576W        W21707   6.949   3.049  15.058  0.0655 -0.1039 -0.0534
 6577W        W21708   6.421   7.634   4.017 -0.0858 -0.0278 -0.3011
 6578W        W21709   7.722   2.893   3.063 -0.1633 -0.1072 -0.1795
 6579W        W21710   7.649   6.088  13.860 -0.0212 -0.0934  0.0170
 6580W        W21711  15.266   6.717   5.487  0.0745  0.1646  0.1060
 6581W        W21712   2.915  17.575  12.760 -0.1341  0.1752 -0.0057
 6582W        W21713   1.837  14.424   3.319  0.0051  0.0161 -0.0333
 6583W        W21714   0.135   1.058  11.618  0.0210 -0.1011 -0.1980
 6584W        W21715   4.658  14.748   6.120 -0.2459  0.0798  0.0414
 6585W        W21716  17.138  10.798   5.837 -0.0055 -0.1491 -0.2840
 6586W        W21717   2.605  15.654   4.456  0.0404  0.1651 -0.4472
 6587W        W21718   8.645   7.855   3.215  0.0187  0.0160 -0.0068
 6588W        W21719   3.437   9.598   2.941 -0.1645  0.1141 -0.1371
 6589W        W21720  15.005   0.197   3.932  0.0547  0.0457  0.0339
 6590W        W21721   5.084  16.851   0.588 -0.0574  0.2518  0.3595
 6591W        W21722  16.030  13.088   4.860  0.1880  0.0117  0.0143
 6592W        W21723  15.976   8.610  14.013  0.1162 -0.2712 -0.0735
 6593W        W21724  10.039  14.077  11.802 -0.3148  0.1430  0.0395
 6594W        W21725   9.473   5.488   2.939 -0.1469  0.0428  0.0766
 6595W        W21726  16.436   0.323  12.352  0.3645 -0.1502  0.1580
 6596W        W21727  10.099   1.155  13.589 -0.0735 -0.0891  0.1965
 6597W        W21728   5.565   0.504  15.174 -0.0069 -0.0751 -0.1091
 6598W        W21729   3.710   1.202   4.294  0.1080 -0.1026  0.0059
 6599W        W21730   0.941  10.555   4.656  0.1113 -0.1181 -0.3169
 6600W        W21731   4.728   3.116   4.702 -0.1262  0.1959  0.0489
 6601W        W21732  13.986   4.798  12.042  0.0866  0.0142  0.2296
 6602W        W21733   0.928   3.765   1.668 -0.0146  0.0104  0.1348
 6603W        W21734  13.188   1.809  14.700  0.1537 -0.3446 -0.0859
 6604W        W21735   5.513   4.001  16.041  0.1280 -0.0334  0.1632
 6605W        W21736   0.149  13.117   3.975 -0.1351  0.1892 -0.0526
 6606W        W21737  16.543  16.162  16.138 -0.3401  0.1792 -0.0506
 6607W        W21738   9.679   3.453   2.977  0.1875 -0.1378 -0.0403
 6608W        W21739   4.075   4.507   1.246 -0.1435 -0.0732  0.2842
 6609W        W21740   2.215  11.622   3.773  0.2692  0.0768  0.1377
 6610W        W21741   4.041  10.828   2.846  0.1814 -0.2324 -0.0574
 6611W        W21742   4.114  13.630   3.164 -0.0220 -0.0053  0.1434
 6612W        W21743  15.867   4.221  11.306 -0.1444 -0.2552 -0.2840
 6613W        W21744   1.013  15.989   2.475  0.3811  0.0495 -0.1820
 6614W        W21745  11.844  12.083  13.501  0.0369  0.0493  0.0575
 6615W        W21746  15.232   0.822   0.017 -0.1015 -0.0157 -0.3217
 6616W        W21747  15.120   3.567   2.973  0.0020  0.0904 -0.1675
 6617W        W21748   3.776   8.868   2.926 -0.0078 -0.1891  0.3557
 6618W        W21749  13.512   6.754   0.560 -0.0211  0.2323  0.0842
 6619W        W21750   8.913   4.913   5.060  0.2571  0.1421 -0.5627
 6620W        W21751   3.924   8.777  13.726 -0.4167  0.2010  0.0994
 6621W        W21752   9.686  14.531   2.993 -0.2597  0.1345 -0.1173
 6622W        W21753   5.058   7.858  11.420  0.3248  0.4363  0.1080
 6623W        W21754   0.178   8.875  16.224 -0.0037  0.0154 -0.0454
 6624W        W21755   7.975   1.048   0.320  0.1010 -0.3469 -0.4034
 6625W        W21756   8.028   5.808  10.503 -0.0822 -0.3436 -0.2265
 6626W        W21757   9.324  16.071   3.676  0.0051  0.1458  0.1594
 6627W        W21758  17.155   3.801   4.282  0.3075 -0.3314  0.2226
 6628W        W21759  13.511   5.397  14.258 -0.0876 -0.1935  0.4066
 6629W        W21760  11.283  10.465   4.023  0.0002 -0.1438  0.2034
 6630W        W21761  11.588  16.121   2.224  0.0167 -0.0530 -0.4619
 6631W        W21762   7.170   9.129   0.912  0.0122  0.0400 -0.2402
 6632W        W21763  12.793  15.496  12.328 -0.1069  0.2188 -0.4908
 6633W        W21764  12.338  13.867   3.851  0.6033 -0.2154  0.2367
 6634W        W21765   9.054  12.392  13.104 -0.1040 -0.1161 -0.0779
 6635W        W21766   8.413  13.852   5.533 -0.1883  0.0486 -0.3080
 6636W        W21767  13.728  14.324   3.332 -0.3332 -0.2088 -0.1328
 6637W        W21768   1.029  15.572  12.454  0.1833  0.0657  0.0980
 6638W        W21769   0.805  14.539   1.465 -0.0329  0.3468 -0.1518
 6639W        W21770   0.758   7.285  12.004 -0.1057 -0.1175 -0.1458
 6640W        W21771   4.732   0.245  12.742 -0.0877 -0.3278  0.3623
 6641W        W21772  15.267   8.757   0.545 -0.1879 -0.1432 -0.1531
 6642W        W21773  11.439  12.728   2.502 -0.1021  0.0298 -0.0938
 6643W        W21774  11.046   7.264  14.164 -0.1552 -0.1891 -0.1166
 6644W        W21775  15.083  14.720  16.181 -0.0860  0.3362  0.0687
 6645W        W21776   6.859  11.792   4.031 -0.3113 -0.0349  0.3847
 6646W        W21777  12.686  12.226   4.972  0.0688  0.2156 -0.0971
 6647W        W21778  13.270  17.834   2.468 -0.0414  0.1393 -0.1730
 6648W        W21779   6.080   9.623   0.873 -0.0202  0.1948 -0.1588
 6649W        W21780  17.329   1.148   1.932 -0.1392 -0.0120 -0.2578
 6650W        W21781  15.125  10.054  12.899 -0.0122 -0.0688 -0.0119
 6651W        W21782   0.432   2.598   1.765 -0.0429 -0.1287  0.0482
 6652W        W21783   9.969   4.873  11.850 -0.0915 -0.1060  0.1612
 6653W        W21784  15.152  14.972  11.301 -0.0084  0.2145  0.0118
 6654W        W21785   1.469   6.380  15.029  0.5318 -0.1990 -0.0851
 6655W        W21786   0.837  16.991  12.385 -0.0984  0.3600  0.0527
 6656W        W21787  12.448  10.112  13.413 -0.2578 -0.2259  0.1652
 6657W        W21788  11.461  10.565  11.677 -0.0972  0.0556  0.0959
 6658W        W21789   4.937  11.530  11.496 -0.2952 -0.0587  0.0913
 6659W        W21790   8.224   9.175  14.946 -0.1738 -0.2396 -0.2239
 6660W        W21791   5.501   8.695   4.028 -0.3377  0.0803 -0.1710
 6661W        W21792   9.135  15.967   2.570  0.0463 -0.1740 -0.1766
 6662W        W21793   8.972   9.241   4.344 -0.0935  0.3065  0.0327
 6663W        W21794  11.091  14.710  10.092 -0.0196 -0.1876 -0.0929
 6664W        W21795   5.118  17.361   4.385  0.0772  0.4785  0.1219
 6665W        W21796  16.118  12.588   3.961 -0.0637  0.0380 -0.0643
 6666W        W21797  15.606   3.126  12.003 -0.0499  0.0908  0.2521
 6667W        W21798  13.819   9.683  15.111 -0.1989 -0.0948 -0.0561
 6668W        W21799   7.745  13.523   2.860 -0.0661 -0.0574 -0.2703
 6669W        W21800   9.697   5.164   2.206 -0.0791  0.2290 -0.2914
 6670W        W21801  10.335   5.613   3.815  0.1656  0.0833  0.1572
 6671W        W21802  11.230   6.671  13.875  0.0175  0.1575 -0.4164
 6672W        W21803   5.687   0.349   2.715 -0.0720 -0.2328 -0.1065
 6673W        W21804   6.846   7.831   2.257  0.0329 -0.0895 -0.1660
 6674W        W21805  11.022   7.952  15.704 -0.2193 -0.1084  0.3398
 6675W        W21806   0.833   5.372  11.010 -0.0226  0.2052  0.0484
 6676W        W21807  16.939   3.657   1.935 -0.1683  0.2257  0.3249
 6677W        W21808   7.742   9.756   3.859 -0.0737 -0.0286 -0.0405
 6678W        W21809  15.333  17.716   5.660 -0.0216  0.1210 -0.0300
 6679W        W21810   3.429   0.504   5.662 -0.0327 -0.0960 -0.0845
 6680W        W21811   2.968   6.379   0.624 -0.3213  0.0984 -0.0640
 6681W        W21812  14.094   9.717   2.319 -0.1019  0.4167  0.0747
 6682W        W21813  11.885   5.908  14.059  0.0982 -0.1153 -0.0613
 6683W        W21814  14.170  13.927  13.679 -0.1559 -0.0842  0.0127
 6684W        W21815   2.494  12.410  14.972 -0.0676 -0.2164  0.3474
 6685W        W21816  12.287  15.922   3.992 -0.0488 -0.1057 -0.0723
 6686W        W21817   9.764  17.472  13.993 -0.2216  0.4390  0.1073
 6687W        W21818  18.099  10.715  14.318  0.0385 -0.0013 -0.1268
 6688W        W21819  14.919  12.483  15.171  0.0510  0.0996 -0.1658
 6689W        W21820   9.402  10.906  10.205 -0.1994  0.1070 -0.2222
 6690W        W21821   5.518   3.014  11.402  0.1519  0.4270  0.0573
 6691W        W21822  11.115   9.653   2.194 -0.0080  0.0747 -0.0146
 6692W        W21823   2.756   4.694  10.913 -0.5511 -0.2854 -0.1180
 6693W        W21824  16.517   1.434  16.315 -0.1483  0.0973  0.1549
 6694W        W21825   4.214   2.403   0.076 -0.2057  0.0199  0.1944
 6695W        W21826  10.300   5.124  10.828  0.0549 -0.2051 -0.2514
 6696W        W21827   1.688  10.181   0.855  0.0124  0.0703 -0.2695
 6697W        W21828  12.732   1.432   0.144  0.3179 -0.0118 -0.0147
 6698W        W21829   3.594  14.972   2.446  0.0481 -0.4938 -0.2285
 6699W        W21830  17.376   0.250  16.242 -0.0050 -0.1398  0.1731
 6700W        W21831   2.036  15.504   3.515 -0.1112 -0.4640  0.1342
 6701W        W21832   8.431   4.364  13.534  0.0025  0.2925 -0.0764
 6702W        W21833  16.267   5.524  15.475  0.0706  0.1741 -0.2378
 6703W        W21834  17.595  12.260  14.390  0.1432 -0.0146  0.4374
 6704W        W21835   6.565   3.123   1.675  0.0613  0.2589  0.0159
 6705W        W21836   9.760   3.372  15.789  0.0493  0.1010 -0.1159
 6706W        W21837   6.274   2.849  14.264  0.0337 -0.1738  0.2535
 6707W        W21838   8.507   4.959   1.410 -0.0373 -0.1136 -0.0981
 6708W        W21839  11.256  15.876   0.677 -0.2411  0.1545 -0.2951
 6709W        W21840   1.933   7.680   1.266 -0.0393 -0.0945 -0.0091
 6710W        W21841  14.933  14.205  11.228  0.0761 -0.0562 -0.2580
 6711W        W21842  12.587   1.594   5.396 -0.0009 -0.5506 -0.0217
 6712W        W21843   1.818  11.595  14.337 -0.0229 -0.2122 -0.1828
 6713W        W21844  14.194  12.203  11.102 -0.1774 -0.3953 -0.0198
 6714W        W21845   9.824  14.894   2.677  0.2224 -0.1361 -0.0670
 6715W        W21846  13.859  11.403  11.323  0.1836  0.3248  0.1930
 6716W        W21847   6.795   7.886   2.754  0.2313 -0.0155 -0.1219
 6717W        W21848  15.648  13.860  13.574  0.2004  0.0918  0.2794
 6718W        W21849  15.200   4.657   1.882  0.1598 -0.0891  0.2492
 6719W        W21850   7.491   4.164  16.362 -0.4072 -0.0301  0.1753
 6720W        W21851   4.069   6.741   4.543 -0.3690 -0.0933 -0.1249
 6721W        W21852   0.831   9.765  15.442  0.0501  0.2479 -0.1777
 6722W        W21853  12.066  13.001   3.767 -0.0009 -0.1384  0.0554
 6723W        W21854  13.463  12.385   2.622  0.2854  0.1919 -0.0768
 6724W        W21855   2.173   2.145   2.523 -0.0821 -0.0986  0.1291
 6725W        W21856   7.179  10.158   1.734  0.1187  0.3428 -0.2036
 6726W        W21857  14.741   1.632   0.886  0.0560 -0.1497  0.3797
 6727W        W21858   8.003  15.367   1.333  0.5692 -0.1642  0.1217
 6728W        W21859  16.174   9.405  11.561 -0.1261 -0.0436  0.1027
 6729W        W21860   9.661   8.903  16.417  0.1814  0.2316 -0.0470
 6730W        W21861  15.490   7.932   5.582  0.0970 -0.2387 -0.0857
 6731W        W21862   2.313  13.805   5.625  0.0570  0.1212 -0.2313
 6732W        W21863   7.328   5.852   5.251 -0.1416 -0.5551  0.3342
 6733W        W21864   5.737  13.882   1.591  0.1150 -0.0705  0.2605
 6734W        W21865   7.061  15.792   0.556  0.0633  0.0123  0.2215
 6735W        W21866  15.192   2.334   0.080 -0.1501  0.0168  0.0241
 6736W        W21867   6.831   4.893  11.132  0.3209  0.0415  0.1059
 6737W        W21868   2.114  10.328  14.034 -0.0017 -0.1003  0.4605
 6738W        W21869   5.059  12.140   4.292 -0.1549  0.0584 -0.0088
 6739W        W21870  11.385  15.992  12.156 -0.1104  0.3578  0.0541
 6740W        W21871   4.899   3.059  15.920 -0.0109 -0.3788 -0.0494
 6741W        W21872   7.487  15.487  15.291 -0.0893  0.0918  0.1708
 6742W        W21873  16.897   0.143  12.865  0.3634  0.1937  0.1205
 6743W        W21874   0.272  15.959   3.265  0.0014  0.1271  0.0133
 6744W        W21875  15.828   6.664   3.687 -0.2795  0.1122 -0.2896
 6745W        W21876   6.249   8.770   5.440 -0.2159 -0.0199  0.0110
 6746W        W21877   9.911   2.765   5.119 -0.2282  0.0611  0.1544
 6747W        W21878   9.094  11.020   5.012  0.1757 -0.1824 -0.1726
 6748W        W21879   5.728   2.726   0.692  0.1002 -0.0905 -0.2556
 6749W        W21880   2.774   1.665   4.998 -0.2645 -0.2452 -0.2907
 6750W        W21881   7.332   0.947  14.353 -0.0014  0.2350 -0.0955
 6751W        W21882  17.011  12.234   5.343  0.3094 -0.1531  0.2153
 6752W        W21883  16.762   8.848  13.043 -0.1279 -0.1642  0.0979
 6753W        W21884   9.648   4.997   4.229  0.0783 -0.1126  0.0709
 6754W        W21885   1.701   4.967  10.653 -0.0171  0.0703  0.1162
 6755W        W21886   4.195  17.927   0.390  0.0262  0.1886  0.1385
 6756W        W21887  14.272   3.313   2.866 -0.3819 -0.0673 -0.3179
 6757W        W21888   2.833   9.870   0.747 -0.1478  0.3010  0.1336
 6758W        W21889   7.568   2.757  13.883  0.1246  0.0251  0.1707
 6759W        W21890  11.896  14.157   5.226 -0.0946 -0.2479 -0.1399
 6760W        W21891   7.415  10.522  14.042  0.0194  0.1246 -0.1142
 6761W        W21892   9.980   6.957  16.001  0.0581  0.0569 -0.1747
 6762W        W21893   5.701   4.385  13.870  0.0177 -0.0694 -0.1583
 6763W        W21894   7.466   0.229   0.092  0.1352  0.3095  0.0850
 6764W        W21895  12.988  15.901  13.827  0.2246 -0.0698 -0.1695
 6765W        W21896  13.525   8.753  12.364 -0.0176  0.3400 -0.1458
 6766W        W21897   2.564   7.438   2.941 -0.3549 -0.0866  0.5398
 6767W        W21898   0.006   6.782   2.869 -0.0798  0.0723  0.0689
 6768W        W21899   7.034  17.181   3.975 -0.0356 -0.0256 -0.0070
 6769W        W21900   3.368  14.459   3.848  0.2060 -0.0897  0.0660
 6770W        W21901   2.601  10.144  16.160  0.1483  0.2853  0.1174
 6771W        W21902  14.285  15.327   0.700  0.0846 -0.0681  0.0086
 6772W        W21903   8.795   2.336  16.411 -0.1401 -0.0178 -0.0411
 6773W        W21904   5.116   4.778  10.277  0.3095 -0.2246  0.1750
 6774W        W21905  16.319  10.412  11.338  0.3232 -0.1749 -0.1956
 6775W        W21906   4.714   9.433   6.115 -0.0263 -0.0318 -0.0253
 6776W        W21907   8.991   9.928   3.002  0.1411  0.3469  0.0936
 6777W        W21908  17.494   5.974   2.046 -0.3692 -0.1043 -0.2741
 6778W        W21909   1.247  16.884   2.440 -0.1213  0.0273  0.3661
 6779W        W21910  17.867   5.838  13.107 -0.0312  0.0014  0.0029
 6780W        W21911   5.637  12.168  16.386 -0.0736  0.0870 -0.1618
 6781W        W21912   6.291  13.251   3.974  0.2696 -0.0051  0.1634
 6782W        W21913  16.020  16.220  16.216 -0.0001 -0.2448 -0.2131
 6783W        W21914   8.287  17.653  14.007  0.0519 -0.1498  0.1888
 6784W        W21915   2.215   2.062   4.546  0.1405 -0.0435  0.2559
 6785W        W21916  13.569  13.599  13.637  0.1281  0.0206  0.3969
 6786W        W21917   9.904   6.836   4.985  0.0036 -0.1649 -0.3528
 6787W        W21918  13.696   4.211   2.938 -0.1321  0.3427  0.2246
 6788W        W21919   6.090   1.120   6.995  0.1550 -0.2647  0.1065
 6789W        W21920  18.070  15.993  14.968 -0.1535  0.3589  0.3382
 6790W        W21921  16.986   5.101  15.920 -0.1137 -0.0487  0.2332
 6791W        W21922   3.611   9.664  13.112  0.1820  0.2205  0.0769
 6792W        W21923  12.618   5.803  13.893 -0.0453 -0.1795  0.0076
 6793W        W21924  16.319  16.072   0.172 -0.0816  0.0227  0.3122
 6794W        W21925  10.045   3.143  10.824 -0.0466  0.1237 -0.2557
 6795W        W21926   5.492   7.926   3.769 -0.1559  0.0200  0.0631
 6796W        W21927   5.267   5.876  13.937 -0.1375 -0.0779 -0.2480
 6797W        W21928   1.403   6.033   5.898  0.4431  0.0101  0.1961
 6798W        W21929   7.345  15.966   5.644  0.2952 -0.3539 -0.1120
 6799W        W21930  12.854   7.618  12.297 -0.2192 -0.0661  0.3865
 6800W        W21931  15.043   8.290   4.779  0.2503  0.0917  0.2061
 6801W        W21932  18.042   4.888  12.149  0.1962 -0.2677  0.1533
 6802W        W21933   1.336   0.170  15.769  0.2995  0.0779  0.0694
 6803W        W21934  14.484  14.221  14.646  0.0075  0.1267  0.2322
 6804W        W21935  15.304  13.702   4.590  0.2877 -0.0126 -0.1588
 6805W        W21936   5.122  10.729  11.750 -0.1791  0.1087  0.3011
 6806W        W21937  12.153  17.194  16.255  0.3332  0.1710  0.2538
 6807W        W21938   7.630   6.352  16.243  0.0791  0.2963  0.0932
 6808W        W21939   1.432   5.135  15.606  0.1737 -0.2605  0.1383
 6809W        W21940  16.175  10.079  14.865  0.0895  0.1049  0.2298
 6810W        W21941  13.034   0.675  16.433 -0.0193 -0.4990 -0.0016
 6811W        W21942  18.056   2.776  15.014 -0.0292  0.2286 -0.1016
 6812W        W21943  16.633   7.211  15.877 -0.2633 -0.1935  0.2921
 6813W        W21944  16.463   1.143  15.879 -0.1554  0.1331 -0.2019
 6814W        W21945   7.507  11.478  14.426  0.1145  0.0562 -0.2259
 6815W        W21946  12.942  11.756   0.483  0.4338 -0.0488  0.0653
 6816W        W21947   3.124   6.309   4.961 -0.1784  0.0318  0.2898
 6817W        W21948   7.416  13.171   3.144  0.0386  0.0302  0.1733
 6818W        W21949   7.829   1.847  13.648 -0.2302  0.2614 -0.1059
 6819W        W21950   0.185  11.589  15.097 -0.0036  0.0381  0.0979
 6820W        W21951  14.436   7.209  12.863 -0.3113  0.2205  0.1701
 6821W        W21952  12.611   0.251  11.654  0.2705  0.3946 -0.0047
 6822W        W21953  11.919  13.468  14.964  0.0565 -0.1006  0.5050
 6823W        W21954   9.462   6.835  14.068  0.5116 -0.1504 -0.1546
 6824W        W21955  10.388   0.190  14.161 -0.0784  0.0351  0.0192
 6825W        W21956   3.746   7.526   0.956  0.0333 -0.0138  0.1595
 6826W        W21957  11.985  13.663   1.645 -0.2003  0.0521 -0.0285
 6827W        W21958  17.765   8.842   5.471 -0.6645 -0.0275 -0.0740
 6828W        W21959  17.532   2.577   5.823  0.5269  0.1437 -0.1233
 6829W        W21960  14.401  12.333   0.277  0.0453  0.3827 -0.1566
 6830W        W21961  14.568   8.808   3.480  0.4391 -0.0517  0.0664
 6831W        W21962  16.884   0.634   3.748 -0.1359  0.2706  0.1583
 6832W        W21963  11.368   4.506   2.105 -0.0097 -0.0543  0.2467
 6833W        W21964   8.757   6.266  12.639 -0.3626 -0.0516 -0.0366
 6834W        W21965   3.272  15.803  15.980 -0.0816  0.0458 -0.0222
 6835W        W21966   3.508   9.710  13.616  0.1303 -0.0061  0.0180
 6836W        W21967   9.597  14.923   5.098  0.0660  0.2515  0.1673
 6837W        W21968  16.988  16.544   3.855 -0.4342 -0.2908  0.0227
 6838W        W21969  13.919   3.864   3.763 -0.0715  0.0955 -0.1645
 6839W        W21970  16.921  16.285  11.475 -0.1537  0.1563  0.0020
 6840W        W21971  17.331   4.477   3.182  0.1761  0.4901  0.2599
 6841W        W21972   4.999   6.776  12.456  0.0210  0.0312 -0.0306
 6842W        W21973   8.362  11.888   2.055 -0.0387 -0.1542 -0.1790
 6843W        W21974   9.433   2.356  12.982  0.2280 -0.1289 -0.0351
 6844W        W21975  14.190   8.404  12.897 -0.1862 -0.0167 -0.1263
 6845W        W21976   6.682   0.726  13.797 -0.0576 -0.2886 -0.2028
 6846W        W21977   3.796  13.909  11.644 -0.1431 -0.2604 -0.1279
 6847W        W21978  13.736   1.179  11.470  0.3044  0.2117  0.2205
 6848W        W21979  16.421   7.151  14.597 -0.4154  0.2858 -0.0178
 6849W        W21980  14.903  13.861   0.316 -0.1563  0.0521  0.3635
 6850W        W21981   9.346  15.736   1.704  0.1034  0.2545 -0.1588
 6851W        W21982   7.017   5.634   5.821  0.0285 -0.2172  0.3640
 6852W        W21983   4.066  15.495   4.298 -0.0192 -0.0045 -0.0244
 6853W        W21984  11.113   3.586   4.944  0.1342  0.0207  0.3096
 6854W        W21985   9.584   3.325  10.837 -0.0945  0.2236 -0.0953
 6855W        W21986   0.831  10.865   0.661 -0.0502  0.0969  0.3662
 6856W        W21987   0.751   9.459   5.436  0.2770 -0.0072  0.0039
 6857W        W21988   5.137  13.749  13.079  0.2314  0.1975 -0.4218
 6858W        W21989   9.744   6.842  13.291  0.2019  0.0415 -0.0857
 6859W        W21990  16.116   7.669   0.498 -0.0060 -0.0760 -0.1583
 6860W        W21991   8.098   0.951  13.809  0.1835 -0.0196 -0.1762
 6861W        W21992  17.673   0.924   4.300  0.1468 -0.0469 -0.0824
 6862W        W21993  14.363  17.010   1.937 -0.1319  0.0192  0.3518
 6863W        W21994  15.489   3.190  16.260 -0.4033 -0.0766 -0.2449
 6864W        W21995  14.066  15.518   2.044  0.1107  0.1562  0.0327
 6865W        W21996   4.910  14.447  11.875 -0.1482 -0.1453  0.0567
 6866W        W21997   4.555   0.992  13.111 -0.0131 -0.1516 -0.0448
 6867W        W21998   5.519   6.976   4.692 -0.3026  0.2832 -0.1541
 6868W        W21999  16.427   0.795  12.152  0.3044 -0.1217 -0.1207
 6869W        W22000  16.824   1.056   2.967 -0.1229 -0.1863 -0.1068
 6870W        W22001  10.698   5.488   0.903  0.3272  0.0540  0.1476
 6871W        W22002   4.087   7.751  13.802 -0.0751  0.3290 -0.0989
 6872W        W22003  12.613  15.883  16.093  0.0453  0.1682 -0.0124
 6873W        W22004  10.747  14.209   4.501  0.1100 -0.2598 -0.0575
 6874W        W22005  14.928   0.002   3.422  0.2469 -0.1223  0.1836
 6875W        W22006   8.311  10.384   5.028  0.3951  0.0257 -0.3969
 6876W        W22007  17.528   5.729   4.072 -0.0817 -0.2634 -0.0763
 6877W        W22008  16.957   2.036  11.427 -0.1067 -0.0851 -0.0393
 6878W        W22009  12.622   1.032  16.250  0.1692 -0.0957  0.0818
 6879W        W22010   4.386  16.962  10.576  0.1603 -0.0109 -0.0018
 6880W        W22011  16.001  10.575  15.002 -0.3603  0.1206  0.0602
 6881W        W22012   3.034   6.806  15.478  0.1759 -0.2268  0.0707
 6882W        W22013   8.659  16.599   0.224  0.1388  0.3292  0.0962
 6883W        W22014   3.028   0.941   5.807  0.1432  0.1598 -0.1833
 6884W        W22015  16.175   9.015  13.721 -0.1894 -0.1901 -0.0836
 6885W        W22016   8.583   4.854   0.059  0.1966  0.2280  0.1352
 6886W        W22017   1.330   6.777  14.687  0.1211 -0.0020  0.0526
 6887W        W22018   6.311   4.328  15.738  0.3814  0.1413  0.3434
 6888W        W22019  16.290   1.734  12.010  0.0981 -0.0906 -0.1474
 6889W        W22020   3.160   2.116  11.998 -0.0000 -0.0271  0.3393
 6890W        W22021   7.650  17.807   1.751  0.1235 -0.2425  0.0260
 6891W        W22022  13.521  17.563  15.954  0.0967 -0.1079  0.3340
 6892W        W22023   6.471   8.702  15.120  0.0903 -0.0210  0.2114
 6893W        W22024   2.701  17.576   1.434 -0.5323 -0.1231 -0.0937
 6894W        W22025   0.935  10.062  13.891 -0.0991  0.0687 -0.1026
 6895W        W22026  13.427   2.018  13.898  0.0428  0.1311  0.2700
 6896W        W22027   7.872  10.596  13.656  0.3451  0.2733 -0.1025
 6897W        W22028  14.279  14.863  11.269 -0.2224  0.1294 -0.3617
 6898W        W22029  12.166   7.592  13.071 -0.0564 -0.0809 -0.0523
 6899W        W22030  11.348  13.224   4.706 -0.2882 -0.1372  0.1048
 6900W        W22031   5.059   8.560   3.706 -0.2654 -0.0370  0.1899
 6901W        W22032   9.053  11.639   4.242 -0.0990 -0.0341  0.0232
 6902W        W22033   4.107  13.942  13.976 -0.0152  0.0086 -0.0083
 6903W        W22034   7.869  17.523   4.667 -0.3125 -0.0313 -0.2952
 6904W        W22035  16.484   6.469   0.978 -0.2296  0.0989  0.3111
 6905W        W22036   4.325  17.230  15.304 -0.2592  0.1065  0.2088
 6906W        W22037  17.873   6.355  13.044 -0.2296  0.2209  0.2531
 6907W        W22038  15.134  14.730   0.610 -0.0504  0.1612  0.2141
 6908W        W22039   2.854   5.348   3.997 -0.0145 -0.2237  0.0396
 6909W        W22040  13.587   0.647  11.514  0.0537  0.1009  0.1241
 6910W        W22041  13.445  17.130   0.126  0.1160 -0.0127 -0.0328
 6911W        W22042  10.932   8.776  11.748  0.6833  0.1718 -0.0024
 6912W        W22043  17.084  16.175  11.998  0.1834  0.1306  0.2540
 6913W        W22044  15.167   8.891   3.951 -0.4436  0.2617  0.1477
 6914W        W22045  12.230  11.901   2.947 -0.0290 -0.1861 -0.0970
 6915W        W22046  13.834  12.636  10.258  0.1161  0.2787  0.1527
 6916W        W22047  12.841  17.744  13.441  0.1144  0.1430 -0.3479
 6917W        W22048   4.394   5.975   1.258  0.0975  0.0625  0.2295
 6918W        W22049  15.882   7.491   5.972  0.0381  0.1612 -0.0357
 6919W        W22050  15.165   7.169   5.781  0.0455 -0.3093 -0.0755
 6920W        W22051   7.543   4.138  14.561  0.1661 -0.1875 -0.0260
 6921W        W22052   8.714  14.689   5.460 -0.1511  0.0961  0.1690
 6922W        W22053  15.618  13.090   3.199 -0.1501  0.2701  0.0150
 6923W        W22054  16.747   0.519   0.265 -0.1013  0.0938  0.2274
 6924W        W22055  15.187  10.713   2.518 -0.0855  0.1143 -0.0888
 6925W        W22056   2.242   7.431   3.624  0.3025  0.3988 -0.0346
 6926W        W22057  11.488   5.862   2.121  0.2040  0.0808  0.1056
 6927W        W22058   0.858   4.772   5.514  0.0282 -0.2079 -0.0125
 6928W        W22059   7.598  10.847   3.090  0.4044  0.1563 -0.1336
 6929W        W22060  16.728  11.199  13.765 -0.1350 -0.3341 -0.1563
 6930W        W22061   5.704   1.678   4.579  0.0333 -0.0265 -0.1720
 6931W        W22062   1.132   9.824   2.452  0.1598 -0.1638 -0.0808
 6932W        W22063  15.263   7.066   2.900  0.0170  0.2970  0.1831
 6933W        W22064   5.717   9.787   4.721 -0.0500 -0.1213 -0.1711
 6934W        W22065  15.597   7.395   4.261  0.0350  0.1797 -0.0613
 6935W        W22066   6.340  11.660   1.049  0.0771 -0.2987  0.0991
 6936W        W22067  10.069  13.393   3.569  0.2819 -0.2598 -0.2846
 6937W        W22068   4.301  13.657  14.904  0.1652 -0.1377 -0.2843
 6938W        W22069  12.608  11.934   0.949  0.1943  0.4229  0.1138
 6939W        W22070  16.252  13.456   2.087 -0.2456  0.0086 -0.1078
 6940W        W22071   2.612   6.087   2.658 -0.1493 -0.2089 -0.2430
 6941W        W22072   0.530  13.461  15.446  0.1868 -0.2013 -0.1243
 6942W        W22073  11.274  14.259   4.509 -0.1745 -0.0831  0.1781
 6943W        W22074  11.808  12.689  10.898  0.0148 -0.1625  0.0695
 6944W        W22075  13.735   8.005   3.173 -0.0480  0.1750 -0.1433
 6945W        W22076  14.829  11.863  14.713  0.2037  0.0195 -0.0943
 6946W        W22077   1.850  15.114  13.799 -0.0671  0.1620  0.0471
 6947W        W22078   2.856   6.717   4.123  0.2430  0.1234  0.1520
 6948W        W22079  17.789  14.650  11.219  0.3145 -0.1122 -0.0239
 6949W        W22080   9.615   8.947  11.241 -0.0011 -0.0561 -0.0998
 6950W        W22081   6.570   7.350   0.015  0.0201 -0.0839 -0.0459
 6951W        W22082   0.523   1.337   0.958 -0.2783 -0.1714 -0.1639
 6952W        W22083   5.414   3.673  12.884 -0.0516 -0.1546 -0.1473
 6953W        W22084   7.960   3.762   3.086  0.0665 -0.0365 -0.0359
 6954W        W22085   8.813  13.380  13.047  0.1144 -0.3623  0.1965
 6955W        W22086  15.850   0.227   0.649  0.0065 -0.1435  0.0432
 6956W        W22087   9.275  12.630  10.912  0.2123  0.2426  0.0218
 6957W        W22088   5.585   1.259   5.461  0.0142 -0.0383 -0.3805
 6958W        W22089   6.000   1.276   2.604  0.0566 -0.1539  0.2159
 6959W        W22090   7.731  15.521  11.511 -0.3106  0.0169 -0.1639
 6960W        W22091   1.159  14.529   4.241  0.2625  0.1373 -0.0016
 6961W        W22092  16.622   5.283  13.070 -0.1718  0.0952  0.0608
 6962W        W22093  17.572  14.210  15.585  0.0863  0.2504 -0.0932
 6963W        W22094  10.274   5.611   4.488 -0.1116  0.0706 -0.2409
 6964W        W22095   1.213   6.087  11.604  0.0312  0.0825 -0.3470
 6965W        W22096   8.009   0.055   3.104  0.1353  0.1416 -0.1348
 6966W        W22097   5.528   1.123   4.622 -0.0616  0.1737  0.1215
 6967W        W22098  16.237   5.927  11.747 -0.1072  0.1187  0.2360
 6968W        W22099   3.492   0.798   0.849 -0.0031 -0.0061 -0.3078
 6969W        W22100  16.648  11.167  16.051  0.2017 -0.2308 -0.2956
 6970W        W22101  15.375   1.193   4.119  0.0727 -0.2751  0.0095
 6971W        W22102   9.844   0.763   3.243  0.0352 -0.0210 -0.2416
 6972W        W22103  11.900   2.661  15.512  0.0149  0.0765 -0.0406
 6973W        W22104   8.847  13.923   4.930 -0.2050 -0.3134 -0.1116
 6974W        W22105   8.518  11.807   6.091 -0.0808 -0.3963  0.2255
 6975W        W22106   2.086  16.804  13.275 -0.1437 -0.0930 -0.1704
 6976W        W22107   1.578   4.132  15.120  0.1057 -0.4071 -0.0690
 6977W        W22108   0.281  15.942   0.589  0.0438 -0.2145 -0.0316
 6978W        W22109  14.568  12.456  14.747 -0.3382 -0.1434  0.1775
 6979W        W22110   0.786  10.999   2.794 -0.1547 -0.4837 -0.1273
 6980W        W22111   3.986   1.449   1.115  0.0355  0.0770 -0.0607
 6981W        W22112  16.139   4.095   4.263 -0.0030  0.0028  0.3778
 6982W        W22113  14.209   2.957   2.451  0.1404 -0.0653 -0.0404
 6983W        W22114   8.443   5.697   0.195 -0.0663  0.0485  0.1128
 6984W        W22115   2.195  13.609  14.782 -0.0778  0.2126 -0.1911
 6985W        W22116   3.232   7.220  12.375 -0.0258  0.4590  0.0618
 6986W        W22117  15.911  14.983  14.265  0.0507 -0.1796  0.1858
 6987W        W22118  10.575   9.675  14.357  0.0230 -0.0221  0.0470
 6988W        W22119  13.641   9.588   5.473  0.1232 -0.1038  0.0306
 6989W        W22120  11.896   3.748  13.130 -0.3275  0.0939  0.1496
 6990W        W22121  17.004   2.413  15.243 -0.1607 -0.4084 -0.2801
 6991W        W22122  12.963  10.216   1.956 -0.1556 -0.2076 -0.1574
 6992W        W22123  12.662   3.298  13.451  0.3345 -0.1030  0.0789
 6993W        W22124  16.713   4.960   6.085 -0.0462 -0.1795  0.2145
 6994W        W22125   8.693   2.693   2.342  0.1315  0.4096  0.1111
 6995W        W22126   5.587  12.478   0.309  0.2380 -0.1649  0.4102
 6996W        W22127   9.445   8.668  10.040  0.5358 -0.0311  0.0724
 6997W        W22128  11.686   0.980   2.961 -0.0853 -0.0523 -0.0386
 6998W        W22129  13.550  17.880  12.212  0.2476 -0.1729 -0.0095
 6999W        W22130   0.856  10.073   4.832 -0.1615  0.0221 -0.4421
 7000W        W22131   6.077   7.858   5.581 -0.1335  0.1617  0.3169
 7001W        W22132  15.465   6.447   2.128  0.1182  0.0448  0.2512
 7002W        W22133   6.130  11.696  16.227  0.0154  0.1119  0.0181
 7003W        W22134  14.417   5.736   4.593  0.0086 -0.2135  0.0739
 7004W        W22135   1.468  17.157   0.163  0.1109 -0.1824 -0.3605
 7005W        W22136   6.351   8.212  15.566 -0.0562  0.0860 -0.3006
 7006W        W22137   4.724  12.240   2.299  0.0978 -0.1978 -0.0019
 7007W        W22138   8.650   6.418  15.382 -0.2619 -0.2784  0.1739
 7008W        W22139   9.902   9.760   0.006  0.1668  0.0532 -0.2507
 7009W        W22140  14.969   2.347   3.744 -0.0522  0.0438  0.3063
 7010W        W22141  11.175   5.871   3.559 -0.2204 -0.0840  0.2263
 7011W        W22142   1.144   2.944  10.845 -0.4010 -0.1820 -0.1617
 7012W        W22143  16.373   3.031   1.338 -0.0763 -0.2752 -0.2151
 7013W        W22144  10.742  10.346  15.840 -0.1195  0.2730 -0.0045
 7014W        W22145  15.422   3.197  14.691 -0.2354 -0.2630  0.0268
 7015W        W22146   1.787   7.945   2.954 -0.1979  0.3533 -0.0742
 7016W        W22147  17.281  14.073   0.171  0.2693  0.1035  0.1264
 7017W        W22148   2.190   9.418  11.494  0.2778 -0.0368  0.1881
 7018W        W22149   9.896   3.893   2.773 -0.0714  0.1429 -0.0983
 7019W        W22150   3.943  16.972   2.658  0.0150 -0.4335 -0.0730
 7020W        W22151   1.751  15.502   3.054 -0.1966  0.2572 -0.0749
 7021W        W22152   7.962   6.697   0.694  0.0548 -0.0412  0.3074
 7022W        W22153  13.293  15.675   4.498  0.3251  0.1552  0.1545
 7023W        W22154  14.570   7.528   3.818  0.1488  0.2065  0.0168
 7024W        W22155  14.427   0.850  13.039 -0.0647 -0.2043  0.0276
 7025W        W22156   1.667   9.879   0.415 -0.3077 -0.0475  0.3023
 7026W        W22157  15.738  17.658   3.590 -0.0264 -0.1566 -0.0788
 7027W        W22158  16.289  17.054   3.047 -0.0638 -0.0010  0.0806
 7028W        W22159  17.982  12.973   0.501 -0.0270  0.3666 -0.0400
 7029W        W22160   5.468   6.388  11.747  0.0806 -0.0329 -0.0666
 7030W        W22161  10.103   7.489   1.115 -0.0917  0.0619 -0.0397
 7031W        W22162  17.435   2.846  12.407 -0.1268 -0.2122 -0.1642
 7032W        W22163  12.057   5.565   4.376 -0.2468 -0.0900 -0.1267
 7033W        W22164   1.305  14.620   1.420 -0.0555  0.1350 -0.1389
 7034W        W22165   7.353   1.878  14.553 -0.2233 -0.1293 -0.0064
 7035W        W22166  12.093  10.363   4.789  0.0241  0.2456  0.1403
 7036W        W22167  15.178  14.636  14.236  0.1482  0.0755 -0.3744
 7037W        W22168   9.198   4.235   1.975 -0.4438  0.0135  0.0174
 7038W        W22169  14.268   5.315   1.461  0.5282  0.0933 -0.3061
 7039W        W22170   3.445   4.814  13.093  0.1458  0.3326  0.2685
 7040W        W22171   6.074   2.940  13.358 -0.1987 -0.0179 -0.0038
 7041W        W22172   4.916   4.899   2.885 -0.2727  0.0328 -0.0871
 7042W        W22173   1.254  17.652   3.460  0.0612 -0.2964  0.0104
 7043W        W22174   0.756   0.760  12.999  0.0700  0.1437  0.2927
 7044W        W22175  16.877   4.388   1.432  0.3298  0.4066 -0.2802
 7045W        W22176  11.535   9.115  12.410  0.2049  0.2667  0.3176
 7046W        W22177   1.009   6.878  15.100 -0.5596 -0.0857 -0.1483
 7047W        W22178   0.496  12.020  12.755  0.0421 -0.1840  0.3633
 7048W        W22179   1.060   5.259   3.974 -0.1354 -0.0418 -0.1539
 7049W        W22180  15.390  15.102   5.234 -0.2263  0.4153 -0.3914
 7050W        W22181  14.197  10.191   1.182 -0.0134 -0.0522 -0.0371
 7051W        W22182  15.717  17.390   3.046  0.0575 -0.0256 -0.1696
 7052W        W22183   3.223  13.604   2.669 -0.0460 -0.1661 -0.2768
 7053W        W22184  15.058   7.620  13.770  0.0137 -0.0017  0.1612
 7054W        W22185  13.289   4.810   2.357 -0.0722  0.5091 -0.3175
 7055W        W22186  10.733  18.060   4.667  0.1916  0.0115 -0.1669
 7056W        W22187   7.935  10.125  11.128 -0.2041  0.0973  0.3428
 7057W        W22188   5.912   4.005  11.742  0.0248  0.3700 -0.0954
 7058W        W22189  11.559  16.875   0.012  0.0311 -0.2811  0.0470
 7059W        W22190  17.365   5.720  13.286 -0.1529  0.1907 -0.0157
 7060W        W22191   9.731   0.857  14.697  0.1630 -0.0813 -0.2456
 7061W        W22192  12.859   2.200   2.275 -0.0894  0.3299 -0.0064
 7062W        W22193   9.566  16.694   0.773  0.1639  0.0219  0.0370
 7063W        W22194  10.701   4.392  15.225 -0.2415  0.3087 -0.2226
 7064W        W22195  14.213   4.706  14.408  0.0268 -0.2057  0.4705
 7065W        W22196  17.179   6.036   2.554 -0.0030  0.0906 -0.0479
 7066W        W22197  11.186  15.684  13.141  0.1651 -0.0510 -0.1112
 7067W        W22198  14.524   0.505   2.711  0.1065 -0.1080 -0.0595
 7068W        W22199   0.299  17.614  13.886 -0.0143  0.0105 -0.1173
 7069W        W22200   4.134  11.675  14.848 -0.1563  0.2176 -0.3707
 7070W        W22201   1.477  15.836   2.424 -0.0009 -0.1141  0.1499
 7071W        W22202  11.213   6.645   4.959  0.0230 -0.1676 -0.0126
 7072W        W22203   0.197   8.259   1.002  0.0339 -0.2157  0.2920
 7073W        W22204   1.111  17.459  14.533  0.1063 -0.0259 -0.1231
 7074W        W22205   0.323   9.198   0.517 -0.1828 -0.0317  0.1023
 7075W        W22206   4.404  11.255   0.875 -0.0104 -0.2055  0.1524
 7076W        W22207  16.012   7.147   3.858  0.3192  0.3132 -0.2456
 7077W        W22208   9.639   1.862  14.374 -0.0668 -0.3121 -0.1155
 7078W        W22209   8.298  12.675   2.917  0.3173  0.0192  0.0418
 7079W        W22210   7.023   0.662   4.037  0.0594  0.3251 -0.0274
 7080W        W22211  14.633  13.504  12.572  0.2066 -0.4184 -0.4614
 7081W        W22212  15.942   3.133  13.131  0.0823  0.2360 -0.3153
 7082W        W22213  10.924  11.918   5.987  0.0292  0.3181  0.5074
 7083W        W22214   9.291   1.665  13.760  0.0585 -0.4341  0.1011
 7084W        W22215   1.680   9.101  13.358 -0.3609  0.0396 -0.0982
 7085W        W22216   4.559   8.931   5.486  0.0129  0.0522 -0.0626
 7086W        W22217  13.492   6.956  13.879  0.2007  0.1157  0.0679
 7087W        W22218   4.369  12.540  14.583  0.1921  0.1909 -0.0767
 7088W        W22219   7.005  10.034   4.881  0.2571  0.1366 -0.0442
 7089W        W22220  10.957  16.890   2.674 -0.1306  0.1641 -0.0069
 7090W        W22221   0.402  16.074  13.389  0.0631 -0.1833  0.0162
 7091W        W22222  12.467  16.234  13.427 -0.0462  0.3075  0.1523
 7092W        W22223   9.638  15.216  15.702 -0.1333  0.0043 -0.1137
 7093W        W22224  15.905   5.629   4.570 -0.1966 -0.2977  0.1999
 7094W        W22225  10.724  14.142  15.575  0.0645  0.0197  0.0241
 7095W        W22226   1.512  14.490   2.031 -0.0626 -0.0661 -0.1671
 7096W        W22227   5.751   5.427   0.807 -0.1022  0.1412  0.1925
 7097W        W22228  17.794  14.169   4.462  0.2780  0.0275 -0.2221
 7098W        W22229  16.772   3.658   3.503 -0.0161  0.0229 -0.0409
 7099W        W22230   3.219   6.817   2.101 -0.1944 -0.3341 -0.1955
 7100W        W22231  17.361  12.521  14.810 -0.0507  0.1968 -0.1780
 7101W        W22232   8.015   6.677  12.829  0.0392  0.0761  0.0087
 7102W        W22233  13.031  15.045   0.956 -0.0911  0.0139  0.0019
 7103W        W22234  16.096  16.564  11.635 -0.0615  0.0633  0.2652
 7104W        W22235  12.782   9.286   1.904 -0.0987  0.0682 -0.0053
 7105W        W22236  17.871   8.695   0.494 -0.0133 -0.0615 -0.0073
 7106W        W22237   6.069   1.447   3.053  0.1875 -0.1069 -0.0857
 7107W        W22238  12.855  13.311   0.942 -0.1956  0.1419  0.0889
 7108W        W22239   5.368   5.518   0.500 -0.0227  0.3143 -0.0116
 7109W        W22240   0.801  17.377  10.795 -0.1142 -0.0844  0.0018
 7110W        W22241   2.428  13.617  15.751 -0.0033 -0.1906  0.1956
 7111W        W22242   9.908  14.622  11.807  0.0884  0.0120 -0.4274
 7112W        W22243   6.190  17.448   3.384  0.1082 -0.2213 -0.0476
 7113W        W22244   0.072  15.222   1.169  0.0656 -0.0177 -0.0156
 7114W        W22245   3.874   6.425  14.679 -0.1990 -0.0071  0.1776
 7115W        W22246  13.103  16.583   4.079  0.1090  0.1758  0.2016
 7116W        W22247   7.839  15.784   2.115 -0.2474 -0.2375 -0.0042
 7117W        W22248   7.884   5.914  13.441  0.0399 -0.0794 -0.1071
 7118W        W22249   0.047  12.873  13.736 -0.1551  0.0309 -0.1528
 7119W        W22250  10.904   9.719   4.798  0.1666  0.1031  0.1414
 7120W        W22251  17.073   4.696  13.502  0.2650 -0.0426  0.2760
 7121W        W22252   9.756  17.233  14.428  0.1459 -0.0959 -0.0247
 7122W        W22253  11.573  14.089   5.709  0.1688 -0.1801  0.1741
 7123W        W22254   4.936  16.301  11.888 -0.1810  0.1058  0.1668
 7124W        W22255  16.852   8.555   4.586 -0.3914  0.0918 -0.0516
 7125W        W22256   9.809   6.331   6.251 -0.1299 -0.0190 -0.2566
 7126W        W22257   3.524   1.281  15.724 -0.0337  0.0632 -0.0717
 7127W        W22258   3.974   5.658   3.664  0.0285 -0.0082  0.3240
 7128W        W22259  11.429   4.054  11.214 -0.0811  0.0177 -0.1952
 7129W        W22260  14.395  11.188  11.849 -0.1964  0.1219  0.0399
 7130W        W22261  11.835  12.623   1.452 -0.0535 -0.0487 -0.0960
 7131W        W22262   8.427   1.168  10.200  0.1977 -0.0118 -0.0830
 7132W        W22263   2.948  17.155   4.751  0.1225  0.0034 -0.0882
 7133W        W22264  10.908  13.348   2.595  0.0388  0.0805  0.0617
 7134W        W22265   9.413   1.283  16.373 -0.1972 -0.0498  0.0195
 7135W        W22266   5.920  17.143   5.313 -0.0248 -0.1293  0.0589
 7136W        W22267   6.443   5.846  12.932  0.1714 -0.1115  0.2797
 7137W        W22268  14.320   7.073   6.351  0.1256 -0.0957  0.1319
 7138W        W22269   0.433   7.981  13.112  0.3579 -0.1813  0.0941
 7139W        W22270  12.631   3.493   4.865  0.1326  0.0449 -0.2442
 7140W        W22271   0.736   4.427   4.559  0.1582  0.0809 -0.2247
 7141W        W22272  13.815  14.996  12.880  0.0632 -0.1011 -0.1360
 7142W        W22273  18.064   9.758   5.709 -0.0378 -0.1632  0.0114
 7143W        W22274   1.526   6.127  15.499  0.0637 -0.0881  0.3656
 7144W        W22275   1.575  11.897   4.291 -0.0435  0.1460  0.1345
 7145W        W22276  15.953   4.729  15.330 -0.0807  0.2947  0.0636
 7146W        W22277  18.020  11.619  14.699  0.2546 -0.0533 -0.0240
 7147W        W22278  10.656  16.506   1.260 -0.2406  0.2080  0.2287
 7148W        W22279   0.849  12.176   2.114 -0.3583  0.0211 -0.2977
 7149W        W22280   0.580  10.403   0.487  0.0435  0.0917 -0.0261
 7150W        W22281  10.984   0.425   5.166 -0.0235 -0.0576  0.0562
 7151W        W22282   3.422   0.391   1.869 -0.2633 -0.6269  0.3667
 7152W        W22283  16.615   4.431  13.454  0.2735  0.0225 -0.0397
 7153W        W22284  11.108  10.038  10.579 -0.2436 -0.1862  0.2451
 7154W        W22285  14.734   9.402  11.215  0.1877 -0.1032 -0.1797
 7155W        W22286   8.916   4.947  11.818 -0.1719 -0.1056 -0.0163
 7156W        W22287   1.267   5.343  11.298  0.1808 -0.2139  0.0367
 7157W        W22288   8.408   9.757  13.019  0.2063 -0.1798 -0.0580
 7158W        W22289   4.088   1.562   1.650 -0.1210  0.0760  0.0166
 7159W        W22290   4.519   9.355  11.676  0.0914  0.1181  0.0279
 7160W        W22291   8.430  17.966   3.464  0.3335 -0.0792 -0.3480
 7161W        W22292   5.138  16.105  11.359 -0.0695 -0.0214 -0.4099
 7162W        W22293  10.415   9.461  15.579  0.3332 -0.0861 -0.1228
 7163W        W22294  16.824  11.140   5.516  0.0042  0.0545 -0.2607
 7164W        W22295  10.613   2.389  12.456 -0.0144  0.1379 -0.0596
 7165W        W22296   6.184  10.092  12.566  0.0210 -0.2918  0.1386
 7166W        W22297   6.638  10.003   4.484 -0.1868 -0.0744  0.2752
 7167W        W22298  13.724  15.004   2.254 -0.2311  0.2373  0.0081
 7168W        W22299   8.353  12.699  15.131  0.0324 -0.0483 -0.0322
 7169W        W22300   2.674  10.745   4.187 -0.2112  0.2438  0.3282
 7170W        W22301   0.017  11.170  12.255 -0.2032  0.0530  0.2259
 7171W        W22302   6.493   2.930  15.841  0.0865  0.0546 -0.1575
 7172W        W22303   5.556   9.398  15.233  0.1291  0.2525  0.1171
 7173W        W22304   0.809  17.004  14.584  0.1668 -0.2287  0.0962
 7174W        W22305   5.154   0.799   2.562 -0.0691  0.0673  0.1527
 7175W        W22306   2.344  15.779   2.782  0.1349  0.0804 -0.0805
 7176W        W22307   9.196   7.090   0.173  0.3774 -0.4246 -0.0949
 7177W        W22308   3.760   8.766  11.697 -0.1823 -0.2546 -0.0671
 7178W        W22309  10.794  11.655   0.244  0.1217  0.1582  0.1251
 7179W        W22310  12.422   0.319  12.803 -0.1854 -0.0502  0.0969
 7180W        W22311  13.586   1.460  12.750  0.1154 -0.0993  0.1397
 7181W        W22312  14.977  12.772  14.302 -0.0876  0.2780 -0.2175
 7182W        W22313   6.701   1.671   0.554 -0.2894  0.0922 -0.0980
 7183W        W22314   3.341   9.354  15.336 -0.0567  0.5145  0.4669
 7184W        W22315  14.457  13.870   3.201  0.3363 -0.2472  0.0723
 7185W        W22316  13.565  17.469  11.815 -0.2746  0.3004  0.1693
 7186W        W22317  10.026  10.760  11.943 -0.0534 -0.2439 -0.1807
 7187W        W22318   5.625  13.587  10.967 -0.0783  0.2798  0.0003
 7188W        W22319  16.734  14.248   4.568 -0.3315 -0.1388  0.2109
 7189W        W22320   4.636   6.044  15.566 -0.0146  0.0227  0.1386
 7190W        W22321   4.721  14.343  15.163  0.1656 -0.0876 -0.0094
 7191W        W22322  10.581   1.497  13.687  0.0137  0.0977 -0.0048
 7192W        W22323   5.189  14.878  14.629 -0.0752 -0.0282  0.2043
 7193W        W22324   4.954   3.816   5.577  0.0268 -0.1920 -0.0022
 7194W        W22325  15.952  13.898   3.187  0.4062  0.0136  0.0777
 7195W        W22326   4.145   9.662  14.956  0.1894  0.0368 -0.1580
 7196W        W22327  11.291  13.110   2.135  0.2568  0.2392 -0.3079
 7197W        W22328  14.444  12.616   1.715 -0.3710 -0.2357  0.0917
 7198W        W22329  17.311   0.097   2.247 -0.0335 -0.1352 -0.1877
 7199W        W22330  16.551  12.216   0.701  0.2655  0.1251 -0.1089
 7200W        W22331  16.253   8.089  11.282 -0.0606  0.5171  0.0795
 7201W        W22332  16.581  10.129  11.802 -0.1930  0.1135  0.1964
 7202W        W22333   2.385   9.023   0.482 -0.0202  0.0335  0.0941
 7203W        W22334   0.393   3.433  13.960 -0.1039 -0.1035 -0.0860
 7204W        W22335   0.493   7.141  15.950  0.0184  0.4191 -0.0836
 7205W        W22336   1.065  12.822  15.345  0.2159  0.2821  0.2909
 7206W        W22337   9.396  10.545  13.110  0.1594  0.1661 -0.0416
 7207W        W22338   6.319  11.207  16.131  0.0687  0.1609  0.0294
 7208W        W22339   9.103   7.395  14.062  0.2418  0.0150 -0.0359
 7209W        W22340   4.941   8.133  13.667 -0.0637  0.0571  0.0079
 7210W        W22341   3.277   2.772  15.405 -0.1170  0.4425  0.1813
 7211W        W22342  11.719   5.759  16.037  0.0726 -0.1405  0.4128
 7212W        W22343  12.553   9.729   4.500  0.1187  0.3402  0.1447
 7213W        W22344  14.463   3.755   2.649  0.2360 -0.0569  0.3170
 7214W        W22345   2.384   8.068  12.017  0.0253 -0.2599 -0.0831
 7215W        W22346   1.605  12.566   0.722  0.2515  0.1390  0.1103
 7216W        W22347   9.148   8.020   5.915  0.0202  0.0070 -0.0365
 7217W        W22348   1.793  15.055   2.653 -0.0192  0.0703  0.1883
 7218W        W22349  16.103  12.900  14.831  0.2117  0.1722  0.1047
 7219W        W22350   9.978   5.612   2.924  0.2213 -0.1779 -0.0616
 7220W        W22351   6.729   2.043   3.460 -0.0611  0.1761 -0.1959
 7221W        W22352   5.276  12.297   3.885  0.0869 -0.0521  0.0840
 7222W        W22353   1.857   1.658   1.033 -0.1292 -0.1961 -0.0665
 7223W        W22354  11.325  18.065  11.656 -0.1171 -0.0868 -0.1019
 7224W        W22355   0.338   4.589  12.727  0.0555 -0.0791  0.0185
 7225W        W22356  11.497  14.387   2.905 -0.1019  0.2071 -0.0830
 7226W        W22357   2.173  10.622   4.203  0.2955 -0.0952  0.2734
 7227W        W22358  11.688  16.146   3.405 -0.1984 -0.0029 -0.1688
 7228W        W22359   7.405  14.112  12.977  0.0160  0.1044  0.3934
 7229W        W22360   1.719  13.796   3.948  0.0001 -0.1599 -0.0847
 7230W        W22361  12.923  11.081  15.795  0.0954  0.0738  0.0894
 7231W        W22362   3.505  17.424  12.168 -0.5242  0.1228 -0.4377
 7232W        W22363  10.908   2.225   1.866 -0.1080 -0.2860 -0.0678
 7233W        W22364   1.731  11.536  11.565  0.2146  0.1089 -0.1477
 7234W        W22365  11.193   6.765   3.406 -0.1754 -0.3270 -0.0585
 7235W        W22366   7.339   8.411   4.522  0.1024  0.1742 -0.0305
 7236W        W22367  11.109   5.691  12.115 -0.2402  0.0117 -0.0887
 7237W        W22368   0.390   5.022  12.943  0.1839  0.0494  0.1179
 7238W        W22369   6.041   1.445   4.379 -0.2565 -0.1070  0.5889
 7239W        W22370  16.291   8.900  12.117 -0.1211  0.0761  0.0757
 7240W        W22371  17.341  13.916   6.281 -0.2116  0.0529 -0.0684
 7241W        W22372  12.954  15.914  11.505 -0.1715  0.2255  0.0861
 7242W        W22373   6.051   2.223   0.002 -0.3046 -0.3606  0.1812
 7243W        W22374  16.745   8.471  14.287  0.3125  0.1753 -0.0101
 7244W        W22375   4.672   3.147  12.184  0.0229 -0.0741  0.1711
 7245W        W22376  13.855   2.583  11.233  0.1437 -0.1692  0.1379
 7246W        W22377   7.273   5.073  14.688  0.0354 -0.1191  0.2533
 7247W        W22378   7.504  11.431  12.983 -0.2459  0.0184 -0.0908
 7248W        W22379   1.137   3.554   2.904  0.0123  0.3134  0.1371
 7249W        W22380  12.821   7.262   1.753  0.2179 -0.0680  0.1060
 7250W        W22381   0.556  11.857   6.165  0.2364  0.0957  0.0826
 7251W        W22382  12.948  13.732   3.199  0.0333  0.0360  0.1598
 7252W        W22383  13.622  11.736   5.085  0.0566  0.1299 -0.1233
 7253W        W22384   5.447   3.879   5.183 -0.0765 -0.2776  0.1062
 7254W        W22385   5.350   1.210   1.245  0.3074  0.1672 -0.0096
 7255W        W22386  17.298   5.366   5.215  0.0108  0.0039  0.1163
 7256W        W22387   8.425   8.504  12.384 -0.0356  0.1959 -0.0577
 7257W        W22388   3.117   5.541  14.847 -0.1946  0.2101 -0.3012
 7258W        W22389   6.107   2.320  12.245  0.3054 -0.0986 -0.0657
 7259W        W22390  15.525  15.443   0.160 -0.2588  0.1436 -0.3026
 7260W        W22391  13.843   8.206   5.354 -0.2549  0.4672  0.1943
 7261W        W22392   6.649  16.970   3.377  0.1441 -0.1173 -0.1009
 7262W        W22393   0.039  17.980   3.286 -0.1345 -0.1957 -0.0063
 7263W        W22394   4.363   3.645  14.487 -0.2113 -0.0884 -0.0411
 7264W        W22395  10.273  13.823   0.411  0.0048 -0.0058  0.1261
 7265W        W22396   7.600   8.772   4.951 -0.1625  0.2224 -0.1478
 7266W        W22397  10.070   2.048   2.853 -0.0008 -0.2307  0.3346
 7267W        W22398   8.422   8.126  12.747  0.1009 -0.1351  0.0843
 7268W        W22399   4.670  11.029   1.604 -0.0504 -0.2123 -0.0598
 7269W        W22400   7.139  12.817   2.895 -0.1740  0.0236  0.0613
 7270W        W22401   7.818  17.545   4.060  0.1975  0.3839  0.0611
 7271W        W22402   5.037   7.612   2.055  0.0499 -0.0853  0.2025
 7272W        W22403   4.345   3.466   0.426 -0.3132 -0.1463 -0.0746
 7273W        W22404   0.715  15.946   1.382  0.1611  0.0081  0.0772
 7274W        W22405  12.435   9.591  15.843  0.1483  0.1036  0.1154
 7275W        W22406   7.960  10.716  12.093 -0.2810 -0.2786  0.1140
 7276W        W22407  15.282   9.924  12.421 -0.1428 -0.0532 -0.0358
 7277W        W22408   9.087  10.492   5.899  0.0455 -0.0983 -0.3348
 7278W        W22409  16.268  12.477   1.387 -0.4024  0.5347 -0.0615
 7279W        W22410  17.727   7.419  12.908 -0.0757  0.2220 -0.1472
 7280W        W22411   0.647  16.804   4.753 -0.0291 -0.1457  0.3248
 7281W        W22412   7.294  14.855  15.469  0.0354 -0.0670 -0.0840
 7282W        W22413   2.812   0.314   2.142 -0.0922  0.0779 -0.5829
 7283W        W22414  12.402  13.554  12.419 -0.0237 -0.0570  0.0191
 7284W        W22415   7.842  10.578   5.230 -0.1434 -0.2285  0.0698
 7285W        W22416   4.243   5.977  15.947  0.0239 -0.2237  0.1595
 7286W        W22417  15.981  17.792  14.327 -0.0902 -0.0049  0.2024
 7287W        W22418   4.430   1.957   2.939 -0.1187  0.1192 -0.0888
 7288W        W22419   2.112  17.209   3.563  0.0051 -0.0597  0.0327
 7289W        W22420   3.020  16.392   4.590  0.0335 -0.0203 -0.1262
 7290W        W22421   2.295   5.739   2.589 -0.1551  0.2101  0.0523
 7291W        W22422   6.174   9.128   0.794 -0.2917 -0.2451  0.2113
 7292W        W22423  13.245  13.003   0.660  0.1674  0.0796  0.3244
 7293W        W22424   0.782   6.157   4.079 -0.1265  0.0946 -0.2236
 7294W        W22425  17.275   5.503   2.650 -0.0308  0.0190  0.2930
 7295W        W22426  11.408   3.826  13.711  0.0014  0.0944  0.1494
 7296W        W22427  11.940  11.965   4.585 -0.2604 -0.1323 -0.1253
 7297W        W22428  12.064   1.839  12.518 -0.3208  0.0804 -0.1022
 7298W        W22429   2.262   4.509  14.689  0.3548  0.2599 -0.0909
 7299W        W22430  11.699  11.962  12.935 -0.0703 -0.4508  0.3412
 7300W        W22431  14.070   2.737   4.054  0.0874  0.0440 -0.1021
 7301W        W22432   6.744   5.616  16.086 -0.0406  0.2521 -0.1601
 7302W        W22433   3.463   3.259   2.291  0.0871 -0.3168 -0.3857
 7303W        W22434   6.144  15.693   1.110  0.2317  0.2009 -0.1234
 7304W        W22435   0.702  10.199  11.182  0.2774  0.2114  0.2444
 7305W        W22436  13.297   5.745  15.754  0.1571 -0.3485  0.1207
 7306W        W22437   8.602  14.983   4.011 -0.1790  0.3513  0.2179
 7307W        W22438  12.213   8.668   2.689  0.0543 -0.3045  0.0281
 7308W        W22439  16.652   7.867  14.583 -0.1061 -0.2647  0.1830
 7309W        W22440  13.058  16.350  12.175 -0.0415  0.0593  0.0663
 7310W        W22441   1.306  17.173  11.688 -0.1193 -0.0559  0.1918
 7311W        W22442   1.332  12.381   2.186 -0.0076 -0.1537  0.0293
 7312W        W22443   1.259   6.669   5.101  0.3693  0.0937 -0.1267
 7313W        W22444  17.927  10.171  13.618  0.1998  0.3034 -0.2528
 7314W        W22445   2.202   0.409  16.011  0.1884  0.0489 -0.0859
 7315W        W22446   4.630  15.083  14.782 -0.1262 -0.3766  0.2167
 7316W        W22447   8.182   3.568  13.038 -0.2314  0.1156  0.2250
 7317W        W22448   2.168   2.238   0.070 -0.0027 -0.0005  0.0743
 7318W        W22449   8.964  17.325   1.367  0.1401  0.2326  0.2248
 7319W        W22450  17.396   8.920   5.151 -0.1385 -0.0774  0.0073
 7320W        W22451  15.998  16.448  14.592  0.0181  0.0536 -0.2076
 7321W        W22452  12.610  15.974   2.979  0.2721  0.4684 -0.0420
 7322W        W22453  16.091  14.714   4.118  0.1079 -0.2325 -0.1997
 7323W        W22454   9.560   1.456   3.031  0.0299  0.4556 -0.0207
 7324W        W22455   3.492  13.013   4.036  0.1183  0.1062  0.1248
 7325W        W22456  13.239  14.874   3.994 -0.1629 -0.3339  0.1722
 7326W        W22457   2.921  14.565   3.673  0.0021 -0.2402 -0.4612
 7327W        W22458   2.694   4.575   3.986  0.3187  0.1340 -0.1848
 7328W        W22459  14.331   0.114   5.319  0.1007 -0.1834 -0.1567
 7329W        W22460  13.330  14.725  16.386  0.0028 -0.0650 -0.0115
 7330W        W22461   9.815   8.689   5.008  0.1782  0.0510 -0.3578
 7331W        W22462   6.194  17.942  14.377  0.0957 -0.2177  0.3231
 7332W        W22463   5.539  14.660  11.284  0.1960  0.1741  0.1546
 7333W        W22464  12.707   1.652   2.000 -0.0351  0.0966 -0.1324
 7334W        W22465   2.388  14.366   2.283 -0.0637  0.1303 -0.1625
 7335W        W22466   9.751   5.450  15.705  0.3255  0.0477  0.0809
 7336W        W22467   3.768   9.200   4.875 -0.0499 -0.1132  0.0739
 7337W        W22468  10.806  14.656  11.072  0.2744  0.0027 -0.2112
 7338W        W22469   7.836  16.066   5.780 -0.1360 -0.2964 -0.0864
 7339W        W22470  14.549  15.325  12.256  0.1140 -0.2089 -0.0168
 7340W        W22471  17.393  12.816   4.720 -0.0321  0.2410 -0.1909
 7341W        W22472   0.556   8.070  15.917 -0.3266 -0.1355 -0.0846
 7342W        W22473   8.386  13.288   3.622  0.1491  0.1693  0.2176
 7343W        W22474  16.494   5.378   1.008 -0.0432 -0.0240 -0.0568
 7344W        W22475  12.954  11.442  11.689  0.2251 -0.0665 -0.0226
 7345W        W22476   8.347   1.859   4.956 -0.1301  0.1075 -0.1484
 7346W        W22477   6.854   5.714   5.330 -0.2647  0.1365 -0.0200
 7347W        W22478   0.923  12.759   0.333 -0.3591 -0.0766 -0.1077
 7348W        W22479  14.421  13.039   2.675 -0.2854 -0.3569  0.0611
 7349W        W22480   0.665  15.500   3.404 -0.0085 -0.3430 -0.1050
 7350W        W22481   0.537  12.043  15.175  0.2130  0.1692  0.0401
 7351W        W22482  14.206   7.858  16.124  0.1045  0.0386 -0.1063
 7352W        W22483   2.331   1.130   2.280  0.3066  0.0627 -0.0943
 7353W        W22484  10.675  12.001   5.043  0.1561 -0.1520  0.0502
 7354W        W22485   4.804  16.981   3.701  0.0014 -0.0996 -0.2213
 7355W        W22486  14.027   2.678   5.247 -0.0642 -0.1541  0.2071
 7356W        W22487  13.844  16.640   1.268  0.3065 -0.0929  0.2337
 7357W        W22488   0.356  13.961  13.317  0.1656 -0.2194 -0.2838
 7358W        W22489  11.367  14.042   3.235  0.1438  0.1062  0.0350
 7359W        W22490  12.820   4.621  13.801  0.1399  0.1598 -0.1160
 7360W        W22491  13.644  17.555  12.995 -0.1200  0.0597 -0.1254
 7361W        W22492   5.722  16.883  12.333 -0.1088 -0.0396 -0.2655
 7362W        W22493   6.961  16.831   3.020 -0.1562  0.0009 -0.2745
 7363W        W22494   0.647   0.904   1.129 -0.0781  0.0465  0.0371
 7364W        W22495   9.273  18.046   3.432 -0.0386 -0.0051 -0.1805
 7365W        W22496  15.957  12.263  11.208  0.2759 -0.3357  0.0126
 7366W        W22497  13.009   1.124   2.626 -0.1297  0.0020  0.0570
 7367W        W22498  13.095   2.229  14.938 -0.3205 -0.0032 -0.1811
 7368W        W22499   0.696   3.448  14.411 -0.0474 -0.1287 -0.0847
 7369W        W22500   2.832   0.567   0.730  0.1289 -0.1044  0.2710
 7370W        W22501   4.955  14.202  10.189 -0.2817  0.1864 -0.1016
 7371W        W22502   8.093   0.725   4.436  0.0878 -0.1296 -0.0908
 7372W        W22503  10.230   3.043   3.487  0.0882  0.0732 -0.1800
 7373W        W22504   7.111   6.774   1.131  0.0199 -0.2552  0.3764
 7374W        W22505  13.652  11.791   2.560 -0.2088  0.1899 -0.1202
 7375W        W22506  16.753  14.137  11.063  0.0913 -0.3595  0.0301
 7376W        W22507  14.938  18.098   1.388 -0.1314  0.0857 -0.0364
 7377W        W22508   7.864   9.159  11.311 -0.2106  0.1697  0.3654
 7378W        W22509   4.501   1.076   0.009 -0.3510 -0.0399  0.0220
 7379W        W22510  15.966  17.368  10.515  0.1802 -0.2057  0.0543
 7380W        W22511   1.895  13.064  12.337  0.1418  0.2147 -0.3427
 7381W        W22512   3.966   9.786  16.386  0.0562 -0.2309 -0.3560
 7382W        W22513  12.637   9.514   3.105 -0.1622  0.1400 -0.0749
 7383W        W22514   8.063  15.541  12.711 -0.0055 -0.2921  0.3623
 7384W        W22515  10.036   2.374   2.115 -0.0139 -0.0079 -0.0925
 7385W        W22516  11.805   5.916  12.802  0.1586 -0.3412 -0.0422
 7386W        W22517   7.997  10.901  12.655  0.0831 -0.0343 -0.1073
 7387W        W22518   3.323  11.240  15.306 -0.1839 -0.0330  0.0963
 7388W        W22519  16.168  10.508   1.082 -0.2887  0.0404 -0.0848
 7389W        W22520   1.725   8.444   5.133 -0.1514  0.3732 -0.3137
 7390W        W22521   9.231  17.787   5.305  0.1448 -0.0230 -0.0091
 7391W        W22522   2.407  14.313   1.597 -0.0491 -0.0638  0.1152
 7392W        W22523  11.075  17.284  14.806 -0.0466 -0.4423 -0.0443
 7393W        W22524   8.231   0.712   3.465 -0.2011 -0.2446 -0.0514
 7394W        W22525   4.847   1.090   1.291 -0.0473  0.0940 -0.0561
 7395W        W22526  13.284   1.233  13.222 -0.1037 -0.0925 -0.0099
 7396W        W22527   7.235  14.865   1.672 -0.0421  0.1679 -0.0323
 7397W        W22528  14.233  10.966  12.680  0.0185 -0.1531 -0.0446
 7398W        W22529   4.397  16.779  14.022  0.1553  0.0384  0.0556
 7399W        W22530   9.331   9.550   2.256 -0.2659 -0.0556 -0.1571
 7400W        W22531   6.148   9.528  12.662  0.4066  0.0650 -0.0692
 7401W        W22532  13.948  16.347  12.523  0.0686  0.1027 -0.1849
 7402W        W22533   3.785  11.601   5.016  0.0566 -0.0760 -0.0042
 7403W        W22534  15.699  16.697   4.175  0.0251 -0.1399 -0.0487
 7404W        W22535  13.166   3.403  11.725 -0.0687  0.2580  0.0611
 7405W        W22536  17.626  13.300   1.785  0.3193  0.0043 -0.1246
 7406W        W22537   6.512   2.341  10.578 -0.1832 -0.0719 -0.0594
 7407W        W22538   0.225   7.193   0.995 -0.0803 -0.3450  0.1325
 7408W        W22539  13.209   7.633  14.478 -0.1496  0.1854 -0.1009
 7409W        W22540  15.730   6.853   0.942  0.0276  0.2353 -0.2827
 7410W        W22541   1.509  15.452   1.749 -0.0210 -0.0965  0.3124
 7411W        W22542   9.295  10.979  13.357  0.1752  0.0314  0.2859
 7412W        W22543   8.668  12.994   5.951  0.0078  0.1644  0.1496
 7413W        W22544  15.227   2.102   4.648  0.0439  0.0298 -0.0890
 7414W        W22545  12.125   8.490  16.225 -0.2873 -0.1631 -0.1109
 7415W        W22546   8.697  16.899   5.798  0.0648  0.1859  0.0151
 7416W        W22547   9.343  16.680  15.160  0.1586 -0.1207  0.2565
 7417W        W22548  12.212  14.240   3.224  0.3751  0.0822  0.0093
 7418W        W22549  16.369  14.184  14.199 -0.0105 -0.2491  0.2364
 7419W        W22550  13.152   5.902   1.859 -0.3638 -0.0590 -0.1100
 7420W        W22551  11.185  16.273  11.689  0.0587 -0.1051  0.1951
 7421W        W22552  11.560  13.695  13.402 -0.0232 -0.1888 -0.3769
 7422W        W22553   2.870  10.356   4.374 -0.2431 -0.0337 -0.0702
 7423W        W22554  13.285   8.047   1.424  0.0962  0.0370 -0.2099
 7424W        W22555  11.209  10.990  10.869  0.1911 -0.1019  0.0670
 7425W        W22556   4.878  12.034   1.630  0.1340  0.1407  0.1502
 7426W        W22557   4.836   9.457  15.890  0.1793  0.0758 -0.0516
 7427W        W22558  15.751  14.754   5.180  0.0840 -0.4122 -0.2469
 7428W        W22559   5.033   4.691   4.968  0.0339 -0.0932 -0.0204
 7429W        W22560  15.299  16.773   2.187 -0.0714 -0.0869  0.0159
 7430W        W22561   0.351   0.057  15.869  0.1904 -0.1493 -0.0610
 7431W        W22562  13.045   4.822   3.914  0.2067 -0.0056  0.0417
 7432W        W22563  10.069   8.751   4.170 -0.3857  0.3901  0.2865
 7433W        W22564   6.029   1.428   1.716  0.0366  0.2463  0.0400
 7434W        W22565   6.769   3.174  14.202 -0.0389  0.0681 -0.0443
 7435W        W22566  11.617  12.491  15.519  0.0874  0.0712  0.0369
 7436W        W22567  15.940   2.319   1.890 -0.1356 -0.1260 -0.3240
 7437W        W22568   4.081  14.910   0.354 -0.3049  0.1897  0.1385
 7438W        W22569   3.598  15.817  14.642 -0.2892  0.0863 -0.0517
 7439W        W22570  16.642   3.247  12.241 -0.1016  0.1851 -0.2882
 7440W        W22571  17.774  16.103  13.673 -0.0722  0.0097  0.0586
 7441W        W22572  15.671  17.253  13.484 -0.0212 -0.0462 -0.1411
 7442W        W22573  11.242  14.295  14.987 -0.1448 -0.0947  0.0467
 7443W        W22574  15.818   3.307   2.252 -0.1510 -0.0833  0.1538
 7444W        W22575   9.114  12.581  11.802 -0.1624 -0.1930 -0.1189
 7445W        W22576   0.301  10.185   4.086  0.0888  0.1522  0.1765
 7446W        W22577   1.166   1.125  13.341  0.0381  0.0132 -0.1625
 7447W        W22578   7.919   1.303   5.768  0.3180 -0.2910  0.1383
 7448W        W22579   1.963   7.341   4.628  0.1484 -0.2962  0.1207
 7449W        W22580   0.012  12.153   1.728  0.1688 -0.1466  0.1881
 7450W        W22581   1.739   8.307   3.388 -0.2814  0.0844 -0.0044
 7451W        W22582  13.007  12.729  14.774  0.1315  0.3134  0.0330
 7452W        W22583   0.568   8.087   2.871  0.0216  0.0130  0.0549
 7453W        W22584   9.259   5.981  14.513 -0.2478 -0.1034 -0.0578
 7454W        W22585  12.695   5.251  12.186 -0.0496 -0.0775  0.1185
 7455W        W22586   3.172  17.674  13.777  0.1242 -0.4075  0.3135
 7456W        W22587  12.808   0.125   3.344  0.1607  0.0723 -0.0261
 7457W        W22588  17.856   8.372  15.001  0.1305  0.0410 -0.1516
 7458W        W22589  15.949  10.124  11.112  0.2405 -0.0879  0.0694
 7459W        W22590  14.602  16.446   4.800  0.2594  0.0737 -0.1022
 7460W        W22591  13.806   0.117  10.239 -0.0408  0.2711  0.1511
 7461W        W22592  17.689  12.016   4.408  0.1335  0.0983  0.1677
 7462W        W22593   2.001   7.659   4.970  0.3806 -0.1589 -0.1573
 7463W        W22594  12.926   2.537   5.074 -0.4092  0.1092 -0.0619
 7464W        W22595   2.164  16.183  15.950 -0.1512  0.0385  0.1827
 7465W        W22596  15.673  14.601   4.467 -0.1842 -0.1163 -0.0663
 7466W        W22597  10.666   6.199  11.450  0.4224  0.0647 -0.0546
 7467W        W22598  17.957  16.631   5.320  0.1991 -0.0820 -0.5951
 7468W        W22599   0.681  12.964   3.323 -0.1213  0.5056 -0.1796
 7469W        W22600  13.782   5.676   3.228  0.2221  0.1429  0.0402
 7470W        W22601   3.798   9.379   2.698 -0.1179  0.0085  0.1458
 7471W        W22602  14.366   1.516   1.379 -0.1728 -0.1717 -0.1495
 7472W        W22603  17.836   8.652   3.419  0.2157  0.2668  0.2081
 7473W        W22604   0.404  12.207  16.164  0.1081 -0.0779 -0.2284
 7474W        W22605  15.093  12.382  14.592  0.1910 -0.1043 -0.4947
 7475W        W22606   3.718  13.936   3.387 -0.1600 -0.0678 -0.0995
 7476W        W22607  16.317  16.416  12.643 -0.1161 -0.2495 -0.1938
 7477W        W22608   3.729  16.869  15.166  0.2509 -0.4329  0.1010
 7478W        W22609   6.644  11.173   0.024  0.2620 -0.3046  0.0259
 7479W        W22610   3.856  17.151   5.863  0.0274 -0.3954  0.0195
 7480W        W22611   3.862  13.583   5.449  0.0184 -0.0361  0.1510
 7481W        W22612  17.087   7.378   3.263  0.0747  0.2162 -0.0751
 7482W        W22613  10.427   1.371  11.167 -0.0890 -0.3507 -0.0052
 7483W        W22614  14.654  17.210  13.868 -0.2265 -0.0208 -0.2451
 7484W        W22615   1.634   2.262  12.222  0.0391 -0.4323  0.0515
 7485W        W22616   9.416   4.846  11.832 -0.1735  0.1720 -0.1070
 7486W        W22617  13.802  16.085   0.909 -0.0037 -0.0074  0.1028
 7487W        W22618  17.300   8.424  16.280  0.0226 -0.1125 -0.1250
 7488W        W22619   7.582   7.586  11.786  0.1567  0.1524 -0.0881
 7489W        W22620  10.907  15.649   1.045 -0.1465 -0.2314 -0.0452
 7490W        W22621  13.604  15.188  15.573 -0.1606  0.0569 -0.2649
 7491W        W22622  10.646  12.318   3.223  0.0613 -0.1291  0.1427
 7492W        W22623   7.737  13.359  12.213 -0.0689 -0.1564 -0.2312
 7493W        W22624   1.697  13.389  11.399  0.1283  0.1894 -0.3920
 7494W        W22625  13.121  17.635   2.000  0.0590  0.0857  0.0455
 7495W        W22626   0.937  10.402   3.347 -0.0225 -0.0262  0.3243
 7496W        W22627   0.470  17.574   5.442 -0.1296  0.1347 -0.0943
 7497W        W22628   7.461  11.769  13.482 -0.1452 -0.1877  0.0144
 7498W        W22629   8.624   9.667   3.864  0.2219 -0.0557  0.2354
 7499W        W22630  12.158   7.977   2.220  0.0670 -0.5208 -0.0876
 7500W        W22631  14.058  16.713  12.199  0.0011  0.1010 -0.0347
 7501W        W22632  11.526   4.439  14.264  0.1186  0.0187  0.1401
 7502W        W22633  14.181   8.732  16.043 -0.1526 -0.0534 -0.1862
 7503W        W22634  14.423  16.141   1.371 -0.0322 -0.1662 -0.1256
 7504W        W22635   3.741   7.148  16.050 -0.0154 -0.1675 -0.1972
 7505W        W22636   7.088   5.407   3.745 -0.1372  0.2526  0.1631
 7506W        W22637  12.936   6.687  11.938  0.2954  0.2262 -0.1015
 7507W        W22638   0.604   3.980   4.350 -0.2512  0.2133 -0.1020
 7508W        W22639  10.277   4.876  15.825  0.2595 -0.2341 -0.2677
 7509W        W22640  12.074  12.922   4.730  0.0338  0.1147 -0.1165
 7510W        W22641  13.783   1.114  12.492  0.0160 -0.1074  0.4340
 7511W        W22642   5.719   0.576   6.003  0.1289 -0.1862 -0.1635
 7512W        W22643   6.053  17.340   4.469 -0.3101 -0.0641 -0.1356
 7513W        W22644  16.452  12.074  12.352 -0.4115 -0.0755 -0.1651
 7514W        W22645   6.964   1.327  12.060  0.3829  0.1219  0.1854
 7515W        W22646   1.917  16.368   4.619  0.2563 -0.1349  0.3233
 7516W        W22647   8.616  17.873  13.348 -0.0441  0.0613  0.3690
 7517W        W22648   8.043  10.698   2.902  0.1335 -0.3205 -0.1754
 7518W        W22649   5.261   1.922   5.130  0.0772  0.3052 -0.0597
 7519W        W22650   5.354  15.290  10.148 -0.2214 -0.1650  0.1196
 7520W        W22651   9.497   6.447  14.948  0.1189  0.0634 -0.0320
 7521W        W22652  13.151  10.195  11.560  0.3077  0.1838  0.2532
 7522W        W22653   9.450   3.952  11.767 -0.1758 -0.0089 -0.0076
 7523W        W22654   2.382  13.113  10.960  0.2847 -0.0242 -0.0346
 7524W        W22655  11.449  12.530  14.717  0.1190  0.0469 -0.0411
 7525W        W22656  14.954   6.207   3.921 -0.1642 -0.2852 -0.1705
 7526W        W22657  11.012  12.891   5.680  0.2072  0.1446  0.0295
 7527W        W22658   3.396  18.039   3.909  0.1135  0.0163 -0.1884
 7528W        W22659  16.767   4.737  13.009  0.0485  0.3117 -0.2100
 7529W        W22660   8.842   7.973  11.448  0.1945 -0.1933 -0.2466
 7530W        W22661   5.139   2.971   2.598  0.2470  0.1885  0.0532
 7531W        W22662   9.166   2.467  14.993 -0.1994  0.0498  0.0926
 7532W        W22663  12.585  13.617  13.250  0.2677 -0.4729  0.1708
 7533W        W22664  11.304  16.714  11.553  0.0558 -0.0263 -0.0890
 7534W        W22665  13.195  16.817  12.367 -0.0910 -0.1499  0.0030
 7535W        W22666   0.638   5.192   1.352  0.2210  0.2067 -0.1155
 7536W        W22667  11.523   8.999  14.048 -0.1986 -0.1354  0.0211
 7537W        W22668   7.995   0.624  12.317 -0.2970 -0.1001  0.1820
 7538W        W22669   0.777   8.279   4.316 -0.2180 -0.0533  0.0813
 7539W        W22670   4.068  12.654   1.943  0.2200 -0.2459 -0.0904
 7540W        W22671   8.245  13.513  15.520 -0.1647  0.3987 -0.0193
 7541W        W22672   6.606   4.418  16.153 -0.1411 -0.1408 -0.0175
 7542W        W22673   4.501   9.977  15.103 -0.3490 -0.2035 -0.3560
 7543W        W22674   6.961  15.650   5.359 -0.2231  0.0277 -0.1253
 7544W        W22675   4.944   8.357   0.300 -0.1467  0.0600 -0.2203
 7545W        W22676  10.628  17.510   0.893  0.3032 -0.1588  0.2934
 7546W        W22677   3.157   8.612   5.774 -0.1287 -0.1485 -0.1062
 7547W        W22678  10.113  11.005   4.726 -0.0549 -0.1207 -0.3488
 7548W        W22679  14.473  12.029  14.429 -0.1571 -0.3341  0.0392
 7549W        W22680  12.346  16.332  15.269  0.2058  0.1207 -0.0145
 7550W        W22681   0.874   6.358   5.456 -0.0422 -0.0571 -0.1988
 7551W        W22682   4.012   0.254   3.609  0.0280 -0.1414  0.0568
 7552W        W22683   2.438  11.936   2.826 -0.1251 -0.1104 -0.2620
 7553W        W22684   3.831   6.329  11.837 -0.2726  0.1215  0.1509
 7554W        W22685   6.675  14.122  12.988  0.4414 -0.0332 -0.1785
 7555W        W22686   7.550  11.480   2.455 -0.1303  0.1444  0.0332
 7556W        W22687   8.338   5.087  13.239 -0.4381 -0.1793  0.1493
 7557W        W22688  12.748   6.809   2.386  0.2383  0.1366 -0.3160
 7558W        W22689   2.428  17.107   4.905 -0.0060 -0.0221 -0.1996
 7559W        W22690   4.637  17.605   4.588 -0.0776  0.0979 -0.0824
 7560W        W22691   8.656   3.262   2.127 -0.2345 -0.2152 -0.0397
 7561W        W22692  10.471  11.674   4.681 -0.0018 -0.1560  0.0120
 7562W        W22693  13.580   4.246   3.949 -0.0366 -0.2942 -0.2284
 7563W        W22694  16.805  17.537  14.411 -0.1613 -0.1257 -0.1148
 7564W        W22695  13.362  12.573  13.545  0.3721  0.2818 -0.1901
 7565W        W22696  17.010   3.179  13.571 -0.0684  0.0138 -0.3871
 7566W        W22697   1.130  16.103  15.467 -0.1281 -0.0804 -0.0990
 7567W        W22698   0.297   0.947  15.574  0.0186  0.2186  0.0042
 7568W        W22699   3.009   6.492  13.770  0.2931 -0.1276  0.1831
 7569W        W22700  12.486   6.014   4.666  0.1273 -0.2306  0.2174
 7570W        W22701  10.427  12.836   4.447 -0.1776  0.0262 -0.1147
 7571W        W22702  10.880   1.578   2.694  0.0177 -0.0428  0.3082
 7572W        W22703   4.940   8.327  11.563  0.1153  0.1871 -0.0158
 7573W        W22704   2.975  14.483   1.543  0.5272  0.1197  0.1000
 7574W        W22705  13.002  13.918   4.520 -0.1024 -0.1258 -0.1725
 7575W        W22706  13.411  14.457  15.461  0.0522 -0.0327 -0.0797
 7576W        W22707   7.984   0.663   2.032  0.0692  0.0571 -0.1349
 7577W        W22708  13.010  14.576  12.404  0.2403 -0.2090 -0.0445
 7578W        W22709   4.758   3.435  13.509  0.1188  0.0592 -0.2550
 7579W        W22710  17.745  15.818   4.692  0.0919  0.3200  0.2266
 7580W        W22711  14.763   4.285   0.923 -0.1075 -0.1364  0.0294
 7581W        W22712   0.703   4.360   2.654 -0.2441 -0.2226 -0.1629
 7582W        W22713  13.807   2.384  16.456  0.2847  0.1929  0.0582
 7583W        W22714  15.618  16.214   1.070 -0.3220  0.1653  0.0140
 7584W        W22715  15.750   5.590  14.502 -0.2443 -0.2136  0.0337
 7585W        W22716  11.210  14.046   4.913  0.3078 -0.0059 -0.0636
 7586W        W22717  15.320  12.808  10.213  0.1820  0.1020 -0.0917
 7587W        W22718   3.238  10.625  13.358 -0.0276 -0.2590 -0.2631
 7588W        W22719   0.039   6.392   3.474 -0.2477  0.1090  0.1430
 7589W        W22720   9.495  10.726   4.344  0.1717  0.2722  0.0478
 7590W        W22721  17.773   4.518   5.279 -0.1766  0.0649 -0.0740
 7591W        W22722   9.922   6.872  13.809 -0.0924  0.2661  0.2513
 7592W        W22723   1.274   5.060   5.326 -0.1452  0.1271  0.1702
 7593W        W22724   1.958   3.760   0.910 -0.2165  0.0129  0.1149
 7594W        W22725   4.650  13.390   1.699 -0.0763 -0.1228 -0.2754
 7595W        W22726  11.481   7.287  10.823 -0.1437 -0.0859 -0.1261
 7596W        W22727  17.272  11.930  14.234 -0.1388  0.3894 -0.1399
 7597W        W22728  15.869  15.224   5.105  0.1007  0.0129  0.0763
 7598W        W22729  17.292   1.194  10.418 -0.0656 -0.1343 -0.0285
 7599W        W22730   4.169   3.651  11.495 -0.0642 -0.0349  0.1518
 7600W        W22731   3.009  12.598   0.420  0.1755 -0.0284  0.0323
 7601W        W22732   3.090   6.298  15.367  0.2728 -0.0578 -0.0094
 7602W        W22733   8.885  17.173   1.898 -0.0204 -0.0354  0.0432
 7603W        W22734   8.195  16.960  14.590  0.2710  0.0421  0.0890
 7604W        W22735   2.552  15.119   4.505 -0.0992 -0.0167 -0.0999
 7605W        W22736  17.394   1.276   4.757  0.0154  0.1991 -0.0213
 7606W        W22737  13.344   8.648  14.418 -0.1850 -0.1247 -0.1376
 7607W        W22738  17.964  11.856   2.794 -0.1273 -0.0971 -0.0502
 7608W        W22739  14.511   7.562  14.665 -0.2609 -0.0914 -0.0627
 7609W        W22740   8.679   6.515  10.933  0.3246  0.0880  0.0562
 7610W        W22741   1.932   7.976  15.002 -0.0029  0.1478 -0.0603
 7611W        W22742   8.685  13.564   1.362 -0.1443 -0.0367  0.1212
 7612W        W22743   7.907  12.746   6.248  0.2162 -0.1259  0.0776
 7613W        W22744   9.394   3.675  11.152  0.2611 -0.0692 -0.0603
 7614W        W22745   4.909  14.493  16.108 -0.6099 -0.0498  0.2443
 7615W        W22746   0.785  14.958  13.292 -0.0307 -0.2462  0.0611
 7616W        W22747   9.313   8.289   4.483  0.1152 -0.1432 -0.1200
 7617W        W22748   0.962  10.414  14.652 -0.1102  0.0489 -0.0045
 7618W        W22749   8.624   1.032  10.638 -0.1361 -0.1911 -0.1950
 7619W        W22750   1.090   6.474  15.408 -0.0411  0.2869 -0.1984
 7620W        W22751   5.084   1.639  10.374  0.0730 -0.0227 -0.0668
 7621W        W22752  16.910  13.576   6.588  0.1729  0.0620  0.0298
 7622W        W22753  17.956  12.589   2.310 -0.1317 -0.1594 -0.3366
 7623W        W22754   4.060   6.637   3.789  0.1876 -0.1101 -0.1161
 7624W        W22755   1.974  14.265  13.937 -0.0759 -0.0069 -0.0455
 7625W        W22756  10.544   2.671   3.676 -0.2733  0.0285 -0.0297
 7626W        W22757   8.266   8.372  15.754  0.1375  0.2196  0.1069
 7627W        W22758  16.193   5.091  13.271 -0.0868 -0.1691 -0.2140
 7628W        W22759  10.567   3.862  16.023  0.1000 -0.1038  0.1187
 7629W        W22760   1.112  11.395  14.714  0.4343  0.0197 -0.0441
 7630W        W22761   3.257   4.170  11.222 -0.1491  0.1318  0.2407
 7631W        W22762   5.892  13.467  12.323 -0.1995 -0.3607 -0.0592
 7632W        W22763   2.108   0.544   4.288 -0.2095  0.1232  0.0679
 7633W        W22764   4.834  17.327  12.881  0.1074 -0.2645  0.3393
 7634W        W22765   7.383  17.744  15.184  0.0125 -0.0475  0.0141
 7635W        W22766  11.110  10.551   2.062  0.0884  0.0742 -0.0425
 7636W        W22767  15.419   5.474  12.516 -0.3654  0.2231  0.1737
 7637W        W22768   8.951   2.109   1.314 -0.0871  0.1715 -0.3121
 7638W        W22769   1.107   9.018  14.886  0.2369 -0.0297  0.1183
 7639W        W22770  17.838   0.256   2.615 -0.1689  0.1287 -0.1865
 7640W        W22771   0.148  13.278  14.859 -0.0245  0.0392 -0.2957
 7641W        W22772   5.127  13.442   3.150  0.0147 -0.2616 -0.0329
 7642W        W22773  12.723  16.120   4.323  0.1901 -0.2364 -0.1795
 7643W        W22774  14.011   0.412  11.399  0.0649 -0.1723  0.2319
 7644W        W22775   9.751   8.395  13.924 -0.0277 -0.1002  0.2643
 7645W        W22776  16.269   1.094   4.718  0.1469  0.0415  0.0151
 7646W        W22777   9.698  16.289  12.834 -0.0739 -0.0737 -0.3867
 7647W        W22778  17.929   7.077   6.275 -0.0976 -0.0218 -0.2027
 7648W        W22779  16.055   1.890  13.717 -0.0464  0.1073  0.0298
 7649W        W22780   9.167   1.208   2.463 -0.0669 -0.1191  0.1079
 7650W        W22781  14.789  15.447  13.056  0.1749 -0.2262 -0.0388
 7651W        W22782  13.252  14.439  13.273  0.0605 -0.0885  0.1462
 7652W        W22783  12.988  12.658   3.914  0.0081 -0.0111  0.1677
 7653W        W22784  17.029  12.549   3.450  0.0136  0.2935  0.2653
 7654W        W22785  12.421   1.710  12.920  0.1094  0.0843  0.3089
 7655W        W22786  12.848   9.808   1.615  0.3306 -0.0465  0.0414
 7656W        W22787  16.017   9.932   0.866  0.0259 -0.3045 -0.2326
 7657W        W22788   7.520   5.067  12.726 -0.0192  0.2054 -0.0182
 7658W        W22789  10.462   9.369   4.883  0.0665 -0.1072 -0.0747
 7659W        W22790  11.637  12.910  12.099 -0.1411  0.1518  0.2533
 7660W        W22791   8.802  15.280  15.104  0.3121  0.2403  0.1182
 7661W        W22792   4.441   5.615  15.595  0.2073 -0.1078 -0.0120
 7662W        W22793   7.009   9.945   0.030  0.1370 -0.3227 -0.0326
 7663W        W22794  11.160  12.029  14.686 -0.2077  0.2351 -0.0281
 7664W        W22795  12.888   9.768  13.281 -0.0719 -0.2095  0.0656
 7665W        W22796   7.484  11.703  11.297 -0.2999  0.1562  0.0992
 7666W        W22797   5.818  10.604  15.665 -0.1992  0.3233  0.0440
 7667W        W22798   9.298  12.760  10.358  0.1071 -0.0703 -0.0201
 7668W        W22799  17.789  14.234   0.721  0.1894  0.1883 -0.0228
 7669W        W22800  17.415   1.345  13.257  0.0664 -0.3251  0.1383
 7670W        W22801  12.687   8.643   0.938  0.0887  0.4336  0.0153
 7671W        W22802   4.247   4.779   4.535  0.1294 -0.2155 -0.2299
 7672W        W22803   5.906  17.643   5.177 -0.4219 -0.0329 -0.1084
 7673W        W22804  13.479   2.752  14.602  0.0548 -0.3918  0.0657
 7674W        W22805   6.093  17.356  16.124  0.2002 -0.1446 -0.1302
 7675W        W22806   8.373   2.566  13.689 -0.3661  0.0440  0.1898
 7676W        W22807   8.033  10.143   2.792  0.3330 -0.2128  0.2069
 7677W        W22808   8.941   2.988  14.197 -0.2093 -0.2796  0.1273
 7678W        W22809   8.829  11.660  14.620  0.2044  0.1642 -0.0625
 7679W        W22810   3.501   8.199  13.989 -0.1487  0.0790 -0.3133
 7680W        W22811   5.316  16.457   4.058  0.5467  0.0243  0.1303
 7681W        W22812  11.249   1.583  16.284  0.0247  0.0947  0.1824
 7682W        W22813   2.508   6.059   4.766 -0.0762 -0.2027  0.0171
 7683W        W22814   4.892   0.847   3.860 -0.2487 -0.0623  0.2082
 7684W        W22815   8.693   1.480   2.607  0.0156  0.0762 -0.2036
 7685W        W22816   8.980  16.422  16.171  0.1488  0.0506 -0.0950
 7686W        W22817  15.209  17.524  16.083 -0.2265 -0.0136 -0.0878
 7687W        W22818   1.461   8.830  14.281  0.0162  0.1592  0.2593
 7688W        W22819  10.459   8.612  10.809  0.1352 -0.2296 -0.0775
 7689W        W22820  15.361   3.460  15.487  0.1944  0.1875 -0.1969
 7690W        W22821   0.108   5.624   5.435  0.1885  0.1147  0.0239
 7691W        W22822   6.604   5.692   3.911 -0.0305 -0.2237  0.1255
 7692W        W22823   7.485   6.943  14.426 -0.2363 -0.0347 -0.0706
 7693W        W22824  10.181   6.715   3.509 -0.0277 -0.0918 -0.1281
 7694W        W22825   2.577  10.522  12.789 -0.1918 -0.1987  0.0609
 7695W        W22826   9.971  11.562   5.485  0.0682 -0.0534 -0.1545
 7696W        W22827   2.110  14.955  14.228 -0.1769 -0.0726 -0.2258
 7697W        W22828   6.488  10.850   2.262 -0.0525 -0.3222  0.1042
 7698W        W22829   8.759  10.843  12.584  0.0871  0.0962  0.1556
 7699W        W22830  17.276  10.897   2.108  0.0010 -0.2400 -0.0071
 7700W        W22831  15.349   3.159   2.723  0.0556  0.1372 -0.1004
 7701W        W22832   5.813  10.449   4.894  0.1527  0.0797  0.0219
 7702W        W22833   2.840   4.803  14.123 -0.1445  0.2860  0.1526
 7703W        W22834   8.004   2.920  13.840 -0.3165 -0.1414 -0.2342
 7704W        W22835   2.226  14.136  15.905  0.3140  0.0833  0.2724
 7705W        W22836   1.178   8.412   0.560 -0.4105 -0.1872  0.1159
 7706W        W22837  13.871  16.610  13.502 -0.2500 -0.3503  0.1057
 7707W        W22838  15.960  11.116  15.387  0.0335  0.0623  0.0369
 7708W        W22839  17.002   3.460  10.962  0.1336  0.0879 -0.1042
 7709W        W22840  11.127  10.593   1.090 -0.1541  0.4013  0.0234
 7710W        W22841  14.783   8.154  14.976 -0.0454  0.1471  0.2544
 7711W        W22842   1.383  13.996  12.396 -0.0292  0.0907  0.3218
 7712W        W22843   6.287  14.171   2.494  0.1959  0.0859  0.0256
 7713W        W22844   6.789   0.271  15.025  0.0191  0.0486 -0.1181
 7714W        W22845  18.009   6.207   0.399 -0.3562 -0.1174  0.0395
 7715W        W22846   4.051   7.102  15.181 -0.0478  0.5314 -0.1975
 7716W        W22847  12.987  11.559   1.746 -0.2494 -0.2741  0.1514
 7717W        W22848  16.515  16.976  13.486 -0.0424 -0.0414 -0.0952
 7718W        W22849   1.592  17.197   2.211  0.0172  0.1951 -0.0359
 7719W        W22850   4.119  11.897   3.813  0.1466 -0.1693  0.0411
 7720W        W22851  15.130   8.014   2.492 -0.0851 -0.0165  0.4522
 7721W        W22852   1.893   5.384   1.061  0.1790  0.1567  0.0223
 7722W        W22853  11.098  12.595  15.487  0.0733 -0.0578 -0.0299
 7723W        W22854   1.367  13.890  11.828 -0.2279  0.4950 -0.2279
 7724W        W22855   7.455   1.006   2.069 -0.3887  0.0729 -0.0702
 7725W        W22856   5.708  15.232  15.195 -0.3972  0.2133 -0.0716
 7726W        W22857  14.920   1.294  12.326  0.1147 -0.1063  0.0607
 7727W        W22858  15.875   9.957  14.353  0.0570  0.0795 -0.0175
 7728W        W22859  15.169   3.631  10.518  0.0520 -0.2497  0.2604
 7729W        W22860  17.175   0.738  12.085  0.2195  0.3195 -0.1716
 7730W        W22861   5.175   7.337  14.231  0.0422 -0.0174  0.0132
 7731W        W22862  16.363  12.123   4.204  0.1199  0.2925  0.0273
 7732W        W22863  11.700  15.512  15.215 -0.1064  0.0986 -0.1815
 7733W        W22864  15.228   9.651  13.145  0.1280 -0.2458  0.3799
 7734W        W22865  14.735  11.096  12.206 -0.1672 -0.2472  0.4618
 7735W        W22866   7.531  17.455  11.259  0.1178 -0.2862 -0.1526
 7736W        W22867   5.219   0.360   2.889 -0.0322  0.0385  0.3074
 7737W        W22868  11.486  11.938   3.651 -0.2442 -0.5979  0.0284
 7738W        W22869   5.155  13.260   4.635 -0.1254  0.1128 -0.0535
 7739W        W22870  11.715   4.981   3.350 -0.1555  0.0697 -0.0383
 7740W        W22871  14.633   1.527  12.706  0.1605  0.0033  0.1511
 7741W        W22872  13.241   9.680  12.798  0.5289 -0.0402  0.2327
 7742W        W22873   9.095   2.097  13.211 -0.1601 -0.0780  0.0691
 7743W        W22874  16.946   8.270  12.261  0.1890 -0.0476  0.2302
 7744W        W22875  14.348  11.348   1.879  0.0332  0.0152 -0.0176
 7745W        W22876  11.153   9.586   4.390 -0.1018  0.0451 -0.1358
 7746W        W22877  12.459   8.355   1.285  0.2266  0.0386 -0.1909
 7747W        W22878  12.248   8.597   0.566 -0.1563  0.0111  0.1329
 7748W        W22879  10.428   8.503   2.323 -0.0405 -0.0297  0.1945
 7749W        W22880   7.703  16.873  11.524  0.0527 -0.2730 -0.2768
 7750W        W22881   6.407   2.633  11.913  0.2666 -0.4650 -0.0006
 7751W        W22882   4.054  14.492  14.039 -0.0376 -0.3044 -0.0089
 7752W        W22883   3.774  12.464   5.316  0.2778  0.0184  0.0159
 7753W        W22884   1.161  14.463  14.824  0.0138 -0.1836 -0.0516
 7754W        W22885   2.772   0.352  14.816 -0.0602  0.0117  0.1790
 7755W        W22886   7.306  12.616   0.888 -0.0814  0.1762 -0.0252
 7756W        W22887  17.480  14.232   1.336  0.1206 -0.0615 -0.2419
 7757W        W22888   8.666   1.221   3.877 -0.1051 -0.1519  0.0960
 7758W        W22889   3.344   7.661   1.708  0.0071  0.5101  0.0738
 7759W        W22890   6.430   3.002  11.134 -0.1990  0.0306  0.0248
 7760W        W22891  17.159   5.013  12.216  0.0125  0.2737  0.0389
 7761W        W22892   6.036   5.776   2.046 -0.0195  0.1731 -0.0633
 7762W        W22893  17.682  12.667   0.239 -0.5119 -0.0393 -0.1501
 7763W        W22894   6.020  16.845  13.612 -0.0109  0.1763  0.1796
 7764W        W22895   0.263  14.396   1.350 -0.1581  0.0227  0.0857
 7765W        W22896   3.783  13.459  11.430 -0.2227 -0.0070 -0.3188
 7766W        W22897   3.418  14.973  11.306  0.0944 -0.2040 -0.0394
 7767W        W22898   7.159  13.284  16.209 -0.0053  0.0292 -0.1562
 7768W        W22899   9.034  11.453  16.296 -0.3545  0.0661  0.1928
 7769W        W22900  14.097   9.665   5.290  0.0479  0.1004  0.1916
 7770W        W22901   0.752   2.559  12.437 -0.2342 -0.1934 -0.2410
 7771W        W22902  11.757  17.738   5.342  0.1164  0.0314 -0.0670
 7772W        W22903   1.367   2.237   6.187 -0.0151  0.0332 -0.1267
 7773W        W22904  14.789  16.336   0.506  0.2777  0.2487 -0.3175
 7774W        W22905  17.200   1.214  11.839  0.2658  0.1308  0.1127
 7775W        W22906   8.415  14.735   0.004 -0.1527  0.1841 -0.2665
 7776W        W22907   7.712   9.171  13.113 -0.3310 -0.5321 -0.2162
 7777W        W22908   8.168  16.330  16.427 -0.0326  0.0419 -0.0253
 7778W        W22909   9.692  10.142  11.273 -0.2055  0.0839  0.1289
 7779W        W22910  13.044   7.431  13.558  0.3816 -0.2806 -0.0120
 7780W        W22911  12.352   8.519  11.729 -0.1679  0.1226 -0.0083
 7781W        W22912   2.725  11.018   1.271 -0.0242 -0.0849 -0.1360
 7782W        W22913   6.049   1.458  15.531  0.0119 -0.1270 -0.1296
 7783W        W22914   5.787   5.541  15.598 -0.3483 -0.0986 -0.0733
 7784W        W22915   0.842  12.676   1.366  0.1642  0.0324  0.1617
 7785W        W22916  14.449   0.157   1.201 -0.1145  0.0182  0.1669
 7786W        W22917  12.485  12.452  14.605 -0.0320 -0.0527  0.0198
 7787W        W22918  13.426   9.484   4.094 -0.2956 -0.1390 -0.0522
 7788W        W22919   4.738   5.632   2.010 -0.0117 -0.0463  0.3294
 7789W        W22920   0.854   2.364  13.856 -0.1068 -0.0913 -0.0296
 7790W        W22921  12.845  12.698  11.045  0.0972 -0.2783  0.0746
 7791W        W22922   6.404   0.149  16.315 -0.3049 -0.2005  0.0333
 7792W        W22923  16.292  15.619   5.160 -0.0602 -0.0063  0.0323
 7793W        W22924   4.050  15.141  15.809  0.0173 -0.0015  0.1208
 7794W        W22925   5.032  17.589   2.312  0.1511  0.1170 -0.3864
 7795W        W22926   3.864   9.990  14.611 -0.0809  0.0013 -0.3115
 7796W        W22927   3.110   6.838   3.653 -0.2767  0.0311 -0.2942
 7797W        W22928   7.979   1.943   4.141  0.1246  0.0789  0.1388
 7798W        W22929  17.747   0.227   3.168  0.2314  0.0400  0.1169
 7799W        W22930   1.291   7.240  13.014 -0.0766  0.0453 -0.0737
 7800W        W22931   4.252  13.064   1.815  0.1312  0.1314 -0.0276
 7801W        W22932  16.871   7.598   3.681  0.0570  0.1771 -0.0987
 7802W        W22933  12.922  13.863   3.779 -0.1141  0.1020  0.1940
 7803W        W22934  16.081   7.936  11.925  0.1797  0.1135 -0.0005
 7804W        W22935  11.309  13.271   0.318  0.3003 -0.1434  0.0526
 7805W        W22936   0.864  11.033   3.342 -0.1171  0.2144  0.2957
 7806W        W22937  11.803   1.087   1.144  0.0326  0.2421 -0.0939
 7807W        W22938   2.498   7.148   4.787  0.1541 -0.0702  0.0319
 7808W        W22939   5.747   2.247   1.489  0.0793 -0.0063 -0.3784
 7809W        W22940  16.206  14.359   4.662  0.1173 -0.1082 -0.1197
 7810W        W22941  11.760   3.475   3.564 -0.1112  0.1075  0.0364
 7811W        W22942   1.270   7.254   1.800 -0.0291  0.1073  0.2155
 7812W        W22943   0.252  15.846   2.528 -0.0986 -0.0795  0.0512
 7813W        W22944   0.430   8.901  11.778  0.0423  0.1716  0.2202
 7814W        W22945  14.884  14.334  13.085 -0.0664 -0.1097 -0.0168
 7815W        W22946   8.983  16.289   3.037 -0.1116 -0.2372  0.1797
 7816W        W22947   0.328   4.386  14.943 -0.3266 -0.3434 -0.2240
 7817W        W22948   1.217   0.445   1.582 -0.2116  0.0353 -0.3428
 7818W        W22949   7.216  14.989   1.210 -0.0644  0.0169  0.1632
 7819W        W22950   7.915  16.086  12.679 -0.1780 -0.0825  0.0943
 7820W        W22951   2.728   5.828   3.080 -0.0425 -0.2983  0.0529
 7821W        W22952   5.362   4.237   0.053 -0.2462 -0.4098  0.0416
 7822W        W22953   0.187  16.960   4.605 -0.1763 -0.0403  0.1580
 7823W        W22954   9.564  11.744  11.956  0.1551  0.1687  0.2443
 7824W        W22955  17.113   4.012   3.260 -0.2451  0.1013  0.1523
 7825W        W22956  15.819  14.282  12.179  0.1435  0.0674  0.3895
 7826W        W22957  11.892   9.936  11.941 -0.1425  0.1928 -0.1724
 7827W        W22958  16.508   7.457   2.386 -0.1302  0.0741  0.0423
 7828W        W22959   7.654   8.195  15.082 -0.1599 -0.2275  0.2068
 7829W        W22960   9.463  13.109  13.752 -0.1888 -0.0278  0.3408
 7830W        W22961   9.871  11.277  12.127 -0.2098  0.2467 -0.1402
 7831W        W22962   1.242   4.985  15.203  0.3546  0.0820  0.0793
 7832W        W22963  16.277   6.101  13.138  0.4043 -0.1117  0.2051
 7833W        W22964   5.827  14.331  13.175 -0.0445 -0.1757  0.3064
 7834W        W22965   0.448   8.297   3.804 -0.1426 -0.1238  0.0662
 7835W        W22966   4.486   8.811   2.169 -0.0597  0.0245  0.4260
 7836W        W22967  11.294   7.798  11.942 -0.0559 -0.1182 -0.1866
 7837W        W22968  14.881   6.973  16.442  0.4010 -0.0126 -0.0021
 7838W        W22969  17.456  18.054   0.649  0.1151 -0.0380  0.1828
 7839W        W22970   8.910  16.830   1.443 -0.1686 -0.0399 -0.0037
 7840W        W22971   4.190   8.553   3.099 -0.3493  0.1329 -0.0127
 7841W        W22972   4.278   4.965  15.069 -0.1053  0.0302 -0.2073
 7842W        W22973   9.650  16.798   0.312  0.0797 -0.1000  0.0462
 7843W        W22974   6.514   6.932  15.077  0.4313 -0.0882 -0.0628
 7844W        W22975   2.530   9.604  14.999 -0.0799 -0.1561 -0.0322
 7845W        W22976  10.623   7.413  11.308 -0.2083 -0.2479  0.1593
 7846W        W22977   2.909  13.129  12.940 -0.1630  0.2922  0.0921
 7847W        W22978  10.927   3.417  10.998  0.1961  0.0152 -0.3089
 7848W        W22979  18.106  17.030  11.953  0.1577 -0.1447 -0.0445
 7849W        W22980   2.282  10.526  16.020 -0.0063  0.1216  0.4567
 7850W        W22981  16.385  12.995   0.573  0.2282 -0.0237  0.1527
 7851W        W22982   6.134  16.841  10.421 -0.1017  0.0306  0.0477
 7852W        W22983   3.941  13.192   4.972 -0.0493  0.1181  0.2000
 7853W        W22984   4.139  17.763  14.944 -0.1638 -0.1717  0.0383
 7854W        W22985  10.043   8.121   2.493 -0.2342 -0.0239  0.1684
 7855W        W22986  17.703  10.375   0.257 -0.0149  0.0111 -0.1125
 7856W        W22987  10.195  17.522   0.177  0.1446  0.2129 -0.0668
 7857W        W22988  10.126  11.053   5.454  0.3125  0.2158 -0.1513
 7858W        W22989  10.599   7.807   3.230 -0.0305 -0.0551 -0.0864
 7859W        W22990   9.167   2.426   5.331 -0.2673  0.0613  0.1870
 7860W        W22991   3.849  15.362   3.775  0.1198 -0.1612  0.2414
 7861W        W22992   8.984  10.296  14.920  0.1051  0.1006 -0.1098
 7862W        W22993   1.163   1.731  14.011 -0.1684 -0.2120 -0.2018
 7863W        W22994   3.798   3.430   3.925  0.1808  0.2136 -0.1642
 7864W        W22995   4.428   7.247   5.373  0.0943 -0.1662 -0.1157
 7865W        W22996  10.299   1.934  12.017  0.0823 -0.3088  0.2373
 7866W        W22997  14.866   3.363   1.998  0.2364  0.1825  0.1245
 7867W        W22998  16.665  10.086  13.651 -0.0178 -0.0417  0.3584
 7868W        W22999  16.264   0.498   0.018 -0.1140  0.2456 -0.2086
 7869W        W23000   0.834   7.327   3.718 -0.1540  0.0365  0.0068
 7870W        W23001  10.472  16.345  13.549  0.0971  0.2348 -0.1081
 7871W        W23002   2.938  13.342  13.470  0.2694 -0.2810  0.1617
 7872W        W23003  13.191   6.428   2.059  0.1446  0.1323  0.0989
 7873W        W23004   4.870  16.812   4.852 -0.1051 -0.2681  0.3293
 7874W        W23005   1.396  16.244  14.407 -0.1835 -0.0605 -0.1323
 7875W        W23006  18.078  14.482   5.182 -0.5311  0.2085 -0.1107
 7876W        W23007  14.776  15.738  16.129 -0.0976  0.0750  0.1636
 7877W        W23008   9.005   9.290   4.949 -0.1163  0.0915  0.1781
 7878W        W23009  11.393   0.002   5.278 -0.0164 -0.3008  0.3692
 7879W        W23010   4.738   8.065  15.496  0.0843  0.1462  0.2289
 7880W        W23011  17.717  14.260   5.606 -0.0312  0.0593 -0.0389
 7881W        W23012  17.467  12.873  11.378  0.3836  0.2961  0.1223
 7882W        W23013  17.313  11.873   5.714  0.1682 -0.3980 -0.1243
 7883W        W23014  17.009   4.552   2.303  0.1536 -0.1701  0.0054
 7884W        W23015   1.576   4.638   2.943  0.0164 -0.0875  0.2679
 7885W        W23016  17.724  11.971   5.975 -0.0787  0.0453 -0.2525
 7886W        W23017   1.399   3.248   3.125 -0.2176 -0.2453  0.0823
 7887W        W23018  12.334   6.071  12.847  0.1277  0.0836 -0.0194
 7888W        W23019   2.209  13.772   5.143 -0.0668  0.4642 -0.0441
 7889W        W23020   2.286   9.838  12.343 -0.1597 -0.0855  0.2668
 7890W        W23021   8.666  16.758   3.274  0.3184  0.0084 -0.0281
 7891W        W23022   9.416   8.586  13.318  0.0785 -0.1147 -0.2552
 7892W        W23023   5.860   7.251   1.398  0.2147  0.2050 -0.0549
 7893W        W23024   2.470  11.452  16.114 -0.0690 -0.0601 -0.3571
 7894W        W23025  15.983   9.908   0.302  0.0936 -0.0844 -0.4698
 7895W        W23026  14.824   6.664  14.960  0.0872  0.2819  0.2007
 7896W        W23027   1.420  15.503   4.056  0.1015 -0.0565 -0.0103
 7897W        W23028   3.041   8.444  13.682 -0.2673  0.4754  0.2202
 7898W        W23029   6.950  15.374   2.705  0.1363 -0.1905 -0.2611
 7899W        W23030   5.479  10.050   5.155 -0.2237  0.2855 -0.3049
 7900W        W23031  12.160   9.979   5.283  0.2491 -0.1287 -0.0874
 7901W        W23032   7.645   5.916  12.480 -0.1281  0.1392  0.0798
 7902W        W23033  10.966   7.390   0.270  0.1626 -0.1688  0.2927
 7903W        W23034  13.987  11.304  10.574 -0.3705 -0.0210 -0.1743
 7904W        W23035  10.402  16.597  12.998  0.0728 -0.1674 -0.1439
 7905W        W23036  15.923   9.593   1.211  0.2235 -0.2285 -0.1867
 7906W        W23037   4.753  15.515  16.389 -0.1736 -0.0058 -0.0529
 7907W        W23038   3.765  11.943   0.403  0.0961 -0.2154  0.0744
 7908W        W23039   1.932   5.235  13.151  0.1699  0.0136 -0.1493
 7909W        W23040   1.909   9.266   4.481  0.2346 -0.2976  0.3228
 7910W        W23041   6.865   5.870   1.010 -0.1397  0.0482 -0.0671
 7911W        W23042  14.220   8.996   4.081  0.3367 -0.4386 -0.0506
 7912W        W23043   2.222  10.300  16.447  0.1277 -0.1199  0.1638
 7913W        W23044   3.145  16.294   2.458 -0.0447 -0.0670 -0.6314
 7914W        W23045  12.758   9.828   3.461 -0.1158 -0.0478  0.0967
 7915W        W23046   9.755  17.913  11.338 -0.1028 -0.0580 -0.1062
 7916W        W23047  16.955   0.783  11.339 -0.0057 -0.0618  0.0150
 7917W        W23048  16.162   7.044  12.309  0.0422  0.1474 -0.0372
 7918W        W23049   1.515  13.548  12.727  0.1541  0.0401  0.1868
 7919W        W23050   5.036   9.622  13.744 -0.0210 -0.0622 -0.2636
 7920W        W23051  11.437   8.615  11.521  0.2179  0.2232 -0.3397
 7921W        W23052   3.602  15.077  15.531  0.3000  0.3067 -0.2838
 7922W        W23053   3.693  14.594  13.620 -0.4506 -0.4901 -0.2201
 7923W        W23054   4.710   2.372  15.584 -0.1613 -0.0345  0.0442
 7924W        W23055   0.048   4.905   0.238  0.0452  0.2631  0.0174
 7925W        W23056   8.238   2.818   2.221  0.2920  0.0089  0.0725
 7926W        W23057  15.232   9.385  15.143 -0.0838 -0.0668  0.0705
 7927W        W23058   8.047   3.964  15.454 -0.0712 -0.0270 -0.1430
 7928W        W23059  14.703  10.072   0.404 -0.2432 -0.0733 -0.4747
 7929W        W23060   7.422   3.664   3.258 -0.2634  0.1303 -0.0418
 7930W        W23061  17.128   0.698  16.361 -0.1842  0.2066  0.0356
 7931W        W23062   8.902   1.062  14.139 -0.1491  0.1279  0.0622
 7932W        W23063   6.722   2.346  12.891 -0.0784  0.1673  0.0805
 7933W        W23064   0.526   0.786  11.891 -0.2865 -0.1642 -0.0291
 7934W        W23065   7.663   0.718   0.009 -0.1549  0.2119  0.2022
 7935W        W23066   4.940   9.806   1.882  0.2345  0.2070  0.5169
 7936W        W23067  13.016   5.306  14.447 -0.1010 -0.1089  0.0416
 7937W        W23068  15.418   7.714  15.642 -0.0805  0.2426 -0.0261
 7938W        W23069   0.529  16.661  14.865  0.0994 -0.3986  0.2776
 7939W        W23070   6.901   6.890   0.671  0.0711 -0.0795 -0.0511
 7940W        W23071  10.017   8.044   0.988  0.1376  0.0369  0.0768
 7941W        W23072   4.853  11.544   1.732  0.1887 -0.0321 -0.4943
 7942W        W23073   1.290   3.277   4.570 -0.1947  0.0496 -0.0741
 7943W        W23074   9.989   5.859  15.417 -0.1270 -0.2036  0.1848
 7944W        W23075   6.897  15.509  11.636 -0.1646 -0.3385 -0.0181
 7945W        W23076   3.106   9.359   1.463  0.1299 -0.0762  0.0582
 7946W        W23077  11.707   9.170   3.412  0.1077  0.0138  0.0037
 7947W        W23078   3.199  15.953   3.910  0.1363  0.1697  0.3437
 7948W        W23079   0.133  10.261  14.361 -0.0408 -0.0609 -0.0544
 7949W        W23080   1.627   8.619  11.259 -0.2778 -0.0864  0.3489
 7950W        W23081  13.426  10.438  11.209 -0.2144  0.2307  0.0474
 7951W        W23082  16.840   8.463  11.656 -0.2093  0.2323 -0.3872
 7952W        W23083   5.241  11.986  15.787  0.0688 -0.1178  0.1769
 7953W        W23084   8.451  17.886  14.508  0.0927 -0.0622  0.1949
 7954W        W23085  10.125   1.447  12.679 -0.1138  0.3232  0.1557
 7955W        W23086   5.232  10.519   3.480 -0.0146  0.1635  0.0612
 7956W        W23087   2.623   7.999   1.447 -0.1592  0.0296 -0.2320
 7957W        W23088  15.016   9.805  13.770  0.0223  0.1600 -0.2522
 7958W        W23089   4.750   9.764  11.334  0.2055  0.2680  0.2427
 7959W        W23090  17.014   7.776  15.104 -0.0925 -0.0988 -0.2149
 7960W        W23091   2.949   6.073  11.644 -0.0138  0.2752 -0.1209
 7961W        W23092  10.112  15.033  15.808  0.1652 -0.2835 -0.1888
 7962W        W23093  11.798  14.889   2.472 -0.1324 -0.0813 -0.4035
 7963W        W23094  10.762   8.351   1.944 -0.3793  0.0345 -0.1616
 7964W        W23095  11.535  13.635  11.413  0.4274 -0.0284  0.4710
 7965W        W23096   5.535   0.160   6.229 -0.0076 -0.0274 -0.1686
 7966W        W23097  15.811   5.401   0.554  0.1031  0.0586 -0.1169
 7967W        W23098  11.344   0.604   2.917 -0.1721 -0.0268  0.2862
 7968W        W23099   6.604   0.909   5.692  0.0610  0.1553  0.0594
 7969W        W23100   9.304  18.095  16.117 -0.2034  0.1858 -0.1755
 7970W        W23101   4.149   0.964  14.645 -0.2280  0.0159  0.0090
 7971W        W23102  15.599  11.544  14.390 -0.0643  0.3069 -0.3142
 7972W        W23103  15.792  13.973   4.619  0.1995  0.0095  0.0347
 7973W        W23104   8.606  10.110   2.123 -0.0095 -0.4401  0.1236
 7974W        W23105   7.768  16.492   0.236  0.2005 -0.1215 -0.0676
 7975W        W23106  15.081   7.497   6.442 -0.1066 -0.0320  0.0824
 7976W        W23107   0.484   9.210   0.053 -0.0967  0.2639  0.0696
 7977W        W23108  10.502  13.618   2.260 -0.0294  0.0974 -0.0612
 7978W        W23109   0.906   2.488  14.347 -0.2887  0.0933  0.0272
 7979W        W23110  13.568   9.731  15.573  0.0839 -0.3300  0.3382
 7980W        W23111   1.474   2.274   2.550  0.2464  0.0758  0.0971
 7981W        W23112   4.758   0.114  15.299  0.2437 -0.0018 -0.1766
 7982W        W23113   0.503   3.389  13.455  0.2414  0.0497 -0.1624
 7983W        W23114   7.623  14.109  14.048 -0.0429 -0.1683 -0.0494
 7984W        W23115   7.984  11.028  14.518  0.0131  0.0342  0.2693
 7985W        W23116  13.771   0.055  12.998  0.0123  0.0669 -0.3052
 7986W        W23117   0.303   9.804   3.715 -0.0940 -0.1019  0.1801
 7987W        W23118  17.469  17.479   0.059 -0.1953 -0.1484 -0.0717
 7988W        W23119  13.150  17.705   3.495  0.0979 -0.1508 -0.1005
 7989W        W23120  13.676   7.299   5.100 -0.1999  0.3337  0.0279
 7990W        W23121  11.004  17.189   1.675 -0.1719 -0.3238 -0.0066
 7991W        W23122   5.075   3.738  13.788  0.0117  0.0393 -0.3375
 7992W        W23123   1.686   9.712   5.277 -0.1776 -0.0615 -0.0911
 7993W        W23124  12.581  18.077  10.015 -0.0238  0.0938  0.2952
 7994W        W23125  12.809  15.586   2.638 -0.4508  0.2815 -0.0457
 7995W        W23126  16.220  13.757  12.274  0.3592 -0.0180  0.2640
 7996W        W23127   5.493  17.417  16.364 -0.1746  0.2748 -0.1307
 7997W        W23128  13.069  14.028   0.487  0.2639  0.1420 -0.3782
 7998W        W23129  10.452  17.758  15.530  0.1447  0.4224 -0.0841
 7999W        W23130  17.363   8.411   5.149  0.2691  0.1155  0.1185
 8000W        W23131   2.899   7.579   1.485 -0.0161 -0.1160 -0.0302
 8001W        W23132  12.418  17.515   4.936  0.0039 -0.0444 -0.1689
 8002W        W23133   3.216  15.939  14.277 -0.3981  0.3616 -0.1300
 8003W        W23134   4.668   6.963  13.031  0.0064  0.2397 -0.2001
 8004W        W23135  16.360   0.681  14.055 -0.3616  0.4624 -0.2617
 8005W        W23136   6.853   8.181   5.208  0.1455 -0.2671 -0.3533
 8006W        W23137   2.703   6.812  11.831  0.2545 -0.1726  0.0087
 8007W        W23138  14.715   5.222  11.538  0.1095 -0.1371 -0.1015
 8008W        W23139  17.683   4.018   5.341  0.0584  0.2763 -0.1983
 8009W        W23140   8.456   4.634  16.097 -0.0760 -0.2438 -0.1434
 8010W        W23141  10.224   0.101   0.699 -0.0513 -0.3237  0.2139
 8011W        W23142   8.155   6.935  15.767 -0.0944  0.0229  0.1785
 8012W        W23143   2.545  10.961  14.702  0.1316  0.1027 -0.0568
 8013W        W23144   2.672   6.171   0.230 -0.0875  0.1811 -0.1291
 8014W        W23145   2.046   2.254  11.267 -0.1194  0.0791  0.0771
 8015W        W23146   0.469  12.392   4.805 -0.0753 -0.2461  0.3077
 8016W        W23147   4.048  15.088   0.915  0.2714 -0.0536  0.0257
 8017W        W23148  14.713   8.780  14.045  0.0946 -0.0118 -0.0488
 8018W        W23149   8.744   5.464   4.357  0.0902 -0.4131 -0.1387
 8019W        W23150   1.222   2.162   1.211  0.1347 -0.0492  0.4774
 8020W        W23151   3.389  16.688  12.358  0.0549  0.3109 -0.0254
 8021W        W23152  11.910  13.462  12.638 -0.2223 -0.1322  0.0440
 8022W        W23153  14.693  14.574  14.361 -0.2411 -0.0408  0.0275
 8023W        W23154  10.551   1.634  12.813 -0.1226  0.3435 -0.3555
 8024W        W23155   6.112  11.441  10.720  0.1625 -0.0474  0.1925
 8025W        W23156  12.428  12.615  12.637 -0.1235 -0.0648  0.2057
 8026W        W23157  14.105   6.007  11.821 -0.2563 -0.4293  0.2608
 8027W        W23158   4.399  14.521   3.773 -0.1444  0.1044  0.2006
 8028W        W23159   6.988  17.574   2.342 -0.0758 -0.1041 -0.0604
 8029W        W23160  17.207   6.850   1.036  0.0746 -0.1899 -0.4798
 8030W        W23161  16.451   9.668   4.214 -0.0941 -0.2740 -0.1081
 8031W        W23162  15.198   8.092  13.931 -0.0982 -0.0725  0.1392
 8032W        W23163   0.512   4.652  15.800 -0.2828 -0.1581  0.0998
 8033W        W23164  14.447  12.018  13.954 -0.0771 -0.0016  0.5182
 8034W        W23165   8.261   9.270   5.256  0.1004 -0.0680  0.0536
 8035W        W23166   7.227   5.484   2.768 -0.0474 -0.0860  0.1612
 8036W        W23167   4.234   4.989  14.095  0.0795  0.2363  0.1781
 8037W        W23168   2.442   1.488   0.940 -0.0533 -0.0571 -0.0316
 8038W        W23169   3.421   1.801  15.758  0.0172  0.1301  0.0224
 8039W        W23170  13.944  17.480  12.190  0.0001 -0.2087  0.0197
 8040W        W23171  17.528   0.686  13.336 -0.0006  0.1535 -0.0767
 8041W        W23172   2.806   3.501  10.361 -0.0214  0.1748  0.2509
 8042W        W23173   7.954   1.867   1.482  0.1430  0.0235 -0.1753
 8043W        W23174   1.456   4.856   0.154  0.2126 -0.1357 -0.3241
 8044W        W23175  10.900   3.865  11.101 -0.0459 -0.2903 -0.1678
 8045W        W23176  10.857  13.674  12.149  0.1998 -0.3636  0.3492
 8046W        W23177   7.955   4.320   3.864 -0.0468  0.1431  0.0479
 8047W        W23178   1.766   8.135   1.635 -0.1428 -0.1248  0.2189
 8048W        W23179   7.178   0.568   0.368 -0.0505 -0.2662 -0.0567
 8049W        W23180   1.195   3.157   3.867 -0.1248  0.1086  0.2322
 8050W        W23181   3.748  11.853   2.056  0.0953 -0.1496 -0.0994
 8051W        W23182   5.846   4.332   0.234 -0.1737  0.2178  0.4354
 8052W        W23183  13.465  14.645  12.786  0.1551 -0.3041  0.2691
 8053W        W23184  14.982   5.716  14.993  0.1361  0.0103  0.1696
 8054W        W23185   4.765  13.847  14.065  0.3605  0.0241 -0.2404
 8055W        W23186   7.336   9.583   0.916 -0.2534  0.0870  0.1158
 8056W        W23187  12.823   3.406  15.997  0.2763  0.0089 -0.0003
 8057W        W23188  16.862   3.654  12.488  0.0325 -0.3196 -0.1101
 8058W        W23189   6.484   4.776  14.195  0.0869  0.1610  0.1439
 8059W        W23190  13.734  17.275  15.546  0.0053  0.3608 -0.0271
 8060W        W23191  11.440   1.235   4.742  0.0590  0.2035 -0.3338
 8061W        W23192   9.572   6.882   1.326 -0.0235 -0.0923  0.1698
 8062W        W23193   3.718  12.353   4.814  0.0398 -0.2245 -0.1968
 8063W        W23194  14.766  16.354  13.827 -0.3263  0.1269  0.1547
 8064W        W23195  13.414  17.749   0.215 -0.0639 -0.1063  0.0113
 8065W        W23196  13.059   2.467  11.321 -0.2563 -0.1767 -0.0682
 8066W        W23197   8.307   4.003  12.739  0.1569 -0.1529 -0.2270
 8067W        W23198   1.543  13.080  14.601  0.1350  0.3694 -0.0049
 8068W        W23199  10.537  13.812  11.686 -0.0233 -0.1548  0.2834
 8069W        W23200  10.773  12.011   3.945  0.3260  0.1656 -0.1635
 8070W        W23201   2.397   3.485   0.775  0.2103 -0.0636 -0.2840
 8071W        W23202   5.549   1.417   6.319  0.0471 -0.1316  0.0638
 8072W        W23203   4.175   7.923  15.662  0.0213  0.1276  0.0503
 8073W        W23204   6.392   5.960  10.955 -0.1596  0.1474  0.2076
 8074W        W23205   0.308   4.382  16.133  0.1037  0.2537 -0.0306
 8075W        W23206   1.772   9.501  13.676 -0.2068  0.1754 -0.1485
 8076W        W23207   7.535  13.029  15.863 -0.1129  0.0055 -0.0046
 8077W        W23208  12.837   5.432   6.091  0.0272  0.0425 -0.0712
 8078W        W23209  13.784  11.250  15.329 -0.1556 -0.1953  0.1901
 8079W        W23210   9.221   2.492   2.366 -0.0793 -0.0640  0.0940
 8080W        W23211  16.981  10.750   1.305  0.1040 -0.0956  0.2652
 8081W        W23212  11.119   7.769  12.964  0.1055 -0.0133  0.0173
 8082W        W23213  12.864   5.900   5.318 -0.1104  0.0474  0.1517
 8083W        W23214  10.578  17.223   2.987  0.1196 -0.1365  0.0399
 8084W        W23215   6.598   8.004  16.080  0.1562 -0.0278 -0.2442
 8085W        W23216  16.337   2.208  12.100  0.1366 -0.0800 -0.2718
 8086W        W23217   1.475  11.450   4.447  0.1155 -0.1793 -0.1082
 8087W        W23218  16.428  17.282  15.712  0.1545 -0.0770  0.3969
 8088W        W23219   3.331  10.749  14.179 -0.0880 -0.0418  0.3440
 8089W        W23220  13.585   3.047  11.608 -0.2005  0.4720  0.2461
 8090W        W23221   0.090  16.776  13.859  0.0866 -0.3544  0.0391
 8091W        W23222  17.866   7.159   4.896  0.2076 -0.0835  0.2854
 8092W        W23223   4.345  10.448   5.149  0.0185  0.1079  0.0205
 8093W        W23224   2.522  17.044  16.066  0.0697  0.0049 -0.0241
 8094W        W23225   0.566  11.443   2.412  0.3572 -0.2225 -0.1077
 8095W        W23226  13.055  11.785   3.802  0.0580  0.2000 -0.1853
 8096W        W23227  13.160  16.765  11.856  0.1340 -0.0576  0.0058
 8097W        W23228   7.619  12.807  15.001  0.0180  0.2256 -0.2279
 8098W        W23229  12.652   5.122   1.894 -0.0118 -0.0775  0.0864
 8099W        W23230   5.408  17.804  12.182  0.0300  0.3172 -0.2644
 8100W        W23231  16.724  15.716  12.047 -0.0171 -0.3566 -0.1066
 8101W        W23232   5.357  17.045   4.736 -0.1363  0.1891  0.0909
 8102W        W23233  15.536  14.351   4.915 -0.1021 -0.1297 -0.0601
 8103W        W23234   1.373   1.931  13.581 -0.2125 -0.1076  0.3366
 8104W        W23235  15.977  16.112   1.468  0.0577 -0.1004  0.1683
 8105W        W23236  11.090   0.053   3.743  0.3512  0.1460 -0.0448
 8106W        W23237  13.107  11.092   3.542  0.2516  0.3112 -0.1430
 8107W        W23238   3.318  15.540  15.105 -0.1149 -0.1679 -0.0119
 8108W        W23239   8.224   9.247  11.658  0.1941  0.2326  0.0912
 8109W        W23240  10.685   1.156   2.432  0.0321 -0.1664  0.1570
 8110W        W23241   6.635   0.520  11.131 -0.1788  0.3585 -0.1014
 8111W        W23242  11.153   1.053   2.717 -0.0405  0.0401 -0.0843
 8112W        W23243   9.003  15.749  13.098  0.0348 -0.0330  0.0792
 8113W        W23244   3.917   0.404   1.644  0.0134  0.0273  0.0449
 8114W        W23245   8.640   7.896  11.011  0.2052  0.1034 -0.3680
 8115W        W23246   4.830   2.636  11.042 -0.2097  0.1323 -0.1443
 8116W        W23247   0.104   5.568  14.973 -0.2268  0.4159 -0.1737
 8117W        W23248  13.453  11.868  15.210 -0.3663  0.3103  0.1006
 8118W        W23249  15.089  17.774  11.457  0.1920 -0.1660 -0.2527
 8119W        W23250  16.507  17.372   3.316  0.0034 -0.1362 -0.2870
 8120W        W23251   1.169  15.640   2.099  0.3649  0.0285 -0.1169
 8121W        W23252   4.272   9.381  14.482  0.0168 -0.1971 -0.1440
 8122W        W23253   7.388   2.825  12.112  0.0477  0.4725 -0.2781
 8123W        W23254   4.090  16.325  16.342 -0.0965  0.2954 -0.0435
 8124W        W23255   3.856  15.878  11.729  0.3870 -0.2211 -0.0279
 8125W        W23256  15.668  16.034   2.617  0.2753 -0.2637 -0.2242
 8126W        W23257   1.192  13.782   2.884  0.1114 -0.1927  0.0482
 8127W        W23258  14.883  17.277  16.314  0.1182  0.0658  0.0403
 8128W        W23259   3.468   2.548   0.311  0.1219  0.0684 -0.0151
 8129W        W23260  13.245   4.724  12.507  0.1258  0.1165  0.0587
 8130W        W23261  12.370   6.726   1.663 -0.1158  0.3082  0.0289
 8131W        W23262  16.179   2.436  12.603 -0.2419  0.3362 -0.1965
 8132W        W23263   6.090  12.098   0.087  0.0977  0.1470  0.0448
 8133W        W23264   7.714   1.997  11.717 -0.0424 -0.0650 -0.1019
 8134W        W23265   1.056  10.458  15.996 -0.1702 -0.0013 -0.2116
 8135W        W23266   2.681  10.027   5.707  0.1926 -0.2248 -0.1002
 8136W        W23267   8.703  11.793  16.452 -0.2755  0.1875  0.0303
 8137W        W23268  14.019   0.049  15.570 -0.1498 -0.2003 -0.2637
 8138W        W23269   6.875  12.421  11.344 -0.0365  0.2782 -0.1411
 8139W        W23270   4.456   8.646   0.654 -0.2316 -0.0262 -0.0542
 8140W        W23271   8.831  16.228  13.403 -0.0908  0.0217 -0.4313
 8141W        W23272  15.811   4.489  14.716 -0.2654 -0.1744 -0.2063
 8142W        W23273   6.772  10.484   4.992 -0.1834 -0.1806  0.2652
 8143W        W23274  17.170  12.974  14.838  0.1696  0.1774  0.0184
 8144W        W23275   9.923  10.759  16.225  0.1672  0.0323  0.1534
 8145W        W23276   5.592  17.570   3.203 -0.2093 -0.1814 -0.1651
 8146W        W23277   8.801  16.511   1.076 -0.2639 -0.2664  0.2854
 8147W        W23278  16.032  12.215  16.140 -0.0231  0.0542 -0.0322
 8148W        W23279   6.743  17.023  15.230 -0.0523 -0.1563 -0.1047
 8149W        W23280  12.041   0.094  15.215 -0.0007  0.1176 -0.0608
 8150W        W23281  17.292  10.230  11.340 -0.0035  0.2285  0.0776
 8151W        W23282   0.630   3.784  16.113 -0.1796  0.0179  0.3124
 8152W        W23283   0.004   8.753  15.305  0.3173  0.1528  0.1083
 8153W        W23284  12.672  17.505  12.217 -0.1123 -0.1586  0.2258
 8154W        W23285   0.898  16.708  12.827 -0.1824 -0.0122  0.1430
 8155W        W23286   5.846  15.737  15.055  0.2282  0.0013 -0.1595
 8156W        W23287  12.684   3.869  10.232 -0.0966  0.2783  0.1160
 8157W        W23288  12.864   2.988   5.310  0.0698 -0.1291  0.1653
 8158W        W23289  13.584   1.909   4.792  0.1931  0.0867  0.0119
 8159W        W23290   6.200   1.538  13.061  0.3793  0.1980  0.0641
 8160W        W23291   1.741  17.722   5.229 -0.3848  0.1416  0.0485
 8161W        W23292   2.502  11.372   1.008 -0.3177  0.0782  0.0054
 8162W        W23293   4.565  17.737   3.143 -0.2606 -0.0699  0.0529
 8163W        W23294  17.767   2.564   5.300  0.1103  0.2154  0.0881
 8164W        W23295  15.108  12.977   4.060  0.0889 -0.3812 -0.0257
 8165W        W23296   3.064   0.141   5.458 -0.0397 -0.3053  0.2234
 8166W        W23297  10.595  11.372  15.882 -0.0030 -0.2663  0.2029
 8167W        W23298  11.603   3.280   4.038  0.0641 -0.1680 -0.1971
 8168W        W23299  15.162   7.950  12.024  0.0970  0.0927  0.2227
 8169W        W23300   1.558   3.784   4.465 -0.0510  0.1790 -0.0457
 8170W        W23301  17.937   4.331  10.962  0.0266 -0.2188  0.4030
 8171W        W23302  11.362   2.347  13.839  0.0788 -0.0859  0.3431
 8172W        W23303   9.685  14.720  16.046  0.1441 -0.1356  0.1459
 8173W        W23304   4.208   7.524  16.211  0.3514 -0.1648  0.2240
 8174W        W23305   6.205  17.066  13.110  0.0666 -0.2269 -0.0954
 8175W        W23306  12.869  15.454   3.170  0.1171 -0.1550 -0.1763
 8176W        W23307  16.766   7.972  14.097  0.0688 -0.0556 -0.1683
 8177W        W23308   5.607   1.070  13.387 -0.2582  0.1697  0.0893
 8178W        W23309  14.339   7.740   5.655  0.0367  0.0802  0.4804
 8179W        W23310  10.182   9.310  14.050  0.1027 -0.0425  0.0840
 8180W        W23311   7.419   1.905  12.777  0.0319  0.1055  0.0031
 8181W        W23312   6.411  13.617   2.771 -0.1382  0.0970 -0.0613
 8182W        W23313   9.862  17.720   2.041 -0.1855 -0.1717 -0.1995
 8183W        W23314   8.021   4.998   1.384 -0.0159  0.1605 -0.0843
 8184W        W23315   1.681  15.096  14.600  0.3711 -0.0907 -0.1983
 8185W        W23316  12.728  13.646  15.324 -0.1898  0.0337  0.0859
 8186W        W23317  13.639   5.446   0.777 -0.0650 -0.0306 -0.0386
 8187W        W23318  11.780   0.747  16.159  0.0141 -0.2496  0.3416
 8188W        W23319   7.464  10.427   4.956  0.1229  0.1575  0.4171
 8189W        W23320   7.198   2.444   1.835 -0.1768  0.2117  0.2029
 8190W        W23321  15.750   3.453  12.457  0.0734 -0.0069  0.1150
 8191W        W23322   7.524  17.870   5.600 -0.0955 -0.1594  0.4173
 8192W        W23323   5.926  15.218   4.506 -0.0594  0.1785 -0.1996
 8193W        W23324  16.686   2.321  12.458  0.4680 -0.1475 -0.0566
 8194W        W23325  12.896   4.190  15.484  0.0126 -0.2316  0.1550
 8195W        W23326  12.453   8.719  14.469  0.0756  0.0470  0.0841
 8196W        W23327  16.301  10.917  11.277  0.2407 -0.1680  0.0569
 8197W        W23328  13.423  13.756  14.036  0.2720  0.2186  0.1871
 8198W        W23329   0.351  10.556  11.323 -0.0021  0.1774 -0.2810
 8199W        W23330  16.184   8.986   0.566 -0.0149  0.0669  0.2691
 8200W        W23331   2.167   3.922   2.973  0.1792  0.1533 -0.2374
 8201W        W23332   9.842   8.144  14.351 -0.0000 -0.3164  0.1825
 8202W        W23333  11.461   0.686   2.459  0.1496  0.2949 -0.0703
 8203W        W23334   7.974   5.206  12.872 -0.0947  0.0765 -0.2433
 8204W        W23335   8.390  11.726   1.546  0.0865 -0.0452  0.0698
 8205W        W23336   8.712   3.324   3.065  0.1559  0.1138  0.0081
 8206W        W23337  10.003   6.581   1.969 -0.0220  0.1322 -0.0226
 8207W        W23338   8.677   2.070   5.202  0.1251 -0.0548 -0.1326
 8208W        W23339  14.364  13.550   3.610  0.0796  0.2723 -0.1488
 8209W        W23340   1.764  12.893   1.030  0.2988  0.0448  0.0298
 8210W        W23341   0.324  12.643   3.838 -0.1139 -0.1977  0.1591
 8211W        W23342  17.618   8.320   3.795  0.0654 -0.0811 -0.2064
 8212W        W23343  10.951   4.779  10.258 -0.0527  0.0608  0.1767
 8213W        W23344   3.297  14.017  15.669 -0.0001 -0.0913 -0.2027
 8214W        W23345  16.519  10.535  15.420 -0.0122 -0.0520  0.0167
 8215W        W23346  13.278   4.504   4.266  0.1308  0.3933 -0.1452
 8216W        W23347   1.021   1.908   4.201  0.1161  0.1112  0.0300
 8217W        W23348   4.421   5.557   0.470  0.2427  0.1863  0.0893
 8218W        W23349  15.906  13.509  12.612 -0.0068  0.0940 -0.2129
 8219W        W23350  15.087   8.341  13.226 -0.3317 -0.1018 -0.0702
 8220W        W23351  15.413   8.472  11.960 -0.1618  0.0845  0.0875
 8221W        W23352   5.129   9.955   4.093  0.1851  0.0323  0.1921
 8222W        W23353   8.489  14.202   1.958 -0.2782 -0.1983 -0.0091
 8223W        W23354  10.971   3.671   5.490 -0.0558  0.1287 -0.1953
 8224W        W23355  14.617   6.965  11.405  0.2458  0.1095 -0.3360
 8225W        W23356   2.783   6.573   9.845  0.0435  0.4268  0.0902
 8226W        W23357  12.915   2.554  14.613  0.2753 -0.2726  0.0285
 8227W        W23358  13.181  10.608   2.307  0.0107 -0.1548 -0.0132
 8228W        W23359  12.617   2.593   0.457 -0.4509  0.4047 -0.1495
 8229W        W23360   3.517   6.872  12.098 -0.0612  0.3260  0.1661
 8230W        W23361   6.712   1.720   4.964  0.1871  0.0522 -0.1796
 8231W        W23362  12.346  14.994  11.439  0.0639  0.0028 -0.1956
 8232W        W23363  11.898   1.930   2.575 -0.1118  0.3037  0.1716
 8233W        W23364   0.776  16.198   0.781 -0.1637  0.0999 -0.1277
 8234W        W23365   3.517  10.785  15.088  0.0151  0.0114 -0.1330
 8235W        W23366  14.691   1.178   4.300 -0.1586 -0.0538  0.2831
 8236W        W23367   1.159  16.523  15.813 -0.1474  0.0776  0.0355
 8237W        W23368   7.086   6.238   0.394  0.0164  0.1846 -0.4545
 8238W        W23369  13.333   2.210   4.397 -0.1929 -0.3251 -0.0608
 8239W        W23370  17.462  14.465   4.714 -0.0484 -0.0838 -0.0499
 8240W        W23371   5.665  14.051  16.265 -0.2912 -0.1704  0.0509
 8241W        W23372  15.363  16.209  15.214  0.0375 -0.0995  0.2733
 8242W        W23373  11.828   0.790  11.584 -0.0088 -0.0154  0.3358
 8243W        W23374   7.025   2.546   2.622 -0.0190  0.0983 -0.1756
 8244W        W23375  17.095   9.859  11.602 -0.1910  0.1147  0.2297
 8245W        W23376  17.979   6.802   1.088 -0.0964 -0.1817  0.1803
 8246W        W23377   5.263   6.552  13.653  0.0925 -0.3670  0.0411
 8247W        W23378   3.440   1.068   5.426  0.1841 -0.1329 -0.0914
 8248W        W23379   3.384   6.353   3.603  0.4603  0.0241 -0.3595
 8249W        W23380   2.164  13.517   4.349  0.0534  0.2148  0.0733
 8250W        W23381  13.508   6.043   0.358  0.1356  0.2041 -0.2797
 8251W        W23382   5.444   9.764  13.421 -0.2474 -0.3946  0.0581
 8252W        W23383   5.701  12.624  10.161 -0.0247  0.3002 -0.2193
 8253W        W23384  10.321   7.533  15.349  0.1630 -0.2628 -0.1898
 8254W        W23385  13.465   0.387  16.215  0.0740 -0.2382 -0.0997
 8255W        W23386  12.099   9.848   4.730 -0.0376  0.1215  0.1209
 8256W        W23387   2.326   3.987  16.161 -0.1828 -0.1435  0.2139
 8257W        W23388  10.108  12.547  10.290 -0.1811 -0.2620 -0.2348
 8258W        W23389   2.309   6.795   1.776  0.0004  0.0308 -0.0665
 8259W        W23390   8.815  12.928  13.375  0.4800 -0.1414 -0.3165
 8260W        W23391   7.635   0.632  15.896 -0.2210 -0.0121 -0.3321
 8261W        W23392   8.504  12.444  11.628  0.0319 -0.0262 -0.1719
 8262W        W23393   2.653   4.855   0.879 -0.0947  0.2123 -0.2573
 8263W        W23394  13.725  11.563  14.871  0.0551  0.4041 -0.1207
 8264W        W23395   1.892   2.802   2.330 -0.0530  0.0148  0.0749
 8265W        W23396   4.714  17.401   4.099 -0.3180 -0.1574  0.2961
 8266W        W23397   9.071  15.057   1.461 -0.0098 -0.2005 -0.0062
 8267W        W23398   8.508   8.242  13.524  0.1882  0.1159 -0.0514
 8268W        W23399   5.391   8.503   3.189  0.0351 -0.0387 -0.0197
 8269W        W23400   0.237   2.708   5.314 -0.3748  0.0305  0.0387
 8270W        W23401   9.170  10.923  11.680 -0.0447 -0.1294  0.3884
 8271W        W23402  12.249   1.087  14.887 -0.2614  0.0347  0.3672
 8272W        W23403  17.585   3.493  13.701  0.1579 -0.1016 -0.4527
 8273W        W23404   0.467   5.973   5.521 -0.0185  0.2300 -0.2519
 8274W        W23405   0.348  13.271   5.789 -0.0739 -0.0008 -0.2143
 8275W        W23406  15.096   9.166  13.480  0.4156  0.2580  0.1842
 8276W        W23407  16.375   5.703   0.027  0.0862 -0.2046  0.2400
 8277W        W23408  13.376  11.628   4.202  0.1071 -0.0736  0.1951
 8278W        W23409  11.330  12.449  12.162  0.2257 -0.2852 -0.0773
 8279W        W23410  17.788  15.053   2.599 -0.3158  0.1093  0.0841
 8280W        W23411   8.382  13.261   4.557  0.1639  0.0628 -0.0411
 8281W        W23412  16.433   6.417   2.328 -0.1414 -0.2491  0.0689
 8282W        W23413   7.228  17.173  15.063  0.1057  0.1143 -0.1153
 8283W        W23414  13.387  15.398  14.526 -0.1122 -0.1609  0.0982
 8284W        W23415   9.258   5.160  15.633 -0.0317 -0.2292 -0.0886
 8285W        W23416   5.555   8.473  12.709 -0.0261  0.1404  0.0401
 8286W        W23417   8.627  15.078  15.653 -0.1648  0.1625  0.3110
 8287W        W23418  10.428   7.253   5.505 -0.1143 -0.0640  0.1251
 8288W        W23419  17.514  10.011   1.188  0.0298 -0.1331 -0.2759
 8289W        W23420   7.937   4.386  13.569  0.1193 -0.1214 -0.1417
 8290W        W23421   0.896   7.780  14.046  0.1124 -0.1369 -0.0558
 8291W        W23422   4.240  15.527   4.724 -0.4291 -0.1757  0.2046
 8292W        W23423  14.290   7.938  14.977 -0.0762  0.1447  0.0710
 8293W        W23424  15.493  17.171   0.786 -0.0650 -0.0366  0.1893
 8294W        W23425   3.474  16.303   1.284  0.0686  0.1387  0.0382
 8295W        W23426   8.181  12.825   4.930  0.1472 -0.1444 -0.1903
 8296W        W23427  11.662  14.214  14.168  0.0902 -0.1802 -0.0764
 8297W        W23428   6.296   5.287  14.367  0.1670  0.1758  0.1222
 8298W        W23429   6.182   4.401  14.497  0.2775 -0.0750  0.1544
 8299W        W23430   4.136  11.010  11.680 -0.0930  0.0434  0.2874
 8300W        W23431   6.262  14.947  14.318  0.0535  0.0497 -0.1216
 8301W        W23432   3.387  14.851   3.504 -0.0309 -0.0259  0.0785
 8302W        W23433  10.497   8.568  13.848 -0.1063  0.1889  0.0211
 8303W        W23434   0.066   5.375  12.102  0.0911 -0.0932  0.1545
 8304W        W23435   1.702   6.790  15.010  0.0363 -0.1354  0.2327
 8305W        W23436   2.597   3.680  10.935 -0.1574 -0.0252  0.0616
 8306W        W23437  11.893   0.228   0.900 -0.1797  0.1346 -0.1071
 8307W        W23438   9.915  13.664  15.517 -0.0129 -0.0487 -0.1908
 8308W        W23439  15.827   5.063   2.392  0.0526  0.0517  0.0660
 8309W        W23440   3.748   7.986   5.250  0.2462  0.0435 -0.1360
 8310W        W23441   2.426   2.955  12.125 -0.0450 -0.1229 -0.2836
 8311W        W23442   1.938  11.816   5.834 -0.0048 -0.3279 -0.1685
 8312W        W23443   0.878   8.245  14.243  0.0891 -0.1078 -0.0235
 8313W        W23444   7.142   8.885   2.711  0.0729 -0.2695 -0.1001
 8314W        W23445   9.085  14.148   2.562 -0.0570 -0.1196  0.0284
 8315W        W23446   4.488   3.990  16.384  0.2092 -0.3475 -0.4034
 8316W        W23447  14.244   2.385   2.957  0.0210  0.2505 -0.0124
 8317W        W23448   0.055  14.879  16.403  0.0932  0.4449 -0.1366
 8318W        W23449  14.866   6.729   4.166  0.1474 -0.1044 -0.0046
 8319W        W23450  11.503   4.950  15.760 -0.1126  0.0927 -0.1929
 8320W        W23451   0.970   1.037  16.300  0.1032 -0.2469 -0.4178
 8321W        W23452  13.041   1.586  15.713  0.0463 -0.1546  0.2135
 8322W        W23453  16.011   5.484   2.275 -0.2714  0.2917 -0.0189
 8323W        W23454   5.215   3.125  15.067 -0.0647 -0.0482 -0.3225
 8324W        W23455   3.958   0.837  14.157 -0.0464  0.1864 -0.2757
 8325W        W23456  10.490  11.358  10.771  0.0212  0.4901 -0.1077
 8326W        W23457  13.389  12.653   5.115  0.2487 -0.1751 -0.2337
 8327W        W23458   3.407  12.547  11.327 -0.1379  0.4510 -0.0350
 8328W        W23459  12.067   6.058  13.629 -0.1062 -0.1122 -0.3239
 8329W        W23460   9.346   2.028   2.177 -0.3662 -0.0827 -0.0913
 8330W        W23461  16.188   1.374  11.137  0.0329 -0.4344 -0.0857
 8331W        W23462   5.067  11.924  13.446 -0.0332  0.0441 -0.4885
 8332W        W23463  10.957  12.237  13.729  0.2275 -0.1074 -0.0955
 8333W        W23464   1.216   4.525  15.003 -0.0890  0.1775 -0.3918
 8334W        W23465  14.381  12.469   4.788 -0.1327  0.1428 -0.0364
 8335W        W23466   9.172  15.639  15.155 -0.1600  0.2505  0.4392
 8336W        W23467  10.953   8.359   2.523 -0.0555  0.3008  0.2786
 8337W        W23468   2.653   4.625   0.416  0.0756  0.0037  0.1123
 8338W        W23469   0.383   8.215   2.270 -0.0228 -0.0314 -0.1969
 8339W        W23470  15.214   8.176  11.506 -0.0921  0.0385 -0.0251
 8340W        W23471   6.536  14.237  15.094 -0.0906 -0.3554 -0.2447
 8341W        W23472   0.544   3.892   5.190 -0.0559  0.3168 -0.3452
 8342W        W23473  17.518  14.301  12.968  0.0035  0.1622  0.2475
 8343W        W23474  11.574  16.359  14.686 -0.0258 -0.2432 -0.0797
 8344W        W23475  14.025   0.239   2.738  0.0138 -0.0789 -0.0925
 8345W        W23476  13.526   5.618  12.570 -0.0551  0.0175 -0.0458
 8346W        W23477  12.030   2.223   3.422 -0.2291 -0.0681  0.1124
 8347W        W23478   5.815  17.610   0.226 -0.3005 -0.0541  0.0310
 8348W        W23479   6.284   8.090   4.277 -0.1138 -0.0470  0.3019
 8349W        W23480   6.729  15.012  12.352 -0.1498 -0.0213  0.1238
 8350W        W23481  15.764   1.986   1.569 -0.0621  0.0249  0.1373
 8351W        W23482  14.933  17.655  13.436 -0.4335  0.1055  0.2430
 8352W        W23483   1.242   9.370  13.449  0.1597  0.0558  0.1367
 8353W        W23484   5.108  14.201  12.333  0.2569 -0.2424  0.2826
 8354W        W23485  13.086  14.396   2.404 -0.0100  0.2077 -0.1006
 8355W        W23486   2.007  13.442  14.090 -0.0570 -0.0812 -0.1021
 8356W        W23487  16.833   3.588   4.987 -0.2552  0.0304 -0.1204
 8357W        W23488  15.738   3.929  12.609 -0.0717  0.2036  0.2291
 8358W        W23489   0.169   4.243   5.311 -0.1703  0.0729 -0.0853
 8359W        W23490  11.629  15.875  13.384  0.1507  0.0629  0.0624
 8360W        W23491  16.568  12.525  15.274  0.1953 -0.3919 -0.0768
 8361W        W23492   1.326  11.793  14.470  0.0396 -0.1488 -0.2110
 8362W        W23493  12.117  17.579  15.410 -0.0025  0.0476 -0.0065
 8363W        W23494  13.718   8.735  14.132 -0.1176  0.0722 -0.0694
 8364W        W23495  15.581  13.038   1.125  0.0400  0.5127 -0.1769
 8365W        W23496   2.126   5.447  15.302 -0.2192  0.1012 -0.1541
 8366W        W23497  16.473   1.703  11.526 -0.0324  0.1606  0.0920
 8367W        W23498  15.888  11.491   0.934  0.2416 -0.0133 -0.0320
 8368W        W23499  14.318   2.450  16.020  0.2909  0.1788  0.0534
 8369W        W23500   2.960  18.038  15.064  0.1719 -0.3221 -0.1311
 8370W        W23501   7.976  13.688  10.811 -0.1317  0.4526 -0.0182
 8371W        W23502  18.014   3.932  11.233  0.1113  0.0709 -0.3406
 8372W        W23503  15.718   3.819  15.366  0.0139 -0.0075  0.2268
 8373W        W23504  15.119  11.999  15.064  0.1071 -0.4468 -0.1803
 8374W        W23505   1.122  14.250   4.719  0.2044 -0.0138 -0.1069
 8375W        W23506  10.376   1.504  15.353 -0.2714 -0.0920  0.2405
 8376W        W23507   6.679  16.788  12.996 -0.0964 -0.0535 -0.4870
 8377W        W23508  15.181  12.525  16.365  0.0065  0.0105  0.0750
 8378W        W23509  17.235   2.156   6.010 -0.1712  0.2038  0.1667
 8379W        W23510  12.069   9.760  13.562 -0.2622  0.2233  0.1667
 8380W        W23511  14.343   9.031   3.037  0.1729  0.4411  0.0053
 8381W        W23512   4.899   5.529  11.547  0.0704  0.1326 -0.2503
 8382W        W23513  15.377   6.656   3.198  0.1274  0.3686  0.2161
 8383W        W23514  16.921  11.704   2.319 -0.1617 -0.0154  0.0318
 8384W        W23515   9.386   2.140  12.437 -0.0464 -0.2585  0.0251
 8385W        W23516   7.230   5.695  10.550 -0.0391 -0.0559  0.1729
 8386W        W23517  14.222   6.938   1.660 -0.1325 -0.0216 -0.0753
 8387W        W23518  10.376   7.934  14.453  0.1324 -0.1227 -0.4826
 8388W        W23519   3.827   3.797  14.128  0.1338 -0.1669  0.1198
 8389W        W23520  15.771   9.665  13.308  0.2404 -0.0550 -0.0053
 8390W        W23521   9.790  11.141   4.325 -0.2591 -0.0244  0.0486
 8391W        W23522   0.727  11.558  14.993 -0.1553  0.0997 -0.1351
 8392W        W23523   0.504  11.892  15.781  0.0424 -0.1605 -0.3472
 8393W        W23524  17.489  12.141  15.190  0.3014  0.0088  0.1477
 8394W        W23525   0.458   0.990  14.388 -0.0870 -0.0426  0.1536
 8395W        W23526  17.104  10.577  15.973  0.2617 -0.1356  0.1973
 8396W        W23527  11.585   4.155  11.726 -0.2410  0.1079 -0.0654
 8397W        W23528  16.390   5.155   2.434 -0.0764 -0.1339  0.0190
 8398W        W23529   8.510   7.897   1.156 -0.1072 -0.3908 -0.0824
 8399W        W23530   0.787   3.549   5.761  0.0546  0.1477 -0.1244
 8400W        W23531   3.727  10.398  14.815 -0.0310  0.2907  0.0889
 8401W        W23532  17.840   2.160  13.365  0.1994 -0.1304 -0.0574
 8402W        W23533  17.500   8.955   1.776  0.0705  0.2865 -0.0357
 8403W        W23534   6.629  14.558  15.537  0.0268  0.1082 -0.0332
 8404W        W23535  10.984  15.236   4.581  0.0652 -0.1428  0.0372
 8405W        W23536   8.078  14.189  15.487  0.2049  0.0148  0.1679
 8406W        W23537   0.581  17.944  16.324 -0.0319 -0.1238 -0.0409
 8407W        W23538  17.402  15.417  14.844 -0.4414  0.1139  0.2924
 8408W        W23539  10.946  13.265   3.528  0.0215 -0.1420  0.0133
 8409W        W23540  17.778   2.095  13.863 -0.1492 -0.1572  0.1001
 8410W        W23541  12.158  16.105   1.720  0.1803  0.1274  0.2101
 8411W        W23542  13.124   2.781  14.175 -0.0186 -0.3062 -0.0457
 8412W        W23543  14.344   3.113   5.127  0.0640 -0.1508  0.1876
 8413W        W23544  10.868   6.442  13.640 -0.0990  0.1220 -0.0090
 8414W        W23545  17.262   5.840   0.573 -0.4471  0.4542 -0.3579
 8415W        W23546   5.414  12.813  11.484 -0.0825 -0.1730 -0.0839
 8416W        W23547   9.262   0.878   3.851  0.1446 -0.1946 -0.4139
 8417W        W23548   4.223   7.453  11.274 -0.3873 -0.1730  0.1326
 8418W        W23549   0.534  14.667   2.890 -0.2059 -0.1489  0.0811
 8419W        W23550   6.571  12.104   0.318  0.0605  0.0885 -0.1553
 8420W        W23551   5.949   6.905  11.021  0.0427  0.2568 -0.0105
 8421W        W23552  16.043  12.402   3.496  0.0242  0.1216  0.1557
 8422W        W23553   2.667   5.597  15.276 -0.0865 -0.0430  0.0408
 8423W        W23554   4.273  15.089  16.324 -0.0988 -0.0064  0.3308
 8424W        W23555   5.580   3.128  12.049  0.0810 -0.0935  0.3164
 8425W        W23556  15.760   5.657  11.582 -0.1864 -0.1302  0.2152
 8426W        W23557   5.874   3.839   0.290 -0.0458 -0.0793 -0.3452
 8427W        W23558   6.250  10.074   5.949 -0.0301  0.2368  0.0690
 8428W        W23559   6.181   0.228  12.120 -0.1585  0.0568 -0.2280
 8429W        W23560   3.596  14.194  14.005 -0.0424 -0.1197  0.0049
 8430W        W23561  10.061   5.080  14.421 -0.0316 -0.1037  0.2159
 8431W        W23562   6.449   8.349  13.976 -0.0436 -0.1529 -0.3899
 8432W        W23563   6.319  13.640  15.969  0.0032  0.0029 -0.1348
 8433W        W23564  13.436   1.543   1.056  0.2592 -0.1413  0.1885
 8434W        W23565  15.472   6.106  12.277 -0.4526  0.1470  0.0543
 8435W        W23566  15.615   2.392  11.853 -0.1135 -0.0587  0.0319
 8436W        W23567   4.071   4.103   5.181  0.0113  0.1449  0.0657
 8437W        W23568  16.355  11.284  15.057 -0.1860 -0.1093  0.4476
 8438W        W23569   0.537  12.251   2.944 -0.3471 -0.0715 -0.1566
 8439W        W23570  10.944   9.931  13.647  0.0829 -0.1168 -0.2367
 8440W        W23571  12.892  13.325   6.078 -0.2411 -0.0169 -0.1483
 8441W        W23572   3.335   9.563   4.208  0.0330 -0.1444  0.4336
 8442W        W23573   3.365   6.091   1.979  0.0295 -0.0617 -0.1737
 8443W        W23574   3.506   0.666  12.863  0.0320 -0.2752 -0.0361
 8444W        W23575  13.278  11.738  14.016  0.0757  0.0110  0.0609
 8445W        W23576  13.432   1.028   2.396 -0.1081  0.0024 -0.0496
 8446W        W23577   8.244  13.463   4.067  0.2860 -0.0730 -0.0922
 8447W        W23578   8.684   9.487   5.272 -0.0865  0.0832  0.2272
 8448W        W23579   5.827   6.996   3.850  0.2523  0.0220 -0.0544
 8449W        W23580  10.809  13.803   2.641  0.2119 -0.1334  0.0401
 8450W        W23581  11.233   1.110   3.910 -0.0131  0.0876  0.0493
 8451W        W23582  15.732  11.010   3.713 -0.0494 -0.2123  0.1776
 8452W        W23583  15.693   0.658  11.075 -0.0191  0.1776 -0.0107
 8453W        W23584   9.529   8.426  15.949  0.1449  0.2772  0.4572
 8454W        W23585   3.126   8.469  13.082 -0.0696 -0.3565 -0.0691
 8455W        W23586  14.040  17.802   2.357 -0.1349  0.2644 -0.4767
 8456W        W23587  16.959  13.462   3.378 -0.1826  0.3921 -0.4524
 8457W        W23588   1.558   9.387   2.508 -0.1644  0.2400 -0.0327
 8458W        W23589  13.197   3.143   4.047 -0.4868  0.4276  0.2083
 8459W        W23590   2.402  16.129   0.288 -0.1111  0.0469  0.1402
 8460W        W23591  15.816   2.180  15.536  0.2147 -0.4408  0.1119
 8461W        W23592   1.496   8.000   3.900 -0.1928 -0.0068  0.1047
 8462W        W23593   9.819  17.505  12.203 -0.2833 -0.0917 -0.1234
 8463W        W23594  16.913  11.436  14.124  0.1567  0.1423  0.1603
 8464W        W23595   1.820   4.833   0.551  0.0853 -0.0163  0.0617
 8465W        W23596  10.350   0.775   4.655  0.1738 -0.1100  0.1242
 8466W        W23597   9.384   4.028   1.597 -0.1859  0.0897  0.1330
 8467W        W23598  11.891  12.804  15.235 -0.2794  0.2944 -0.2284
 8468W        W23599   9.226   7.026  12.145  0.2189 -0.0807 -0.0736
 8469W        W23600  13.215   2.868   2.280 -0.2041 -0.2367  0.2329
 8470W        W23601  10.078  16.626   0.515  0.0443 -0.0631 -0.0692
 8471W        W23602   3.791   7.833  12.184  0.4987  0.0930 -0.0527
 8472W        W23603  13.047   7.999   5.363 -0.0200  0.1182  0.1093
 8473W        W23604  11.787   3.889   4.379 -0.2192 -0.0228 -0.0599
 8474W        W23605   8.188   9.039   4.262 -0.0096  0.1013 -0.2511
 8475W        W23606  10.655  17.770  11.216  0.1578 -0.1499 -0.0148
 8476W        W23607  16.023   6.291   2.816  0.2276  0.0391  0.0053
 8477W        W23608  15.174   0.430  15.271 -0.0520  0.0219 -0.1684
 8478W        W23609  17.825  14.032  16.033  0.1150 -0.0390 -0.1760
 8479W        W23610   0.541  17.899  14.665  0.0357  0.1620  0.5213
 8480W        W23611   5.335   1.469  14.108  0.1288  0.0002 -0.1121
 8481W        W23612   4.082  16.415  15.227  0.1571 -0.0521 -0.0281
 8482W        W23613   7.756  14.508  11.542  0.0080 -0.2201  0.1690
 8483W        W23614   8.834   1.498   1.366  0.0113 -0.0472  0.0496
 8484W        W23615  13.742   3.915  11.936  0.1943  0.0892  0.0810
 8485W        W23616   9.717   9.794   4.274  0.2784 -0.0039  0.0769
 8486W        W23617  16.571   6.687  15.622  0.1537 -0.1125 -0.0505
 8487W        W23618  11.371  15.354  13.466 -0.0183 -0.0703  0.1364
 8488W        W23619  15.309   4.204   5.946  0.0104  0.2392  0.3481
 8489W        W23620  15.284   2.516   1.037 -0.0245 -0.2160  0.1031
 8490W        W23621  13.433  12.431   3.958  0.0340  0.0465  0.0813
 8491W        W23622   9.702   4.559   1.352  0.1246 -0.1569 -0.2065
 8492W        W23623  17.520   6.251   4.164 -0.3020  0.1187 -0.0594
 8493W        W23624   7.998   7.819  14.407  0.3349  0.2755 -0.3277
 8494W        W23625   7.508   7.600  13.747  0.0342  0.0630  0.0089
 8495W        W23626   6.011  17.878   3.206 -0.0083 -0.2628 -0.0140
 8496W        W23627  11.523   7.783  15.699 -0.1963 -0.0535  0.0692
 8497W        W23628   1.669   3.073   0.949  0.1558 -0.2067 -0.3416
 8498W        W23629  10.612  15.057  11.375 -0.0986  0.1719 -0.0929
 8499W        W23630  16.401   5.514  12.058 -0.0924 -0.0308  0.2879
 8500W        W23631   3.775  15.963   2.565 -0.0418 -0.3016  0.1035
 8501W        W23632  10.099   4.374  13.111 -0.0367 -0.2057  0.1295
 8502W        W23633   2.513   8.189  11.401  0.1223 -0.0884  0.1495
 8503W        W23634  17.670  11.459   0.372 -0.0979 -0.0713  0.2415
 8504W        W23635   9.471   6.007  13.486  0.1211 -0.1621 -0.1455
 8505W        W23636  12.519   2.232   4.360 -0.1513  0.2259 -0.1716
 8506W        W23637   9.718   1.499  13.988  0.1455  0.1919  0.0182
 8507W        W23638   1.127  17.783   1.059 -0.2015 -0.1531 -0.2130
 8508W        W23639   9.847  16.218  12.309  0.1838  0.1523  0.0025
 8509W        W23640   5.661  16.556   5.050  0.0814 -0.0336  0.1720
 8510W        W23641  13.062  15.936   2.868  0.0895 -0.1983  0.1516
 8511W        W23642  16.972  15.873  13.046 -0.0544  0.1749 -0.2630
 8512W        W23643  15.264  16.815   5.901 -0.0989 -0.4353 -0.1854
 8513W        W23644   8.503  13.399   5.755 -0.0611 -0.0696  0.5199
 8514W        W23645  17.016   6.118  11.462  0.2301  0.0400 -0.2496
 8515W        W23646  17.434   2.662   4.845  0.1116 -0.0123 -0.0538
 8516W        W23647   2.997   3.031   3.536  0.2788  0.0232 -0.3438
 8517W        W23648   9.483   8.889   1.618 -0.0917  0.0276 -0.3718
 8518W        W23649   6.475  12.058  16.106 -0.2197 -0.2040  0.1740
 8519W        W23650   9.302   3.625  15.505 -0.0544  0.0704 -0.1709
 8520W        W23651  14.056  15.246  13.406  0.0382 -0.3561 -0.0078
 8521W        W23652  17.298   3.508   5.192 -0.1541 -0.0956  0.1915
 8522W        W23653   7.010   2.866   0.239 -0.0174 -0.1426  0.0925
 8523W        W23654   0.965   4.237   5.423  0.0472  0.3173 -0.0792
 8524W        W23655   0.318  15.962  12.936 -0.3640 -0.1942 -0.0711
 8525W        W23656  17.133   2.911   6.138  0.1104 -0.2002  0.0636
 8526W        W23657   9.075  17.963  11.246  0.2189 -0.0365 -0.1447
 8527W        W23658   5.665   7.228  13.994  0.2234  0.1590  0.1035
 8528W        W23659   6.260  14.451  13.838 -0.2133 -0.1622  0.2286
 8529W        W23660   5.639   0.379  15.630 -0.3697 -0.2323  0.1751
 8530W        W23661   6.092  16.950   4.872 -0.0506 -0.1500  0.2852
 8531W        W23662  10.895  15.128   5.069  0.1928 -0.0393 -0.1866
 8532W        W23663   7.231  13.818   5.959  0.0013 -0.0026 -0.1424
 8533W        W23664  16.661   4.231  12.971  0.3407 -0.0625  0.2759
 8534W        W23665   8.412   0.285   3.229  0.0347  0.1540 -0.0146
 8535W        W23666  10.368  13.331   0.313  0.0844  0.3204 -0.0281
 8536W        W23667  10.119  11.141   1.585 -0.1428  0.0443  0.0228
 8537W        W23668   4.647   5.759  16.116  0.0113  0.1797 -0.2422
 8538W        W23669  16.386  15.502   3.923  0.0847  0.2624 -0.0837
 8539W        W23670   2.029   1.306   3.091 -0.1473 -0.4073 -0.1628
 8540W        W23671  11.697  13.181   5.048  0.1393  0.0908  0.0207
 8541W        W23672   7.353  17.650   2.694 -0.2927 -0.0989  0.0674
 8542W        W23673  14.233  10.676  11.736  0.1568  0.0734 -0.1221
 8543W        W23674  10.613   3.592   1.551  0.0851 -0.1101  0.0811
 8544W        W23675   8.244   0.172  12.024 -0.1557 -0.0347  0.0104
 8545W        W23676   7.627   6.748   0.161  0.0153 -0.0147  0.3600
 8546W        W23677  14.989   9.164   5.348 -0.2008  0.0003  0.0409
 8547W        W23678  12.856  15.602   2.140 -0.1650 -0.0818  0.0666
 8548W        W23679  11.388  18.068   1.960  0.0719  0.3649 -0.0341
 8549W        W23680   1.968  14.574  11.910 -0.0883  0.0474  0.1322
 8550W        W23681   6.894   3.444  11.057  0.0074 -0.0607 -0.1415
 8551W        W23682   5.413   7.044  13.635  0.0477  0.1037  0.4464
 8552W        W23683   7.722  14.591   3.980  0.1202 -0.0998  0.1866
 8553W        W23684   3.216   8.096   0.829 -0.2220  0.1107 -0.0419
 8554W        W23685   4.244   7.976  14.726 -0.2862 -0.0357 -0.0792
 8555W        W23686   9.506  12.173  11.671  0.2364  0.0581  0.0707
 8556W        W23687   3.194  16.524   5.374  0.1299 -0.0683  0.0852
 8557W        W23688  12.280   1.865   3.005  0.4900 -0.1045  0.0299
 8558W        W23689  17.690   1.224  15.460  0.0330 -0.3790  0.2545
 8559W        W23690   8.596   8.910  11.340 -0.2800  0.0417  0.0126
 8560W        W23691   4.268  13.698  12.305 -0.0037  0.2042 -0.1728
 8561W        W23692   3.552   5.197   0.858 -0.1750  0.1181  0.2393
 8562W        W23693   7.867  12.491   2.833  0.1055  0.2001  0.1944
 8563W        W23694   7.286   9.771   3.300 -0.1290 -0.0067 -0.2847
 8564W        W23695  15.206   2.979  11.596  0.0668  0.1539  0.0175
 8565W        W23696   7.597   3.467  15.329  0.0744  0.0244 -0.5013
 8566W        W23697  10.614  11.496  14.057  0.0677 -0.0953  0.2500
 8567W        W23698   2.831  17.044  14.760  0.0251 -0.1606  0.2111
 8568W        W23699   4.413   9.757   2.051 -0.3005  0.1498  0.1819
 8569W        W23700   5.833   1.480  14.323  0.2884  0.1908  0.2928
 8570W        W23701   8.386   5.492   3.295  0.0329  0.2361  0.0946
 8571W        W23702  14.541   9.638   2.138  0.1692 -0.0313 -0.2074
 8572W        W23703   0.975   5.367  15.450  0.1371 -0.0638 -0.1220
 8573W        W23704   4.914  10.967  15.281  0.1215  0.0175  0.0020
 8574W        W23705  16.795  12.133   3.297 -0.0801 -0.1561 -0.1155
 8575W        W23706   0.626  15.214  12.860  0.1116 -0.2007  0.1189
 8576W        W23707   0.546   7.741  15.203  0.3171  0.1682 -0.0653
 8577W        W23708   9.061   4.761  10.876 -0.0897 -0.5783  0.0465
 8578W        W23709  11.659  12.642  10.391 -0.0992 -0.1353  0.2340
 8579W        W23710   1.892  11.191   2.264 -0.0440 -0.3319 -0.3889
 8580W        W23711  12.306   9.131   1.705 -0.2645 -0.0228 -0.3527
 8581W        W23712   5.375  11.350   0.043 -0.2032 -0.1383 -0.0515
 8582W        W23713  15.023   5.329   5.010  0.0077  0.0288 -0.0274
 8583W        W23714   0.238   3.562   1.433 -0.3378 -0.0680  0.1402
 8584W        W23715   4.358  10.295   0.552  0.0240 -0.0153  0.1788
 8585W        W23716   6.014  13.662  16.382 -0.0554 -0.2217  0.2375
 8586W        W23717   8.374  15.594  14.783 -0.1211 -0.0876 -0.0564
 8587W        W23718   8.029  14.978   4.273  0.0618 -0.0386 -0.3067
 8588W        W23719   9.014  13.174   3.857 -0.0773 -0.1934  0.2527
 8589W        W23720   0.447  10.874   2.025  0.0725  0.0714 -0.1606
 8590W        W23721   0.191   1.702   1.760  0.0861  0.0499  0.3893
 8591W        W23722  12.776   4.126  14.063 -0.2526 -0.0848  0.0780
 8592W        W23723   2.671   6.200   3.436  0.2906  0.2841 -0.0095
 8593W        W23724   6.388  17.392  14.382  0.1235 -0.0290 -0.1909
 8594W        W23725  14.733  14.899   1.506  0.0880 -0.2657 -0.1083
 8595W        W23726  17.260   4.358  13.202 -0.0464  0.0469 -0.1050
 8596W        W23727   2.534   1.579  15.639  0.1284  0.1034  0.3057
 8597W        W23728  10.370   7.686  14.009 -0.0478  0.0556 -0.1227
 8598W        W23729   4.372   3.430   4.714  0.1490 -0.2147 -0.1827
 8599W        W23730   6.158  11.487  13.081 -0.0810  0.3400 -0.3905
 8600W        W23731   5.697   0.558  13.398 -0.2317  0.2524 -0.0086
 8601W        W23732  11.824  16.906   3.973 -0.0464  0.3413 -0.1968
 8602W        W23733  14.269   0.148  12.731  0.0122 -0.2039 -0.1682
 8603W        W23734   5.254  13.689   1.356  0.0748 -0.0229  0.1642
 8604W        W23735  10.844   0.483   4.622  0.0916 -0.1991 -0.1394
 8605W        W23736  15.468  11.079   5.435  0.0597  0.1555 -0.3002
 8606W        W23737  15.272   6.356   4.296 -0.1445 -0.0132  0.0829
 8607W        W23738   3.508   0.671  11.689 -0.4050  0.2800  0.0515
 8608W        W23739  16.407  15.986  14.333  0.1388  0.1795  0.1836
 8609W        W23740  12.666   5.945   1.999 -0.2613  0.0918 -0.1723
 8610W        W23741  13.021  17.551   3.981 -0.2304 -0.2284  0.0397
 8611W        W23742   1.557   0.434   3.278 -0.2658  0.1031 -0.3153
 8612W        W23743   3.412  14.788  12.988  0.1475  0.3059  0.2315
 8613W        W23744   6.027  10.481  13.977  0.0540 -0.0914  0.1338
 8614W        W23745  12.004   8.066  14.008 -0.0671  0.1694  0.0934
 8615W        W23746   9.963  16.924  14.121  0.2828  0.0038  0.1637
 8616W        W23747  13.570  12.848   2.472  0.2319 -0.2419 -0.0086
 8617W        W23748   2.427  10.468   4.587  0.0683 -0.1143  0.2719
 8618W        W23749   7.066   3.991  11.853 -0.2893 -0.1610  0.0009
 8619W        W23750  14.818   2.673  12.192 -0.1762  0.0466 -0.1446
 8620W        W23751   4.554  11.810  10.529 -0.0535  0.3290 -0.0357
 8621W        W23752  12.088   4.534  12.950 -0.2831  0.0612 -0.4510
 8622W        W23753  15.747   0.852  12.849 -0.3421  0.0426  0.1909
 8623W        W23754  15.764   2.281  14.746  0.3131  0.1300 -0.0427
 8624W        W23755  11.123   0.977  15.053  0.0116  0.1490  0.0412
 8625W        W23756   5.796  15.373   0.863 -0.1624  0.1738 -0.0876
 8626W        W23757  15.408   6.599   0.265  0.2652 -0.1618  0.2021
 8627W        W23758  10.059  17.078   0.637  0.2850 -0.0412  0.2219
 8628W        W23759   7.285   8.103   2.808  0.1603 -0.0173 -0.3829
 8629W        W23760   2.623   9.526  12.835  0.3625 -0.1449 -0.3168
 8630W        W23761   8.107  13.476   2.014  0.0827 -0.3295 -0.0161
 8631W        W23762   9.465   0.766  12.204 -0.0713  0.4157  0.1890
 8632W        W23763  12.804   1.043  13.303 -0.0965 -0.1575  0.1481
 8633W        W23764  12.346  13.182  13.455 -0.3436  0.1214 -0.0149
 8634W        W23765  10.680   5.538   2.256  0.0947  0.2865  0.0398
 8635W        W23766   5.762  10.051   0.892  0.0290  0.0543  0.0637
 8636W        W23767   6.547  12.305  13.538 -0.0075 -0.0012 -0.0295
 8637W        W23768  14.938   4.320   3.735 -0.0120 -0.1292 -0.1902
 8638W        W23769   0.684   2.726   3.106 -0.1894 -0.1055 -0.4829
 8639W        W23770  10.772   5.788   3.297  0.0868 -0.0596 -0.2441
 8640W        W23771   7.594   3.386  16.313 -0.0602 -0.0964 -0.0439
 8641W        W23772   3.634  16.235   2.170  0.0762  0.2619  0.0604
 8642W        W23773   2.884  16.696   3.436 -0.0895  0.1921 -0.2620
 8643W        W23774   4.705  17.021   1.004 -0.0257  0.1732  0.0002
 8644W        W23775  16.919   2.849   0.525 -0.1363 -0.2416  0.0408
 8645W        W23776   3.644  10.520   0.457 -0.1093  0.4817  0.1965
 8646W        W23777   7.468   5.646  15.760  0.0419 -0.2078 -0.0941
 8647W        W23778   2.468  10.587   1.282  0.1624  0.1563 -0.0499
 8648W        W23779  15.535  13.746   2.385 -0.3970  0.0330 -0.2087
 8649W        W23780  18.022   4.061   3.795  0.2347 -0.0698  0.3234
 8650W        W23781  10.770  10.332  15.345 -0.4100 -0.1468 -0.2028
 8651W        W23782  14.659  17.839   1.018  0.2900  0.0506  0.1838
 8652W        W23783   2.789   3.134  12.433  0.0754 -0.3597  0.2133
 8653W        W23784   9.082   7.937  14.563 -0.0169 -0.0558 -0.0104
 8654W        W23785  10.640  16.074   5.659 -0.0836 -0.3142 -0.0696
 8655W        W23786  14.107   9.749   1.008 -0.2470 -0.1234 -0.1522
 8656W        W23787   9.189  13.221   5.094  0.1240 -0.1194 -0.2459
 8657W        W23788   3.709  11.556   2.509  0.1498  0.2502 -0.2890
 8658W        W23789   8.284   3.512   3.839  0.0419  0.0829  0.0536
 8659W        W23790   8.158  16.136   2.319  0.0277 -0.1058 -0.2102
 8660W        W23791  12.208  11.865  13.125  0.0026  0.0756 -0.3483
 8661W        W23792  12.184   4.207  13.329  0.0456  0.0639 -0.1037
 8662W        W23793   9.106  14.201  13.005  0.2544  0.3694 -0.0722
 8663W        W23794   4.914  10.794   2.989 -0.2143  0.0155  0.0300
 8664W        W23795  11.321  11.620   2.954  0.3142 -0.2665 -0.2970
 8665W        W23796  12.172  11.182  11.810  0.1185 -0.0632  0.0617
 8666W        W23797  13.647   1.139   0.311 -0.3779  0.2581  0.0891
 8667W        W23798  12.224   6.656  15.993  0.2571  0.0366 -0.3765
 8668W        W23799   8.913   7.991  16.030  0.2696  0.0648  0.0406
 8669W        W23800  10.254   5.023   1.547 -0.1454 -0.1051  0.0400
 8670W        W23801  12.027  17.087   4.860 -0.0579  0.1175  0.0331
 8671W        W23802  15.513   1.630  14.971 -0.0770  0.0381  0.1111
 8672W        W23803  15.893  13.865  15.444 -0.2104 -0.3019  0.0410
 8673W        W23804  12.126   2.520   4.087 -0.1564  0.0188 -0.2265
 8674W        W23805  16.404  15.675   2.043  0.1570 -0.2835 -0.2392
 8675W        W23806   2.532   0.486  11.694 -0.4119 -0.0488  0.1786
 8676W        W23807  17.307   1.163   3.818 -0.0693 -0.3535 -0.1287
 8677W        W23808  16.956   6.414   1.099 -0.0308 -0.1447 -0.1193
 8678W        W23809   8.455   9.598  10.755 -0.0211 -0.1894  0.1457
 8679W        W23810   6.933   2.667  10.392 -0.1382  0.0452  0.1760
 8680W        W23811  11.778  10.850  14.028  0.0693 -0.1558  0.1563
 8681W        W23812   4.366   9.934  14.504  0.3418 -0.2677 -0.1825
 8682W        W23813   0.794  17.955  12.685 -0.0245  0.0101 -0.0499
 8683W        W23814   2.271   8.324  13.564 -0.1347  0.1758  0.0128
 8684W        W23815  10.218  15.626   0.613 -0.0500  0.1838 -0.2369
 8685W        W23816  17.470   9.734  12.375  0.2753  0.2869  0.1403
 8686W        W23817  16.662   4.717   4.237  0.0250  0.1394 -0.1292
 8687W        W23818   8.061  12.280  11.880 -0.2906 -0.2129  0.2521
 8688W        W23819   9.515  16.850   5.303  0.2177  0.1240 -0.2467
 8689W        W23820   6.543  11.287   0.594 -0.0849 -0.1095  0.1762
 8690W        W23821   1.508   7.257  16.338  0.1526 -0.3066 -0.1614
 8691W        W23822  16.575   3.688  11.584 -0.3473 -0.1002 -0.0471
 8692W        W23823  14.808   1.487   2.404  0.1302 -0.1469 -0.4467
 8693W        W23824  13.656  13.280  16.390 -0.4282  0.0857 -0.0105
 8694W        W23825   4.007  16.290   1.532 -0.0254  0.0068 -0.0822
 8695W        W23826   2.382  12.197  16.191  0.1099  0.2160 -0.1273
 8696W        W23827  14.644  14.380   5.384  0.0966 -0.1484 -0.1225
 8697W        W23828  15.791  15.953  13.116 -0.2979  0.1164 -0.2905
 8698W        W23829   0.378   3.512   0.732 -0.1141  0.2117  0.0089
 8699W        W23830  11.162  13.696  10.958 -0.3357  0.1017 -0.0882
 8700W        W23831  13.147   0.567  14.174  0.0154 -0.1809  0.1013
 8701W        W23832  17.681  11.178   1.900 -0.0332  0.0222 -0.2775
 8702W        W23833  10.343   9.532   2.709  0.3454  0.0338 -0.0422
 8703W        W23834  10.939   7.146  10.509 -0.2260  0.0764  0.0458
 8704W        W23835   9.323   6.595   1.900 -0.0297  0.0919 -0.0607
 8705W        W23836  12.393   2.881  12.341 -0.1279  0.3517  0.3790
 8706W        W23837   2.193   9.799  11.835 -0.1502  0.2231  0.0235
 8707W        W23838  13.769  15.076  16.353  0.2022 -0.0967  0.1566
 8708W        W23839   2.999  13.423  14.327  0.0861 -0.0321 -0.3592
 8709W        W23840  12.023   6.166   2.991 -0.1730 -0.2039  0.0529
 8710W        W23841   2.436   0.529  14.451 -0.1507  0.4140  0.2284
 8711W        W23842  10.441   1.004  15.442  0.0185 -0.1978 -0.2440
 8712W        W23843   5.585   8.637  15.442 -0.1409  0.1307 -0.3758
 8713W        W23844  11.120  18.019  13.017  0.1926 -0.2791  0.0004
 8714W        W23845   1.761  14.456  13.537  0.1374 -0.0176  0.0024
 8715W        W23846  13.206   8.831  13.953  0.2718  0.0480 -0.1234
 8716W        W23847   8.173  13.233   5.273  0.3418  0.1619 -0.3055
 8717W        W23848   2.711  12.747  16.459 -0.3348  0.0276  0.1372
 8718W        W23849  16.415   2.047   1.871 -0.1478 -0.2227 -0.1216
 8719W        W23850   4.332   9.088   0.551 -0.2929 -0.1322 -0.0289
 8720W        W23851   6.295  13.813   3.697 -0.3184  0.1285  0.0240
 8721W        W23852  14.411   8.455   6.262  0.1290  0.1849  0.0384
 8722W        W23853   2.431   8.191  14.198  0.1257  0.0632 -0.1036
 8723W        W23854   7.963  15.010   0.065 -0.2704 -0.0806  0.0882
 8724W        W23855  12.144   9.283   5.423 -0.2922 -0.1945 -0.0223
 8725W        W23856  13.940  10.548  15.501  0.1262 -0.1577  0.0577
 8726W        W23857   4.342   8.561  13.413 -0.1197  0.0464 -0.1526
 8727W        W23858  10.733   1.751  16.400 -0.1681  0.0250  0.2497
 8728W        W23859   0.421   0.467   5.310 -0.2686  0.0030  0.0360
 8729W        W23860  11.323  12.161  14.142  0.0206 -0.1621  0.0919
 8730W        W23861   8.482   4.586  14.747 -0.4080  0.2374  0.2652
 8731W        W23862   0.187  17.793   2.296 -0.3008 -0.3403 -0.3497
 8732W        W23863  13.736  15.537  16.193 -0.2507  0.0097  0.3299
 8733W        W23864   0.882   5.526   4.717 -0.1220 -0.0452  0.2056
 8734W        W23865   6.050   4.784  15.986 -0.1316  0.0809  0.0584
 8735W        W23866   8.132   6.925  14.771 -0.1380 -0.0745 -0.1807
 8736W        W23867   8.764  16.277  12.220  0.0713 -0.0971  0.2758
 8737W        W23868  17.500   4.243  12.616 -0.1954 -0.0377  0.1932
 8738W        W23869  16.314   5.415   4.396  0.1321 -0.2223  0.0892
 8739W        W23870   0.625  13.709   2.803  0.0502  0.0981 -0.0332
 8740W        W23871  14.124  16.084   2.044 -0.3605  0.2872  0.1430
 8741W        W23872   4.458  14.309  16.155  0.0477  0.0905  0.2163
 8742W        W23873  12.377   3.093  16.097 -0.1971  0.2461  0.0485
 8743W        W23874   4.722  10.274   3.901  0.1906 -0.2580  0.1814
 8744W        W23875   7.328   3.469   2.540  0.1507  0.2748 -0.2437
 8745W        W23876   2.633  13.523   5.233 -0.0137  0.2879  0.2234
 8746W        W23877   1.357   5.463   1.521 -0.2472 -0.1957  0.0708
 8747W        W23878   6.353   0.282   3.786 -0.3245 -0.0982 -0.0746
 8748W        W23879  11.338  14.549  14.539  0.1104 -0.0665 -0.1084
 8749W        W23880   9.580  13.393   2.581  0.0271 -0.0572 -0.2045
 8750W        W23881   1.732  15.917   1.495  0.0376 -0.1222  0.1993
 8751W        W23882  15.047  15.321  14.372 -0.0579  0.1608 -0.2500
 8752W        W23883  14.923  12.538   4.051 -0.0241 -0.0697 -0.0392
 8753W        W23884  12.900   2.085   4.059 -0.1243  0.1061  0.1770
 8754W        W23885   3.500   3.556   2.972 -0.0311 -0.2365 -0.2271
 8755W        W23886   3.484   8.099   0.004  0.0261  0.0682 -0.1785
 8756W        W23887   9.117   3.147   0.400 -0.1701 -0.0832  0.1611
 8757W        W23888   2.142   3.458  16.207 -0.0956 -0.0934 -0.0925
 8758W        W23889   9.667  17.988  12.246  0.3647  0.2043 -0.0277
 8759W        W23890  16.690   6.031  16.274  0.0687  0.1796  0.1780
 8760W        W23891  13.397   5.236  13.262 -0.1336 -0.2417 -0.2522
 8761W        W23892  17.509  15.207  11.995  0.0726  0.1555 -0.1339
 8762W        W23893  16.772  12.306   4.520  0.3272  0.1712  0.2496
 8763W        W23894   2.499  12.997   5.242  0.0795 -0.2169 -0.2075
 8764W        W23895   3.443  11.282  15.896 -0.1531 -0.2063  0.1598
 8765W        W23896   7.609  13.410   1.312 -0.0791 -0.1995 -0.2493
 8766W        W23897  12.649  14.133  12.326 -0.1159 -0.1198  0.4468
 8767W        W23898   3.282   6.695   1.332 -0.1459  0.1790 -0.3722
 8768W        W23899   5.876  16.433   0.958 -0.0945 -0.1522  0.1837
 8769W        W23900   6.865   4.605   3.868 -0.1561  0.0155 -0.3193
 8770W        W23901  14.465   9.654   0.376 -0.0365  0.1059  0.0857
 8771W        W23902   6.781  10.647   3.673  0.1828 -0.1768  0.3547
 8772W        W23903  11.754   7.295  13.197  0.1996  0.0376 -0.0315
 8773W        W23904   3.759   0.379   4.503 -0.3945  0.1447 -0.0231
 8774W        W23905   0.819   5.684  14.014 -0.4103 -0.1094  0.1742
 8775W        W23906   3.094  10.183  16.249  0.1431 -0.0493  0.2552
 8776W        W23907   3.686  13.716   2.852 -0.2266  0.1409  0.1019
 8777W        W23908   0.615   1.777   2.861  0.0402 -0.1201 -0.0065
 8778W        W23909  13.419   4.371   5.166 -0.1213 -0.2072  0.0902
 8779W        W23910  13.183   6.742  16.126 -0.1827  0.1489 -0.0342
 8780W        W23911  17.484   0.500   4.415  0.1061  0.0392  0.0731
 8781W        W23912  15.520   5.159   1.231 -0.0240 -0.1129  0.1773
 8782W        W23913   0.010  11.260   0.075  0.3118  0.0064 -0.2931
 8783W        W23914  15.332  12.620   3.799  0.1372 -0.0902 -0.1065
 8784W        W23915   0.005   5.599   4.839 -0.0393 -0.2283  0.2281
 8785W        W23916  10.125   9.449   0.695 -0.2748 -0.1209  0.2185
 8786W        W23917   0.231   4.248   1.844 -0.0497 -0.0422 -0.0990
 8787W        W23918  15.240   1.635   2.334  0.2589 -0.2970 -0.1678
 8788W        W23919   7.726  16.750   0.747 -0.0495  0.1331  0.2638
 8789W        W23920  12.775   5.755  14.370 -0.0855 -0.0853 -0.1894
 8790W        W23921   0.369   7.774   2.493  0.1561  0.0926 -0.1381
 8791W        W23922  14.765   8.495   1.739  0.1638 -0.0032 -0.1578
 8792W        W23923  16.463  16.479  14.398 -0.0557 -0.2630 -0.2156
 8793W        W23924  15.694  15.727   1.696  0.1397 -0.0852  0.1100
 8794W        W23925  12.192   1.686   4.561  0.1752 -0.0187 -0.2114
 8795W        W23926  10.206  11.708  11.963 -0.1009 -0.2240  0.0536
 8796W        W23927   4.363  12.632  12.307  0.0341 -0.0085  0.1524
 8797W        W23928  15.032   3.082  15.526 -0.1332 -0.1722  0.0420
 8798W        W23929  17.696   8.250   2.772 -0.1932 -0.1849  0.0423
 8799W        W23930   2.555  13.058   0.904 -0.2839  0.2280  0.2191
 8800W        W23931   5.334   5.240  11.546  0.0391  0.0033  0.1720
 8801W        W23932   2.688   9.688  16.267 -0.0787  0.1318 -0.0338
 8802W        W23933  18.014  13.843  14.885 -0.3751  0.2211  0.1713
 8803W        W23934   5.492   7.182   5.136  0.1104  0.1523 -0.2054
 8804W        W23935   9.541   7.022   1.822  0.0848  0.0741 -0.0832
 8805W        W23936  16.910   1.631  14.194 -0.3098 -0.3153  0.1373
 8806W        W23937   2.469   5.121  12.710 -0.0224  0.2574 -0.2232
 8807W        W23938   5.078  10.350  10.514  0.1483  0.2721  0.0529
 8808W        W23939   4.033   7.081  14.591  0.0896  0.0285  0.1256
 8809W        W23940  16.948  13.154  16.416  0.1942 -0.1498  0.1259
 8810W        W23941   7.124  11.416  13.386  0.0856 -0.2278 -0.3623
 8811W        W23942  13.682   6.799  14.508  0.1221 -0.2889 -0.2887
 8812W        W23943   1.140   3.024   0.978  0.1454 -0.1856  0.1425
 8813W        W23944   9.412   8.852   3.550 -0.1980  0.0631 -0.4945
 8814W        W23945  17.461  10.965  15.388  0.0237  0.1999 -0.1426
 8815W        W23946  14.046  14.400  13.539  0.1939 -0.1978  0.0030
 8816W        W23947  10.732  14.621   0.098 -0.2069 -0.4024 -0.0670
 8817W        W23948   7.544  17.690  13.783 -0.3682  0.0356  0.1539
 8818W        W23949  10.002   7.343  13.797  0.3027  0.0391 -0.2901
 8819W        W23950  17.036   0.841  14.312 -0.0350 -0.0742 -0.0913
 8820W        W23951  16.818  11.713   1.362 -0.0182  0.1829  0.0715
 8821W        W23952  11.136  15.924   2.850  0.2107  0.1099 -0.0489
 8822W        W23953   1.375   5.920   5.415 -0.0226  0.2006  0.3951
 8823W        W23954   0.674  12.844   4.443  0.3285 -0.2649 -0.1771
 8824W        W23955   7.615   7.245   5.333 -0.1080 -0.1260 -0.0762
 8825W        W23956   2.385   4.269   3.744  0.0296 -0.2887  0.1264
 8826W        W23957  17.282   6.197  12.355  0.3357  0.0340  0.0324
 8827W        W23958  17.131  11.109  11.152 -0.1757  0.1016  0.0083
 8828W        W23959  14.064   2.186  12.240 -0.0486 -0.1931  0.0049
 8829W        W23960  11.510   1.772   0.335  0.0420 -0.2894 -0.1666
 8830W        W23961   2.328   4.054  13.873 -0.1733 -0.1401  0.2112
 8831W        W23962  10.337   6.601  11.771  0.1130  0.2389 -0.1322
 8832W        W23963   8.596   1.257  11.590 -0.0394 -0.3172 -0.1801
 8833W        W23964  10.920  17.167  13.804  0.1121  0.0763 -0.0885
 8834W        W23965   3.482  16.034  10.912  0.1903 -0.1454  0.2633
 8835W        W23966   0.734   1.670  16.422 -0.4239 -0.0173  0.2417
 8836W        W23967   9.721   8.880  15.826  0.0772 -0.1158  0.1573
 8837W        W23968   5.342   5.992   1.111  0.0570 -0.0781 -0.1895
 8838W        W23969  14.294  13.529  15.478  0.0270 -0.3097  0.0118
 8839W        W23970  11.871   1.953   5.101  0.0061  0.4105  0.1600
 8840W        W23971  17.219   8.111  14.135 -0.0717  0.3059 -0.2393
 8841W        W23972  17.291  11.643  12.147 -0.0919 -0.1915 -0.0138
 8842W        W23973  17.269   0.707   3.402 -0.1784 -0.0635 -0.1075
 8843W        W23974  17.095   6.529  14.218  0.1159 -0.1711  0.2015
 8844W        W23975  13.254  13.450  15.510 -0.0726 -0.0444  0.1959
 8845W        W23976  13.239  16.343  16.334  0.2360 -0.3149  0.3511
 8846W        W23977   0.587   9.643  16.067  0.1327 -0.2929  0.0220
 8847W        W23978   7.397   8.354  11.796 -0.0678  0.1247 -0.0685
 8848W        W23979  13.297   5.943  12.091 -0.4028  0.0679  0.0185
 8849W        W23980  11.694   2.158   2.970 -0.2389 -0.0254  0.2135
 8850W        W23981  16.834   6.485  16.168  0.0805 -0.1324 -0.1925
 8851W        W23982  12.936  15.640  12.913 -0.0700 -0.3948  0.0650
 8852W        W23983  13.010  15.532  13.518 -0.1529  0.1145  0.0071
 8853W        W23984   2.988   0.423  11.606  0.1431  0.5094  0.1655
 8854W        W23985   8.073   4.281  16.257  0.2106  0.0909 -0.0622
 8855W        W23986   0.383   0.399  15.468  0.0320  0.1924 -0.0577
 8856W        W23987   7.276  11.905  13.000 -0.1046  0.0235  0.0379
 8857W        W23988   0.684   0.221  13.345  0.1474 -0.2237  0.2220
 8858W        W23989  13.154   5.345   4.164 -0.0547  0.0259  0.0447
 8859W        W23990   8.822   7.856   4.542 -0.2848  0.1125 -0.2738
 8860W        W23991  16.473  10.510   2.086 -0.2359 -0.0624  0.0786
 8861W        W23992   2.909   4.096  15.542 -0.0934 -0.1341  0.4801
 8862W        W23993   5.872   2.144   3.173  0.0518  0.4486  0.1479
 8863W        W23994  11.637   1.183   2.425  0.1547  0.0534 -0.2243
 8864W        W23995  15.929   4.394  12.728 -0.2107  0.2792  0.0027
 8865W        W23996   0.828  14.946  11.856  0.2824 -0.2152 -0.0925
 8866W        W23997   7.942  14.131   0.484 -0.0853  0.1151  0.2284
 8867W        W23998   5.091  17.910   4.826 -0.1520 -0.0695  0.1103
 8868W        W23999  17.725  11.855  11.116 -0.2492  0.1015  0.1395
 8869W        W24000  16.327  12.412  15.758 -0.0818 -0.2510 -0.1499
 8870W        W24001   4.993  12.516   1.974  0.0737  0.2240  0.2400
 8871W        W24002   6.247  15.810  15.830  0.2470  0.1777  0.6520
 8872W        W24003   0.943   7.760   3.531  0.1001 -0.4035  0.1468
 8873W        W24004  12.894   4.990   5.018  0.2041  0.0638  0.0326
 8874W        W24005  10.291  17.508   2.309  0.3086  0.1694  0.0058
 8875W        W24006  18.062  17.000   2.363  0.0529 -0.0433 -0.1760
 8876W        W24007   2.012   3.475   5.504  0.0119 -0.0966 -0.0469
 8877W        W24008   9.628   3.242   2.085  0.0618 -0.1611 -0.2213
 8878W        W24009  12.293   9.816   3.653 -0.0951 -0.0562 -0.0663
 8879W        W24010   9.096  14.720   0.685 -0.2445 -0.4384  0.1041
 8880W        W24011   8.053  12.914  13.866 -0.0591 -0.2289 -0.4214
 8881W        W24012  17.669   7.858   5.627 -0.1153  0.2255  0.0707
 8882W        W24013   3.299  13.844   0.533  0.2028 -0.3230 -0.1378
 8883W        W24014   0.660  16.626   2.760  0.1023 -0.0343  0.0990
 8884W        W24015  11.574  13.161  12.530 -0.4152  0.1925  0.0614
 8885W        W24016   1.604  10.876   5.953 -0.1059 -0.0246 -0.1611
 8886W        W24017   1.536   4.741   4.948 -0.0686 -0.0786 -0.0804
 8887W        W24018   6.935   2.200   2.221 -0.1533  0.1594  0.2503
 8888W        W24019   3.129   3.159  13.221 -0.0888 -0.0678 -0.0383
 8889W        W24020   5.567   4.622  13.391  0.1217  0.2749 -0.0604
 8890W        W24021  17.570  12.231  13.906 -0.1617 -0.1795  0.0773
 8891W        W24022   9.784  17.655  12.687 -0.2164 -0.1166  0.2291
 8892W        W24023   7.105  15.125  12.888  0.0223  0.1700  0.1434
 8893W        W24024  15.690  12.694   5.842 -0.1705  0.3400 -0.1614
 8894W        W24025   6.993   1.306  11.510  0.1819  0.0119  0.1874
 8895W        W24026  15.314   5.891  15.317  0.0102  0.2481 -0.1050
 8896W        W24027   8.148   5.494   5.169  0.0817  0.0916  0.1771
 8897W        W24028   2.926   8.985   0.537  0.2084  0.1940  0.0660
 8898W        W24029   3.142  16.546  13.854 -0.1866 -0.0925  0.1085
 8899W        W24030  16.770   5.309   3.028 -0.1484  0.4948  0.0905
 8900W        W24031  16.884   4.632   4.673 -0.0740  0.0788 -0.2255
 8901W        W24032   9.183   7.685  11.655 -0.2539 -0.0585  0.2649
 8902W        W24033  10.709  14.851  15.675  0.2840  0.0162  0.0553
 8903W        W24034  14.509  15.904  13.856 -0.3273  0.1488 -0.2139
 8904W        W24035  15.579  14.517   0.377 -0.0020  0.0698  0.0295
 8905W        W24036   3.981   8.368  14.683 -0.1264 -0.1444  0.2077
 8906W        W24037   0.724  11.945   2.565 -0.3240 -0.0905  0.0335
 8907W        W24038  15.165  13.444   1.205  0.0161 -0.2541  0.0545
 8908W        W24039  16.802  11.862  14.391 -0.3021  0.1680 -0.2889
 8909W        W24040   7.871  16.368  13.686 -0.0260 -0.0692 -0.1749
 8910W        W24041   7.970  17.235  11.296  0.1552  0.0592 -0.0980
 8911W        W24042   3.107   9.827  15.880  0.2208  0.0228  0.0242
 8912W        W24043   3.301   5.219  11.986 -0.1685 -0.1625 -0.0669
 8913W        W24044  16.298   5.018   4.112  0.3157 -0.3373  0.0112
 8914W        W24045   7.490   6.887  11.058  0.3117  0.0373 -0.2106
 8915W        W24046   8.085   5.276  10.653 -0.0811 -0.0705 -0.2349
 8916W        W24047   2.185  17.847   2.718  0.3164 -0.1142 -0.0755
 8917W        W24048   9.949   3.696   3.466  0.2475 -0.1751 -0.0184
 8918W        W24049   5.595   2.414  13.858 -0.1686 -0.0309  0.0648
 8919W        W24050   5.291   0.029  15.256 -0.1652  0.2699 -0.0109
 8920W        W24051   9.108   5.587   1.655 -0.0438  0.1273  0.2403
 8921W        W24052  10.147   0.818  15.827 -0.0693  0.0920 -0.4470
 8922W        W24053   7.478   1.660   1.622 -0.2939  0.2340  0.0195
 8923W        W24054   6.889   4.312  15.598  0.0288 -0.0051 -0.0427
 8924W        W24055   6.437   9.487  16.393  0.0152 -0.1704 -0.3902
 8925W        W24056   3.385  12.161  14.000 -0.0546  0.0052  0.0220
 8926W        W24057   2.607   7.240   0.707  0.3123  0.2319 -0.2528
 8927W        W24058   3.612  12.778   4.971  0.0321 -0.2837 -0.1588
 8928W        W24059  18.025  10.470  13.275 -0.0166 -0.0438  0.4652
 8929W        W24060   4.886  12.252  15.423 -0.0401 -0.2037  0.0642
 8930W        W24061   2.710  11.412  13.658  0.3027 -0.1543 -0.1573
 8931W        W24062   3.290  13.145  12.068  0.1893  0.0588 -0.3601
 8932W        W24063  10.218  16.350  11.514 -0.0875  0.0481  0.0337
 8933W        W24064  15.831   1.291   0.827 -0.0139 -0.0020  0.1813
 8934W        W24065   1.519  15.334   3.480  0.0633  0.1571 -0.0377
 8935W        W24066   8.995   4.707  14.728 -0.1106  0.2453  0.2551
 8936W        W24067   1.852  16.506  11.406 -0.2745 -0.1447  0.0675
 8937W        W24068  13.930   7.442   5.650 -0.1281  0.0519 -0.0042
 8938W        W24069   3.291  17.322   0.586  0.2425 -0.1454  0.0072
 8939W        W24070   5.970   2.819  12.045 -0.1534  0.1128 -0.0663
 8940W        W24071   3.066   2.082   0.829 -0.4129 -0.1144  0.5098
 8941W        W24072   3.083  13.054   0.149  0.2981 -0.2338  0.0876
 8942W        W24073  13.565  10.633   0.908 -0.3399  0.2485 -0.2980
 8943W        W24074   5.956  10.982   1.303  0.2222 -0.1330 -0.0678
 8944W        W24075  17.524  17.111   2.445  0.0798 -0.2347 -0.3086
 8945W        W24076   1.424  13.817   4.970 -0.2030 -0.0912  0.0581
 8946W        W24077   3.184  10.477   0.211 -0.1577  0.2466 -0.0986
 8947W        W24078   0.575  12.910   5.272  0.1483  0.0010 -0.0134
 8948W        W24079   6.478  11.730   3.371  0.2456 -0.1723  0.1015
 8949W        W24080   9.707   6.190   1.956  0.2562 -0.5809  0.1438
 8950W        W24081   9.785  11.951  13.268  0.2302  0.2393 -0.0757
 8951W        W24082  17.720   3.283   1.068 -0.2704  0.2444  0.0905
 8952W        W24083   8.687   5.294  12.900 -0.0045  0.1416  0.4368
 8953W        W24084   2.990  12.200   0.087 -0.1166  0.0481  0.2719
 8954W        W24085   7.749   4.082   5.073 -0.0795 -0.0985 -0.1028
 8955W        W24086   4.248   4.105  14.037  0.0646  0.3285 -0.1787
 8956W        W24087   4.198   9.589  12.218  0.1804 -0.1327 -0.2064
 8957W        W24088   0.190   0.173  16.312 -0.0415  0.0566 -0.1854
 8958W        W24089   8.574  12.715  11.218 -0.1063  0.2716  0.1278
 8959W        W24090   9.439   2.938   6.034  0.0013  0.0556 -0.1268
 8960W        W24091   7.241  14.231   1.611  0.0255 -0.1308  0.1501
 8961W        W24092   3.355  15.378  16.402 -0.1455 -0.2649 -0.0535
 8962W        W24093   1.458   7.947  13.409 -0.1893  0.0420 -0.3950
 8963W        W24094  14.000   8.300   0.347 -0.0341 -0.1445 -0.3418
 8964W        W24095   3.433   2.504  16.223 -0.0771  0.1522  0.3318
 8965W        W24096   2.825   0.514  15.308  0.2342  0.0723 -0.2525
 8966W        W24097   3.215   7.141  15.105 -0.0769  0.0561 -0.0508
 8967W        W24098  15.536   6.540  11.915 -0.2616  0.1961 -0.2049
 8968W        W24099  18.041   9.929   1.350  0.0267  0.2224 -0.1534
 8969W        W24100   4.339   9.200   5.111 -0.1155  0.0408  0.0413
 8970W        W24101   8.534  14.406   1.464 -0.0042 -0.1786 -0.0219
 8971W        W24102  17.474  16.154  16.112 -0.0649  0.0226 -0.2380
 8972W        W24103  17.193  17.458  14.081 -0.2145 -0.2655  0.0440
 8973W        W24104  11.492  15.878  10.495  0.1730 -0.0902  0.1175
 8974W        W24105   3.165   0.427  16.073 -0.0272  0.1160  0.2629
 8975W        W24106   0.206   2.105  14.956  0.0508  0.1210 -0.0806
 8976W        W24107   5.593   7.086  16.224  0.1832  0.2156 -0.2530
 8977W        W24108   5.737  14.985   5.504  0.3129  0.0235  0.1790
 8978W        W24109   7.369   3.181   3.336 -0.0727 -0.0487 -0.0455
 8979W        W24110  13.369   8.534   1.561 -0.0979  0.0243  0.3674
 8980W        W24111   8.518   7.750  11.803  0.1494  0.1036  0.1503
 8981W        W24112  12.611  15.313  15.545  0.1495 -0.0403 -0.1180
 8982W        W24113   0.814   8.633   3.735 -0.1081 -0.3479 -0.0201
 8983W        W24114   5.837  12.661   4.588 -0.7407 -0.1204 -0.0141
 8984W        W24115   3.322   3.990  15.804 -0.0936  0.3645  0.2361
 8985W        W24116   0.815  14.101  14.791 -0.1247  0.0920  0.0022
 8986W        W24117   1.467   5.038  12.988 -0.2295 -0.0451 -0.1052
 8987W        W24118   8.660   6.068  14.924  0.1747  0.1224  0.1759
 8988W        W24119   2.097   9.178  10.377  0.2988  0.1006 -0.0487
 8989W        W24120  13.100  10.262   1.457  0.0344  0.1240  0.2569
 8990W        W24121  11.857  17.823  14.947 -0.0822 -0.0306 -0.1130
 8991W        W24122   0.117   8.130  13.501 -0.1413  0.0767  0.0764
 8992W        W24123   7.838  17.855   2.722  0.1883 -0.0618  0.1074
 8993W        W24124  11.848  17.537   0.568 -0.1066 -0.3467  0.0596
 8994W        W24125   8.282   1.361  13.029  0.1633  0.0756  0.2672
 8995W        W24126  11.640  14.940  13.447  0.1230  0.4716 -0.1025
 8996W        W24127   6.764   6.337   1.406  0.0228 -0.2544 -0.0509
 8997W        W24128   8.710   0.145  12.351  0.0060  0.0876  0.0917
 8998W        W24129  13.210   4.377  14.714  0.1793 -0.5136  0.2498
 8999W        W24130  14.462  10.629   4.622  0.0566 -0.0766  0.0532
 9000W        W24131   7.477  10.869  13.749 -0.2146 -0.1932 -0.2578
 9001W        W24132  10.635  15.283  14.285  0.4652 -0.0104 -0.0510
 9002W        W24133   2.822  16.381  11.048  0.1646  0.1453 -0.0388
 9003W        W24134   7.026   8.887   1.310 -0.1326  0.1787  0.1880
 9004W        W24135  10.774   4.370   4.249 -0.1778 -0.0593 -0.4046
 9005W        W24136   3.924   9.032   3.865  0.0308 -0.0394 -0.1208
 9006W        W24137   0.621  14.498  15.085  0.0693 -0.0727 -0.0177
 9007W        W24138   0.380   2.023  15.433 -0.1766  0.1388 -0.0798
 9008W        W24139   0.607  11.375  14.030 -0.1375  0.0217 -0.0932
 9009W        W24140   1.703   8.479  12.606  0.0628 -0.0857 -0.1556
 9010W        W24141  11.602   3.346  14.901 -0.2630 -0.2023 -0.3265
 9011W        W24142  17.124   2.428  16.125  0.1466 -0.2230  0.1049
 9012W        W24143   7.093   2.259   3.888  0.1242  0.1643  0.2548
 9013W        W24144   6.629   4.521   2.154  0.1528 -0.0111  0.0525
 9014W        W24145  11.640  11.311  14.171 -0.2604 -0.0738  0.3439
 9015W        W24146  14.739   0.052  13.547  0.2200  0.0915  0.2467
 9016W        W24147   3.612   8.614  14.904  0.2445  0.2804 -0.1794
 9017W        W24148   8.187   0.038  13.476  0.1668 -0.2502  0.3185
 9018W        W24149  12.198  10.142   0.365 -0.3156  0.2198 -0.0407
 9019W        W24150  13.066   4.217   5.686  0.1426  0.0259 -0.3393
 9020W        W24151   0.219  17.028  16.008  0.2412  0.2032  0.0217
 9021W        W24152   5.906   9.627  11.720 -0.0085 -0.1777  0.3098
 9022W        W24153   9.103   8.751   0.177 -0.1833 -0.1855 -0.0996
 9023W        W24154  13.280   7.831  11.236  0.1267 -0.2586 -0.0332
 9024W        W24155  13.596  17.980   0.870 -0.0392 -0.2223 -0.1903
 9025W        W24156   8.823   1.588  16.154 -0.2685 -0.3672  0.0730
 9026W        W24157   2.417  10.972   3.018 -0.2231  0.1457  0.1441
 9027W        W24158   3.965   8.779   2.442  0.2797  0.0900 -0.2208
 9028W        W24159   1.703   6.718   4.104  0.3314  0.0261 -0.0987
 9029W        W24160  13.098   2.456  12.387  0.0719 -0.0489 -0.2359
 9030W        W24161   5.884   2.541   3.442  0.0539  0.0314  0.1947
 9031W        W24162  17.450   6.344   5.266  0.0592  0.0692 -0.0110
 9032W        W24163   7.189   2.104  15.811 -0.2319  0.4176 -0.0926
 9033W        W24164  15.709  11.231   2.378  0.0768  0.0748 -0.1224
 9034W        W24165   0.311   6.056   1.134 -0.0230  0.2921  0.0657
 9035W        W24166   1.901   7.760   3.483  0.1753 -0.3194 -0.0008
 9036W        W24167  12.116   3.037  14.773  0.0596  0.0352  0.1456
 9037W        W24168   1.124   2.578   3.207  0.0873 -0.0159 -0.0702
 9038W        W24169  11.898   1.485   0.329  0.1083 -0.1507  0.0412
 9039W        W24170  17.699  13.711  15.312 -0.0408  0.2872  0.0864
 9040W        W24171   5.876  13.000   3.675  0.0875  0.0667 -0.1345
 9041W        W24172   7.083   6.252   1.816 -0.0803  0.1167 -0.0341
 9042W        W24173  12.594   8.876   2.033 -0.2984  0.0638  0.1372
 9043W        W24174   4.987   0.614   3.361 -0.0422  0.1693 -0.2323
 9044W        W24175   0.175  13.147   3.453 -0.1648  0.0711 -0.0238
 9045W        W24176  12.176  16.092   2.212  0.1513 -0.0177  0.1464
 9046W        W24177  11.739   9.477  13.170  0.0501 -0.0429  0.2668
 9047W        W24178   4.552   0.128  16.323 -0.1352  0.1086 -0.0419
 9048W        W24179   7.186   9.934  15.941 -0.2393  0.0047 -0.3676
 9049W        W24180  11.461   1.563  13.336 -0.3610 -0.0137 -0.2274
 9050W        W24181  16.769  17.077  12.096 -0.0125  0.2126  0.0089
 9051W        W24182   1.211  16.550   3.958 -0.0625 -0.0534 -0.0264
 9052W        W24183  10.836  14.995  15.200 -0.0520 -0.1332  0.1384
 9053W        W24184  13.605  17.713  15.489  0.3039 -0.0040 -0.1082
 9054W        W24185  10.548   6.660   9.476  0.1035 -0.2618 -0.0839
 9055W        W24186   3.665   0.150  11.679 -0.0468 -0.0489  0.0507
 9056W        W24187   5.179   6.539  10.548  0.3864  0.2356 -0.0564
 9057W        W24188   9.101   0.613  13.357 -0.0485 -0.1731  0.0618
 9058W        W24189   9.844   7.814  13.864  0.1967 -0.1375  0.2786
 9059W        W24190  15.948  11.721  13.693 -0.4759  0.0904  0.2370
 9060W        W24191  12.718   1.207   1.409 -0.2805 -0.0271 -0.1223
 9061W        W24192  16.434   3.332  13.109 -0.0007  0.0056  0.0787
 9062W        W24193   9.848  16.184  11.839  0.0509  0.0922 -0.2140
 9063W        W24194  10.252   0.960   3.788  0.0041 -0.2121 -0.1596
 9064W        W24195  18.028  15.915  13.262 -0.0205  0.0590 -0.2007
 9065W        W24196   7.931  11.018   5.787  0.1440 -0.1159  0.1693
 9066W        W24197   5.933   6.045  15.059 -0.1380  0.0335 -0.4195
 9067W        W24198   9.898   5.756  11.483 -0.2694 -0.1332 -0.4026
 9068W        W24199   8.553  13.921  15.485  0.2886 -0.2265  0.0156
 9069W        W24200  14.830   1.418   2.955  0.2908 -0.1346 -0.3546
 9070W        W24201   7.360   1.014   3.004 -0.0503  0.1837  0.2850
 9071W        W24202   3.878  10.120   0.880  0.0156  0.1990 -0.0812
 9072W        W24203   9.558   7.982  11.796  0.2179 -0.3495 -0.1852
 9073W        W24204  10.806   3.137  15.361 -0.2367  0.1425 -0.1264
 9074W        W24205  16.309  11.611   0.062  0.2794 -0.1292 -0.0735
 9075W        W24206  13.065   0.789   2.070 -0.1283  0.1530 -0.0738
 9076W        W24207   5.509  12.380   2.196 -0.0672 -0.1105 -0.0688
 9077W        W24208   9.428   6.686   5.011  0.1746  0.1877  0.0083
 9078W        W24209   2.971   4.705   0.000  0.0303  0.1108  0.2346
 9079W        W24210   2.939  11.483   1.307 -0.1013 -0.1575  0.0015
 9080W        W24211  11.331   4.008   5.304  0.1730  0.1558  0.2500
 9081W        W24212  10.083   3.315   3.888 -0.2109 -0.0601  0.2116
 9082W        W24213   5.081  15.871   0.641 -0.1504 -0.0887 -0.0198
 9083W        W24214   9.873   4.465  15.798  0.1220  0.2309 -0.0392
 9084W        W24215   0.937   7.789   5.625 -0.1851 -0.0561 -0.1193
 9085W        W24216  17.540  17.826  12.061 -0.0006  0.1208 -0.0175
 9086W        W24217   2.558   8.858   0.936  0.0107 -0.1162 -0.1071
 9087W        W24218   8.854  10.138   1.155  0.1079  0.0534 -0.0174
 9088W        W24219  10.412   9.493   0.236 -0.3163  0.0296 -0.2678
 9089W        W24220  17.502   1.998  12.849  0.0954  0.2092 -0.1538
 9090W        W24221   8.206  14.759   5.309  0.0680  0.1987  0.1189
 9091W        W24222  16.429   7.379   1.354 -0.0087 -0.0632  0.0515
 9092W        W24223   1.959   4.619  12.340  0.1504 -0.2489 -0.2140
 9093W        W24224   2.512   7.258   2.325  0.0486  0.2400 -0.1320
 9094W        W24225   0.558   7.288  16.422 -0.0197  0.2981 -0.1967
 9095W        W24226  13.005  14.553  13.730  0.0240 -0.0786 -0.0308
 9096W        W24227  13.601   4.726  11.623 -0.0650  0.0518  0.0446
 9097W        W24228  12.214  16.439   4.016 -0.0426 -0.1012 -0.0770
 9098W        W24229   3.472   3.952  13.621 -0.0187 -0.1415 -0.1212
 9099W        W24230  17.008  17.134  11.638 -0.1170  0.3109 -0.2148
 9100W        W24231   7.867  15.084  16.047  0.1909  0.0981  0.0441
 9101W        W24232   1.776  12.135   3.421  0.0152 -0.2398  0.1167
 9102W        W24233  15.933   2.510   5.775  0.3391 -0.2601 -0.1234
 9103W        W24234   8.471  12.026   5.621  0.0590  0.0559 -0.3122
 9104W        W24235  10.056   6.419  13.516  0.3576 -0.0339 -0.0897
 9105W        W24236  15.360   5.076   2.586  0.4873  0.0820 -0.4797
 9106W        W24237  15.561   0.620   5.112  0.0617  0.0931  0.2072
 9107W        W24238   5.689  11.286  14.004 -0.4581 -0.0084  0.1361
 9108W        W24239   0.065  14.241  12.022  0.0027  0.1020  0.2107
 9109W        W24240  17.260  17.254   4.922 -0.2856 -0.0144  0.0464
 9110W        W24241   8.587   9.603  11.728 -0.0742 -0.1382 -0.2432
 9111W        W24242   8.759  12.141  11.289 -0.1544 -0.3440  0.0834
 9112W        W24243  13.907   1.405   2.783 -0.3376 -0.0769 -0.0041
 9113W        W24244   6.849  17.778  16.348 -0.0742 -0.3502  0.0184
 9114W        W24245   5.913   8.828  11.444 -0.2163 -0.0767  0.1069
 9115W        W24246   9.965   4.856   4.629 -0.0406  0.3289 -0.2076
 9116W        W24247   6.505   0.750   3.964 -0.1822  0.1188 -0.0014
 9117W        W24248   7.994   2.851  12.028  0.0091 -0.0561  0.1849
 9118W        W24249  17.472   6.837   4.913  0.2914  0.1088 -0.2811
 9119W        W24250   7.194  16.536  14.317 -0.0567 -0.0324 -0.0659
 9120W        W24251  15.296   2.480  11.407 -0.2232 -0.1166 -0.1463
 9121W        W24252   3.456   7.164   9.868  0.0524  0.1535  0.0090
 9122W        W24253   9.051  10.765  12.193  0.1044 -0.0558 -0.1144
 9123W        W24254   3.244   5.044  15.066 -0.1824 -0.3844  0.1094
 9124W        W24255  11.166  17.501  13.085 -0.3259  0.0564  0.0067
 9125W        W24256  12.525   5.450  12.646  0.2998  0.1132 -0.0007
 9126W        W24257  15.506   8.157   4.907  0.0465  0.0630  0.1433
 9127W        W24258   6.845   2.860  16.222 -0.0070 -0.2649 -0.5282
 9128W        W24259   8.975  17.175  11.698 -0.1183 -0.1222  0.1293
 9129W        W24260   3.910  14.392   0.401 -0.0849 -0.1833 -0.0684
 9130W        W24261   4.461  10.523   3.004 -0.5007  0.2579 -0.2275
 9131W        W24262  15.645  15.732  12.593 -0.0679  0.1951  0.2018
 9132W        W24263   6.287   4.859  13.255 -0.0749 -0.0753 -0.0181
 9133W        W24264  12.563   6.385   2.771  0.0259  0.0601 -0.1246
 9134W        W24265   4.596   6.435   2.512  0.0016  0.0195  0.0648
 9135W        W24266  13.844   1.792  16.388 -0.0650 -0.2577 -0.3757
 9136W        W24267   8.677   4.152  14.560  0.1926  0.1715  0.3151
 9137W        W24268   4.389  16.986   1.813  0.0311  0.0790 -0.1992
 9138W        W24269   1.492  12.180   4.722  0.2135  0.1676  0.1099
 9139W        W24270  16.981  14.530  11.229  0.0751  0.0070 -0.3172
 9140W        W24271  17.112   6.738   4.532  0.4069  0.0986  0.0034
 9141W        W24272  12.094   8.030   2.972 -0.2825 -0.0380  0.2303
 9142W        W24273  13.589  12.521  15.724 -0.0095  0.0640 -0.0250
 9143W        W24274   7.721   2.653  14.352 -0.2456  0.1068  0.1909
 9144W        W24275   6.307  15.065  13.245  0.0571 -0.2256 -0.0807
 9145W        W24276  14.715   7.364   5.617  0.2683 -0.0539  0.2484
 9146W        W24277  16.843  10.816   2.862  0.1953 -0.0563  0.0105
 9147W        W24278  17.704   5.521   0.557  0.1073 -0.2642  0.0221
 9148W        W24279   8.526   2.973  13.791  0.0731 -0.2864  0.1091
 9149W        W24280   4.323  13.850  14.406 -0.1201 -0.1141  0.1215
 9150W        W24281  10.583  10.684   1.100 -0.0531  0.1034  0.3936
 9151W        W24282  13.114   8.251  11.105  0.0559 -0.0859  0.1608
 9152W        W24283  17.346  12.524   1.289  0.0243  0.1996  0.1639
 9153W        W24284  10.882  11.050   4.249  0.1858  0.2185 -0.2408
 9154W        W24285  16.880   6.942  14.505  0.0938 -0.0505  0.1345
 9155W        W24286   3.527  14.827  14.645  0.2162  0.2331  0.0401
 9156W        W24287  14.403   0.290  14.089  0.4093  0.1057 -0.0285
 9157W        W24288  12.627   3.880  11.748 -0.3723  0.2549  0.2294
 9158W        W24289  13.764  14.416   4.459  0.3458 -0.2648 -0.0602
 9159W        W24290   6.965   2.282  10.719  0.4439  0.0142  0.2189
 9160W        W24291   5.601   6.513   3.911 -0.1200 -0.0942  0.1596
 9161W        W24292  13.278   3.849   2.773 -0.1810  0.2366 -0.0383
 9162W        W24293  10.428   4.604   5.656 -0.1370  0.2970 -0.1696
 9163W        W24294  13.259   2.407   2.125 -0.1318  0.5742  0.1371
 9164W        W24295   9.487   4.166   1.086 -0.0273  0.0440  0.0906
 9165W        W24296   0.186   0.735   4.124  0.1328  0.1111 -0.1942
 9166W        W24297   8.980   2.994   2.589  0.0869 -0.2007 -0.1212
 9167W        W24298   0.923   0.047  16.052 -0.0764  0.1110 -0.0443
 9168W        W24299  16.456   9.077   4.446  0.2135  0.1414 -0.0170
 9169W        W24300   8.342  11.246   2.828  0.2514 -0.1647 -0.0559
 9170W        W24301  17.188  14.940   0.104 -0.3071 -0.0815  0.1804
 9171W        W24302   4.703   1.358  11.938 -0.0415  0.1155  0.1419
 9172W        W24303  14.929   6.275  11.092  0.0664  0.0427 -0.0975
 9173W        W24304   1.185  17.900   0.514  0.2603  0.0536 -0.1154
 9174W        W24305  13.515   9.167   2.855  0.1501  0.4065 -0.1282
 9175W        W24306   1.767  16.848   4.784  0.1110 -0.0674 -0.2670
 9176W        W24307  12.011   1.478   3.666  0.2962 -0.0877  0.1550
 9177W        W24308   6.889   4.026   1.465 -0.1653  0.0239  0.0288
 9178W        W24309  12.413  10.030   2.631  0.2566 -0.0520  0.1321
 9179W        W24310  17.440   2.912  13.817 -0.0334 -0.1267 -0.2000
 9180W        W24311   0.782  13.086  15.669 -0.0193  0.2940  0.0525
 9181W        W24312  16.215   7.736  13.670 -0.0550 -0.1295 -0.3692
 9182W        W24313   8.129   3.489   1.465 -0.1913 -0.1460  0.1266
 9183W        W24314   0.415  10.912  13.851  0.1133  0.0638  0.1175
 9184W        W24315  17.605   2.586   4.330  0.2056  0.0511  0.1799
 9185W        W24316   1.433   9.759  16.307 -0.0974  0.1086  0.2271
 9186W        W24317  12.992  12.656  13.884  0.0271  0.1039  0.0052
 9187W        W24318  16.639  17.999  11.602  0.0187 -0.1390 -0.0412
 9188W        W24319   1.298  10.188   4.535 -0.0504  0.0829  0.1491
 9189W        W24320  18.061   6.613  16.087  0.4316  0.1445 -0.1383
 9190W        W24321   3.948  12.177   5.639 -0.1407  0.1547 -0.0235
 9191W        W24322   0.375  10.726  12.411 -0.1434  0.1137 -0.0070
 9192W        W24323   4.219  15.742   3.885  0.2727 -0.1552 -0.0258
 9193W        W24324   2.229  17.042   4.012 -0.0547 -0.2584 -0.1150
 9194W        W24325   8.468  17.525   4.774  0.1070  0.2472  0.0461
 9195W        W24326   7.297  17.109   5.334 -0.1050 -0.2847  0.2465
 9196W        W24327   6.275  13.814  14.313 -0.0468  0.0393 -0.0447
 9197W        W24328   5.488   8.689   4.603  0.0020 -0.2875 -0.1203
 9198W        W24329   8.284  14.080  13.353 -0.0008  0.1053  0.3774
 9199W        W24330  17.499  18.017   2.758  0.0613 -0.2026  0.2311
 9200W        W24331  10.848  11.173   0.441 -0.0331  0.1257  0.1830
 9201W        W24332  13.201  13.919  11.335  0.0862  0.0553 -0.0978
 9202W        W24333   9.460  15.593  13.369 -0.1149  0.1873  0.2383
 9203W        W24334  14.154   2.183  12.731  0.3133 -0.2513 -0.2074
 9204W        W24335   8.618  16.172   4.988  0.1104  0.2773  0.1521
 9205W        W24336  10.509  17.897   5.456 -0.0591  0.2023 -0.1453
 9206W        W24337  10.126  14.568  10.452  0.0502 -0.1422  0.0488
 9207W        W24338  17.120   4.762  14.898 -0.1691 -0.4471 -0.0922
 9208W        W24339  12.507  10.522  15.430  0.0907 -0.0638  0.2462
 9209W        W24340   7.205   7.659   2.577  0.1786 -0.0893  0.2523
 9210W        W24341  14.548  13.088   3.476 -0.1801 -0.0489  0.0105
 9211W        W24342   4.616  16.498  15.878 -0.2518 -0.0922  0.1991
 9212W        W24343   2.133   5.437  14.428 -0.1069 -0.1343  0.1233
 9213W        W24344   7.967   6.019   0.061  0.4701 -0.1004  0.1964
 9214W        W24345   3.201   4.497   3.215 -0.4382  0.2407  0.2139
 9215W        W24346  14.999   4.962  13.237 -0.0642  0.0448 -0.2268
 9216W        W24347   6.964  10.410   4.541 -0.1221 -0.0055  0.0194
 9217W        W24348  13.035  16.994  16.372 -0.2597  0.0449 -0.0481
 9218W        W24349   5.395  16.647  12.003 -0.0345 -0.0032 -0.0735
 9219W        W24350   0.086  14.850   0.787 -0.0910 -0.1877  0.0711
 9220W        W24351   3.980  11.059  13.652 -0.4194 -0.0444 -0.1226
 9221W        W24352   5.317  14.847  16.010  0.1238  0.2152  0.1975
 9222W        W24353   9.902   4.035   4.424  0.2341  0.2096 -0.3800
 9223W        W24354   8.352   2.226  11.354 -0.1543  0.1969  0.1124
 9224W        W24355  10.914  13.753  11.408  0.1683  0.3847  0.2395
 9225W        W24356  12.034  11.120   3.128 -0.0590  0.0990  0.0177
 9226W        W24357   4.785   5.389   2.967 -0.0403  0.3126 -0.1621
 9227W        W24358   5.073   3.327   3.007  0.0540 -0.1109  0.0708
 9228W        W24359  16.748   7.520  15.415  0.2303  0.2104  0.2702
 9229W        W24360  17.184   1.822   0.536  0.5677 -0.0041  0.3508
 9230W        W24361  16.421   5.623   4.869  0.2101 -0.1107 -0.0827
 9231W        W24362   4.961  11.585   0.813  0.1085  0.4215  0.2743
 9232W        W24363  12.160  14.825   3.066  0.0241  0.1416 -0.0507
 9233W        W24364   2.126  13.970  11.390 -0.3881  0.2542  0.2675
 9234W        W24365   4.800  15.890  14.063 -0.1832  0.1432 -0.1738
 9235W        W24366  13.579   1.590   1.575 -0.0566  0.1670 -0.1826
 9236W        W24367   1.008   9.950   5.323 -0.2319 -0.4640 -0.0802
 9237W        W24368   7.830  13.804   2.344  0.0991  0.4146  0.0056
 9238W        W24369  14.940   1.186  13.196  0.1047  0.0006 -0.0523
 9239W        W24370   9.490   5.179  14.117 -0.0277  0.1369  0.0350
 9240W        W24371  10.094  12.776   1.383  0.1639 -0.0535 -0.0342
 9241W        W24372  14.294  10.573  12.979 -0.0031  0.0696  0.1140
 9242W        W24373   9.063  16.829  14.737 -0.1942  0.3853  0.1366
 9243W        W24374   6.157   5.319   0.333 -0.1472 -0.0120 -0.3408
 9244W        W24375   9.337  14.184  13.648 -0.0677 -0.2944 -0.7715
 9245W        W24376   0.096  16.036   4.632 -0.2836 -0.0340  0.0618
 9246W        W24377   4.183  15.213  10.836  0.2294  0.0250 -0.0977
 9247W        W24378  10.299  11.012  11.329  0.0840  0.0200  0.0314
 9248W        W24379  15.841  17.602  13.145  0.0069 -0.2514  0.0345
 9249W        W24380   9.611   0.413   0.997  0.3570 -0.2097 -0.2821
 9250W        W24381   2.415   6.750  14.773 -0.0175 -0.2107  0.0101
 9251W        W24382  17.120  12.122   3.826 -0.2137  0.2793 -0.2837
 9252W        W24383  10.973  11.049   0.927 -0.1445  0.3141  0.2128
 9253W        W24384  15.159   5.682  12.152  0.3210 -0.0070  0.0224
 9254W        W24385   6.901   3.915  14.651  0.0414 -0.0394  0.0638
 9255W        W24386  15.083   6.612  14.469  0.3010 -0.2248 -0.0239
 9256W        W24387  16.283  10.027   1.870 -0.0964 -0.2109  0.0935
 9257W        W24388   7.083  17.992  14.426 -0.0811 -0.3282  0.0112
 9258W        W24389  18.033   3.641   4.078  0.2383 -0.0921 -0.0335
 9259W        W24390  13.092  16.415   4.522 -0.1373  0.1083 -0.0119
 9260W        W24391   4.915  15.503  14.495  0.1115  0.1723  0.0710
 9261W        W24392  10.815   8.844  12.241 -0.2537  0.3385  0.2472
 9262W        W24393   3.147   6.502  10.528  0.0112  0.1799 -0.1319
 9263W        W24394  17.357   9.718  13.073  0.0354  0.0042  0.0220
 9264W        W24395   0.720  12.326  11.990 -0.0010 -0.2641  0.2189
 9265W        W24396  10.294   7.250  15.785 -0.0067  0.0133 -0.0913
 9266W        W24397  15.632   9.718  15.210  0.0141  0.0804 -0.1292
 9267W        W24398   7.834  11.184   2.682 -0.0708  0.3982  0.0730
 9268W        W24399   5.172   4.119  15.139 -0.4233  0.0142  0.1067
 9269W        W24400  12.706  11.240  12.083  0.1592 -0.1808 -0.3681
 9270W        W24401   4.034   6.341   1.179 -0.1121 -0.1282 -0.0887
 9271W        W24402   3.044  14.715   3.189 -0.1791 -0.1017 -0.0010
 9272W        W24403  12.236   7.329   4.144  0.3115  0.0516 -0.0206
 9273W        W24404  17.871   7.119  13.897 -0.0085  0.2942  0.1126
 9274W        W24405   1.838  12.123  12.459 -0.0969 -0.2838  0.3811
 9275W        W24406  12.078  11.904  10.893  0.0387 -0.1667 -0.1548
 9276W        W24407  15.059   3.445   5.934  0.0286 -0.0864 -0.5348
 9277W        W24408  17.641   9.371   0.095  0.2930 -0.0365  0.2149
 9278W        W24409   8.582   1.643  12.003  0.1313 -0.1909  0.2224
 9279W        W24410   8.812   4.147   2.782 -0.0033 -0.0344 -0.1621
 9280W        W24411   7.220   6.269   1.231  0.2056 -0.0475  0.0264
 9281W        W24412   3.848  13.619   4.720 -0.1861 -0.1312 -0.1448
 9282W        W24413   9.721  13.482   1.981  0.1212 -0.3815 -0.1266
 9283W        W24414  16.132   2.111  14.259 -0.2121  0.1412 -0.1993
 9284W        W24415   5.802   9.669   5.387 -0.0308 -0.0244  0.0114
 9285W        W24416  14.768  11.556   2.681  0.1031  0.4796 -0.0384
 9286W        W24417  11.758   2.470   2.429 -0.2617 -0.0526 -0.1306
 9287W        W24418   8.603  16.487  13.723  0.0050 -0.1905  0.0328
 9288W        W24419  12.312   4.281  15.536 -0.0673  0.1832  0.0075
 9289W        W24420  13.263   9.889   3.476  0.0865  0.0824  0.2103
 9290W        W24421   8.224   6.421  11.680 -0.1154 -0.2110 -0.1132
 9291W        W24422  16.292   2.534   2.183 -0.1782  0.3512 -0.2762
 9292W        W24423   7.727   6.622  13.790 -0.2160 -0.0991  0.1574
 9293W        W24424   5.931   8.330   2.373 -0.2081 -0.1208 -0.1829
 9294W        W24425   1.937  10.727   4.757  0.3253  0.0834 -0.2548
 9295W        W24426   8.049   0.660   3.914 -0.1567  0.1470 -0.0668
 9296W        W24427   2.302   8.954   1.327  0.0007  0.0977 -0.0094
 9297W        W24428  16.847   9.836   4.475 -0.2854  0.0193 -0.0610
 9298W        W24429   0.760   9.698  13.523  0.0992  0.2938 -0.2733
 9299W        W24430  16.038   0.790   3.669  0.0070  0.3849  0.0395
 9300W        W24431  12.382  15.142  14.105  0.1569  0.1839 -0.0825
 9301W        W24432  14.911   4.443   5.602  0.0653  0.1924  0.1093
 9302W        W24433  14.508   1.239   3.843  0.3742 -0.0780  0.0345
 9303W        W24434   1.197   8.509  12.781 -0.0471 -0.1734  0.0234
 9304W        W24435   2.259  18.041  15.748  0.0766  0.1535  0.1434
 9305W        W24436  11.734   2.429  14.226  0.1629  0.0323  0.1959
 9306W        W24437   8.663   5.963  11.041 -0.0150  0.2545  0.0743
 9307W        W24438  10.283   0.122  11.227  0.3662 -0.2004  0.1617
 9308W        W24439  13.303  11.469   3.073 -0.0113  0.0610  0.2176
 9309W        W24440   8.125  17.294  15.446  0.1672  0.0893  0.0405
 9310W        W24441   1.348   8.030   3.375  0.1043  0.1232 -0.2529
 9311W        W24442   2.579  17.099   4.349  0.0315 -0.0841 -0.1962
 9312W        W24443   0.449   2.100   5.737  0.1697  0.0225 -0.2404
 9313W        W24444  18.007   3.254  13.236  0.0890 -0.1019 -0.1716
 9314W        W24445   1.711  11.712   0.788 -0.0766 -0.1331  0.0418
 9315W        W24446   1.772  15.655   0.104 -0.0649 -0.0167  0.2437
 9316W        W24447   5.676  13.867  11.387  0.0330  0.2409  0.0978
 9317W        W24448  16.089  16.685  16.423 -0.2189 -0.0902 -0.2427
 9318W        W24449  17.087   1.189   1.294 -0.0869  0.4295  0.0876
 9319W        W24450   0.913  11.131   2.306  0.1193  0.0632 -0.1991
 9320W        W24451   1.590  12.683  12.621  0.1496  0.1548 -0.0353
 9321W        W24452  13.214  13.669   1.186  0.1013  0.2268 -0.0600
 9322W        W24453   7.325  13.017  15.367  0.0605 -0.0003 -0.1249
 9323W        W24454   2.800   3.445   1.183  0.0671  0.1890  0.2641
 9324W        W24455   5.742  11.490   3.743  0.0261 -0.4692  0.0959
 9325W        W24456   4.096  11.448  10.762  0.0122 -0.0256  0.2201
 9326W        W24457   7.480  12.500   5.532 -0.1272  0.1077 -0.0468
 9327W        W24458  17.045  10.524  12.793 -0.0924  0.0459  0.0778
 9328W        W24459   1.126   4.858   2.375 -0.0978  0.2278  0.1778
 9329W        W24460  10.303   7.992   0.409 -0.3357 -0.0272  0.3741
 9330W        W24461   6.457  15.972   3.216  0.3027 -0.0894  0.1347
 9331W        W24462   5.085   1.615   5.480 -0.5300  0.1530  0.2057
 9332W        W24463   8.479   7.559  12.428 -0.0450 -0.2538 -0.1765
 9333W        W24464  14.209   2.922   1.602 -0.2439  0.0174 -0.2088
 9334W        W24465   1.459   3.169  13.034 -0.2811 -0.2025 -0.0789
 9335W        W24466   0.356   7.685  16.239 -0.4896  0.3036  0.0790
 9336W        W24467   4.602   9.539   2.759 -0.0570 -0.3062  0.0805
 9337W        W24468  12.986  12.236   3.675 -0.1070  0.1284  0.1745
 9338W        W24469  15.233  13.148  14.432  0.1548 -0.2501  0.1634
 9339W        W24470   3.832  13.301  15.529 -0.1266 -0.2216 -0.0666
 9340W        W24471   3.085   4.922   3.928 -0.0804  0.0065  0.0022
 9341W        W24472  16.454   5.921  10.362  0.0579 -0.0837 -0.3497
 9342W        W24473  14.932   4.024  12.946 -0.2330  0.0726  0.2260
 9343W        W24474  13.259   4.767  15.686  0.0760 -0.0867 -0.1469
 9344W        W24475   3.512   5.933  11.134 -0.0299  0.1424  0.0026
 9345W        W24476  13.598   3.938  14.924  0.0760 -0.4549 -0.0000
 9346W        W24477   3.371  12.134   1.815  0.0585  0.1902 -0.0508
 9347W        W24478   2.687  11.789  10.560 -0.2599 -0.0840  0.1161
 9348W        W24479   5.781   5.295   3.932  0.1341 -0.1714 -0.0291
 9349W        W24480   0.284   1.465  14.225 -0.4503  0.0137 -0.1030
 9350W        W24481  12.776   7.627   4.023  0.2707 -0.0127  0.0975
 9351W        W24482   0.646   4.771   4.054  0.1457  0.1389 -0.2082
 9352W        W24483  14.360   5.841  14.830  0.0085 -0.0027 -0.0405
 9353W        W24484   7.587   4.750  14.527 -0.0241  0.1163  0.1565
 9354W        W24485   7.962  15.638  12.157  0.0722 -0.0245 -0.0784
 9355W        W24486  12.295   1.631  14.593  0.2530 -0.0932  0.2524
 9356W        W24487   8.372   8.683  15.364  0.1233  0.1242  0.2038
 9357W        W24488   8.788  12.107  14.864  0.1001 -0.2081  0.0248
 9358W        W24489   5.434  11.842   4.519  0.0542 -0.1638  0.0246
 9359W        W24490  15.248  11.994   0.234 -0.0658 -0.1734  0.3238
 9360W        W24491  11.934  17.249   4.349  0.0389 -0.0592  0.1527
 9361W        W24492   7.540   9.866   2.480  0.1169 -0.0355 -0.2440
 9362W        W24493  14.987  12.105  14.234  0.1261  0.0948 -0.0646
 9363W        W24494   2.773  14.526   5.221 -0.0060 -0.1226 -0.1909
 9364W        W24495   9.818   2.048  10.018  0.0937 -0.2796  0.0616
 9365W        W24496  15.931  12.359  12.576 -0.0659 -0.0498  0.0933
 9366W        W24497   0.384   4.837  13.539 -0.0369  0.0333 -0.0080
 9367W        W24498   7.233   5.656  16.182 -0.0711  0.2710  0.0908
 9368W        W24499  10.025  12.515   4.629  0.1665 -0.1598 -0.0081
 9369W        W24500   7.847   7.220  16.340 -0.2590 -0.0241  0.1305
 9370W        W24501  13.989   5.029   2.871 -0.0107  0.1264  0.0294
 9371W        W24502  15.906  12.867   0.184 -0.0612  0.0520  0.1237
 9372W        W24503  17.698   5.671  12.653 -0.0592  0.0359 -0.0304
 9373W        W24504   7.350   3.862   1.298  0.0303 -0.0603 -0.0545
 9374W        W24505   1.784   4.114   1.700  0.0948 -0.1696 -0.1342
 9375W        W24506  15.516   4.142  13.745  0.0468  0.2404  0.0742
 9376W        W24507   0.681  10.513   3.901  0.2016 -0.3633 -0.1968
 9377W        W24508   0.808   4.987  11.434 -0.1689 -0.0342 -0.1419
 9378W        W24509   2.305  15.860   0.835 -0.2022 -0.2715  0.2902
 9379W        W24510   9.800   3.742  13.937 -0.1065  0.0077  0.0512
 9380W        W24511   5.250   7.479  11.070  0.3182 -0.1642 -0.1098
 9381W        W24512   0.349  18.067   1.493 -0.0090  0.0486 -0.1861
 9382W        W24513   0.098   4.805  14.558 -0.0103  0.3214 -0.1134
 9383W        W24514   3.557  11.153  14.141 -0.3632 -0.1377 -0.0690
 9384W        W24515   0.647   0.306   5.718  0.3658 -0.0287 -0.0438
 9385W        W24516  10.361  15.346   4.013 -0.0751 -0.1223  0.2715
 9386W        W24517   1.850   0.224   4.561 -0.0688 -0.5124 -0.0766
 9387W        W24518   4.026  10.639  15.269 -0.0864 -0.0860 -0.2095
 9388W        W24519   7.402   2.217   2.337  0.0719 -0.1286 -0.0065
 9389W        W24520   9.919   3.961  11.709 -0.1244  0.1761  0.0783
 9390W        W24521   4.681   0.082  14.373  0.3276 -0.0155  0.1232
 9391W        W24522  15.175   5.450  13.043  0.3184  0.4194  0.3949
 9392W        W24523  13.544  13.971  15.598  0.2371 -0.0880 -0.2478
 9393W        W24524   2.980  17.648   0.415  0.2058 -0.1764  0.0569
 9394W        W24525  10.252   0.649   5.479  0.0613 -0.2146  0.1150
 9395W        W24526  15.363  16.918  13.403  0.1543  0.2538  0.2447
 9396W        W24527   1.985   0.435  11.506  0.0626  0.0025 -0.0965
 9397W        W24528   4.143   2.912  15.235 -0.0277 -0.0299  0.2739
 9398W        W24529   5.188   1.201  15.688  0.2341  0.2678 -0.0933
 9399W        W24530   2.062  11.766   1.665  0.0818 -0.1191  0.1955
 9400W        W24531   1.481  16.932   0.737  0.1341  0.0089  0.0805
 9401W        W24532   7.456   6.661   4.632  0.2994  0.3316 -0.1672
 9402W        W24533   6.438   3.587   3.709 -0.3292  0.0366  0.1791
 9403W        W24534   6.267  12.089   2.729 -0.0206  0.1440  0.0572
 9404W        W24535   5.968   6.428  11.813 -0.3027  0.1555 -0.0662
 9405W        W24536  11.553   3.869   3.388  0.1688 -0.2307 -0.0530
 9406W        W24537   0.812  13.086   5.719 -0.1081 -0.0427 -0.2676
 9407W        W24538   0.119  15.370  14.140  0.2021 -0.4225 -0.1534
 9408W        W24539   3.719   5.534  11.960  0.0642  0.2782 -0.0962
 9409W        W24540  17.578   5.471   2.239  0.2393  0.2493  0.1517
 9410W        W24541   8.931   0.425  11.958 -0.3181  0.0746 -0.0247
 9411W        W24542   2.178  16.437  16.411  0.0047 -0.2333  0.2829
 9412W        W24543   4.468   2.361  14.118 -0.1849  0.2122 -0.0216
 9413W        W24544   6.808  11.489  13.799  0.1777  0.1682  0.1622
 9414W        W24545   2.133   9.549   3.162  0.5407  0.0139 -0.0446
 9415W        W24546   0.836   9.414   3.249 -0.1169  0.1723  0.0993
 9416W        W24547   6.663  11.554  16.154 -0.2521 -0.0554 -0.0569
 9417W        W24548  13.036   7.097   1.215 -0.1682 -0.1131  0.1371
 9418W        W24549  14.245  12.300   2.020  0.2291  0.1701  0.1614
 9419W        W24550   0.943  14.648  12.905  0.1675 -0.0123 -0.0694
 9420W        W24551  13.535   6.321  13.821  0.1176 -0.2932  0.5288
 9421W        W24552  10.948  12.028   5.470  0.3791  0.0602  0.3113
 9422W        W24553   0.382  14.582   0.339 -0.0007 -0.0230 -0.1265
 9423W        W24554  15.775  10.107   6.058 -0.0784 -0.1051 -0.0391
 9424W        W24555  15.227   8.934   6.158 -0.0013  0.1981  0.1572
 9425W        W24556   7.014  13.997  10.772  0.0141 -0.2772  0.2820
 9426W        W24557  17.532  14.515   4.207  0.2476  0.1462  0.0094
 9427W        W24558  17.979  10.141  11.866 -0.3888  0.1825 -0.1239
 9428W        W24559   9.426   0.363   1.982 -0.3221 -0.2424  0.1759
 9429W        W24560   8.240  13.057   2.382 -0.0196 -0.1345 -0.1442
 9430W        W24561   8.945  12.394   2.782  0.1801 -0.0191 -0.3187
 9431W        W24562   5.305  14.021  11.751  0.1383 -0.1798  0.0034
 9432W        W24563   0.596   7.094   1.406 -0.2952  0.2314 -0.3368
 9433W        W24564   8.221  17.763   4.415 -0.0470  0.1706  0.0878
 9434W        W24565   6.230   8.691  12.269 -0.1888  0.3480 -0.3137
 9435W        W24566  14.913  15.423  12.583 -0.2022  0.1090  0.0378
 9436W        W24567  15.932  11.241  11.563 -0.2415 -0.0150 -0.1287
 9437W        W24568   7.909   9.675  13.061 -0.1292 -0.0291  0.0001
 9438W        W24569  12.921   8.520   4.014  0.0438  0.3633  0.0063
 9439W        W24570   1.641  16.337   1.762  0.0857  0.1253  0.3146
 9440W        W24571   0.909  12.756   0.882  0.1806 -0.0345  0.0745
 9441W        W24572   2.144   7.513  10.743  0.1485 -0.2409 -0.1043
 9442W        W24573  12.125   7.159   1.753  0.0068  0.3513  0.0841
 9443W        W24574   8.569  16.033  12.938 -0.0749 -0.0628  0.2173
 9444W        W24575   3.847  15.485   0.600 -0.0484 -0.0647 -0.3327
 9445W        W24576   7.913  10.172   1.370 -0.1661 -0.0135 -0.2994
 9446W        W24577  15.506   4.687  11.459 -0.3473 -0.1161  0.0946
 9447W        W24578   2.144   5.486   4.780 -0.1744  0.1005  0.0320
 9448W        W24579   2.853   5.539  13.022  0.0789  0.0468  0.1436
 9449W        W24580  10.472  12.084  15.745 -0.3414  0.1535 -0.0256
 9450W        W24581  17.046  10.324   2.838 -0.0444  0.0140  0.0695
 9451W        W24582   8.064  14.346  12.487 -0.1336 -0.1162 -0.0436
 9452W        W24583   8.410  11.245  12.676 -0.0454  0.1706 -0.3719
 9453W        W24584   0.343   9.353  11.398  0.2103  0.5170  0.1509
 9454W        W24585   5.439   8.671  11.110 -0.5258  0.1981 -0.1096
 9455W        W24586  15.056   5.462   5.501  0.3443  0.2351  0.0854
 9456W        W24587  12.352  11.374  12.847  0.1727  0.0032  0.1165
 9457W        W24588   9.832   6.335  12.566 -0.2929  0.1441 -0.1217
 9458W        W24589  17.895  10.102   2.961 -0.1631 -0.0039 -0.3336
 9459W        W24590   1.703  12.443  12.061 -0.0017  0.3095  0.2043
 9460W        W24591   2.830   4.078   3.501  0.1045  0.2063 -0.0699
 9461W        W24592   5.921   0.951   4.872 -0.1166 -0.0781  0.0805
 9462W        W24593   5.283  13.480  11.707 -0.0386  0.0539  0.0479
 9463W        W24594  16.879   5.598  13.440 -0.2589 -0.0342  0.2830
 9464W        W24595  16.411  15.236   2.159  0.3985  0.1191  0.1523
 9465W        W24596  14.376  16.814  14.901  0.1641 -0.0659 -0.3279
 9466W        W24597  11.360   8.521   3.821  0.0766 -0.0483  0.0464
 9467W        W24598   4.895  14.289   3.733 -0.2176  0.0690 -0.1496
 9468W        W24599   9.536  17.158   0.644  0.1765 -0.1631  0.1059
 9469W        W24600  10.726   7.093  12.357  0.0008 -0.2370 -0.0903
 9470W        W24601   5.134   3.082   1.298 -0.1487  0.2880 -0.1606
 9471W        W24602  15.934   6.868  14.350 -0.0076 -0.0459 -0.3039
 9472W        W24603  15.890   3.642   5.683  0.1706  0.0657 -0.0617
 9473W        W24604   2.014   2.651   0.317  0.0994  0.2997 -0.0128
 9474W        W24605  13.758  17.438  14.815 -0.1938 -0.0929  0.2549
 9475W        W24606   5.469   4.422  11.568 -0.0440  0.0583  0.2212
 9476W        W24607   9.653  14.810   2.116  0.0524 -0.3023  0.0275
 9477W        W24608   6.058   9.000   1.737 -0.2272 -0.0830  0.1071
 9478W        W24609   4.726  17.328  11.615 -0.0460  0.1423  0.0897
 9479W        W24610   2.196   0.745   5.266  0.0862  0.1963 -0.0547
 9480W        W24611  17.182   5.576  14.582 -0.2525 -0.2223  0.1236
 9481W        W24612   5.018   8.249   2.059  0.2631 -0.1270 -0.1792
 9482W        W24613   7.175   1.458  14.169  0.2060 -0.0087  0.0331
 9483W        W24614  13.482  11.804  14.461  0.1659  0.1855 -0.0011
 9484W        W24615   7.242  14.287   0.237  0.0029  0.1690  0.1579
 9485W        W24616  14.078  13.042   5.393  0.2915  0.0419 -0.1009
 9486W        W24617  14.206   4.114  12.264  0.1523 -0.4457  0.1321
 9487W        W24618  12.347   8.293  15.378 -0.3168  0.2270  0.4321
 9488W        W24619  15.530  12.756  14.453  0.1346 -0.0960  0.2133
 9489W        W24620  15.930   3.541  11.745  0.1916 -0.1138  0.2095
 9490W        W24621  14.894  17.486   5.417 -0.0663 -0.2027 -0.0131
 9491W        W24622  14.926   8.590  11.329 -0.1207  0.1932  0.2929
 9492W        W24623   9.502  11.641   5.508 -0.1016  0.2106  0.2127
 9493W        W24624  17.118   5.492  15.170 -0.1950  0.0810  0.0692
 9494W        W24625   5.704   5.437  10.641 -0.1082  0.1378  0.2630
 9495W        W24626  11.152  10.143   4.944  0.0527  0.0874  0.1424
 9496W        W24627  16.044  10.150   5.615 -0.2071  0.0085  0.1282
 9497W        W24628  14.949   3.318  11.317  0.1934 -0.2134  0.0267
 9498W        W24629  13.877   7.078   1.233  0.1613  0.1175  0.2234
 9499W        W24630  15.180   6.885  11.639 -0.1673 -0.1545 -0.1703
 9500W        W24631   1.979   0.919  16.070 -0.0836  0.0813  0.3315
 9501W        W24632   0.153   1.638  11.870 -0.2317 -0.1371  0.0925
 9502W        W24633   1.894   8.898  10.956 -0.0674 -0.0908  0.1144
 9503W        W24634  12.377   4.456  15.997  0.0949  0.0184 -0.1754
 9504W        W24635  12.605   0.529  14.200  0.0598 -0.2046 -0.1057
 9505W        W24636   5.292   4.639   0.935  0.0538 -0.0058 -0.1140
 9506W        W24637  12.496  10.677   4.349  0.3741 -0.1378  0.1226
 9507W        W24638   1.381  18.043   3.198  0.1483  0.0495  0.1072
 9508W        W24639   0.318   6.439   3.937 -0.3094 -0.3282  0.1170
 9509W        W24640   0.996  10.459   5.167  0.2771  0.1975 -0.1079
 9510W        W24641   0.853  13.566  14.947 -0.1144  0.0612  0.0525
 9511W        W24642   9.381   5.616   5.703 -0.0889 -0.0038 -0.1790
 9512W        W24643  10.217  12.707  13.519 -0.1044 -0.0235 -0.2103
 9513W        W24644   5.866  13.247  15.876  0.3480 -0.0498  0.0761
 9514W        W24645  10.952  16.951   2.171 -0.0433  0.1216  0.0384
 9515W        W24646   0.084  15.373   2.457 -0.2116 -0.1625 -0.1426
 9516W        W24647  17.862  12.798   3.981 -0.2672 -0.5224 -0.0603
 9517W        W24648   4.315   6.214  14.796 -0.0399 -0.2402 -0.3416
 9518W        W24649   5.770  17.162  14.627 -0.0493  0.0534 -0.1705
 9519W        W24650   0.837   4.266  13.564  0.1249 -0.0847  0.0988
 9520W        W24651   6.728  13.100  11.365 -0.0954  0.0196 -0.0224
 9521W        W24652  11.674  13.507   2.424 -0.2124 -0.0733  0.2704
 9522W        W24653   0.359  12.494   3.355 -0.3079 -0.2119 -0.2629
 9523W        W24654   1.980   4.149  13.126 -0.0199  0.0499  0.1071
 9524W        W24655  13.880  13.947   4.627 -0.0109 -0.1032  0.0083
 9525W        W24656  10.574   4.943   5.040  0.2893  0.3453  0.0418
 9526W        W24657   9.288  17.718  15.796 -0.6615  0.3173  0.0300
 9527W        W24658   1.676   0.619   2.562  0.3571  0.1799 -0.2436
 9528W        W24659  15.326   2.572   4.927  0.1430  0.0415  0.0875
 9529W        W24660   0.061  10.251   0.255  0.0781 -0.2118  0.2333
 9530W        W24661   0.696   8.387  13.809  0.1954  0.2668  0.1571
 9531W        W24662   5.343   5.094   5.931  0.1856 -0.0237 -0.1652
 9532W        W24663   2.648  13.343  13.923 -0.2214 -0.0421  0.2625
 9533W        W24664  15.413   0.186   3.260  0.2016  0.0044 -0.1810
 9534W        W24665   9.950   9.534   3.488  0.1841 -0.1287  0.0682
 9535W        W24666   3.480  16.643  12.842 -0.2332 -0.1848 -0.1464
 9536W        W24667   4.326  13.305  11.509  0.0382  0.0403 -0.0155
 9537W        W24668   3.759  17.394  13.588  0.1107 -0.3954  0.3793
 9538W        W24669   5.486  16.281  16.301  0.2413  0.0599  0.0455
 9539W        W24670   5.310  15.534   0.920  0.2133  0.1893 -0.1196
 9540W        W24671   5.963   6.473  15.299 -0.0500 -0.1274  0.5103
 9541W        W24672  14.354   1.494  14.252  0.0197 -0.1650  0.0957
 9542W        W24673  13.956  14.591  12.586  0.0488  0.0274 -0.0904
 9543W        W24674  17.961   8.278   4.704  0.1593  0.1348  0.0533
 9544W        W24675   4.185  15.527   5.827 -0.1988  0.0671  0.2823
 9545W        W24676  17.442  16.003   2.243  0.1077  0.3160 -0.1362
 9546W        W24677  11.724   1.569   5.740 -0.3062  0.1108  0.1294
 9547W        W24678  17.175  17.004  15.768 -0.2299  0.1276 -0.0578
 9548W        W24679  14.729   1.393  14.660 -0.0686  0.1480 -0.0392
 9549W        W24680  11.412  17.366  12.340 -0.0028 -0.0460 -0.0558
 9550W        W24681   8.019   5.484   3.758 -0.2875  0.0175  0.2058
 9551W        W24682  12.970  12.951   5.280 -0.0400  0.0175 -0.0915
 9552W        W24683   6.813  15.553   1.981 -0.1462  0.2924 -0.3125
 9553W        W24684  11.270   3.542  14.558  0.2454  0.0331 -0.2295
 9554W        W24685   6.755  13.691   5.862  0.1071 -0.3603  0.2490
 9555W        W24686  17.840   3.816   1.216  0.0898 -0.0967 -0.4244
 9556W        W24687  12.822   0.707  15.986  0.0258  0.1416 -0.2085
 9557W        W24688   5.790   1.730  13.868 -0.0258  0.3001  0.0074
 9558W        W24689  12.160  16.869   1.176 -0.3074 -0.0066  0.1658
 9559W        W24690   0.109   3.102  14.204 -0.0396 -0.0669  0.1355
 9560W        W24691   3.258   8.747   3.068  0.3361  0.2811 -0.0198
 9561W        W24692   9.389  13.683   0.717  0.2173  0.0270  0.1452
 9562W        W24693  12.956   6.006   2.823 -0.1189  0.0938 -0.2455
 9563W        W24694   8.558   2.484  15.071 -0.2256  0.0115 -0.2287
 9564W        W24695   9.195  13.679   1.405  0.2835  0.1413  0.0425
 9565W        W24696   1.377   8.234  16.311 -0.0702 -0.0385  0.1158
 9566W        W24697   0.163  12.013   0.077  0.2581 -0.3322 -0.2328
 9567W        W24698   0.974  15.097   2.286 -0.0829  0.5035  0.3050
 9568W        W24699  18.063  17.959   2.796 -0.4447  0.0869 -0.0312
 9569W        W24700  17.004  15.828  11.649  0.3322 -0.1265  0.0905
 9570W        W24701  15.356  16.669   3.131 -0.2829 -0.0122  0.2084
 9571W        W24702  12.971  18.000  12.905  0.2930  0.2739 -0.3481
 9572W        W24703  16.318  16.892   1.195  0.3899  0.2641 -0.0792
 9573W        W24704  15.180   8.337  16.392 -0.0201 -0.1743  0.2241
 9574W        W24705   9.796   7.473   2.485  0.2607 -0.1089 -0.2224
 9575W        W24706  16.948   9.770   3.343 -0.3697 -0.0888 -0.2024
 9576W        W24707  14.636   0.687  10.253 -0.1136  0.2005  0.1703
 9577W        W24708  14.374   1.228   2.045  0.1069 -0.0396 -0.2896
 9578W        W24709   7.954   2.452  15.641 -0.2170  0.1254 -0.0222
 9579W        W24710   4.382   5.399  16.413  0.4117 -0.0459 -0.2665
 9580W        W24711   5.748  10.397  14.523  0.0271  0.3268 -0.3252
 9581W        W24712  10.762   7.468  15.055  0.1648 -0.3357  0.0776
 9582W        W24713  10.470  11.202   2.825  0.2251 -0.1705  0.1994
 9583W        W24714   5.542   4.909   0.569 -0.0074  0.1495  0.0472
 9584W        W24715  14.331  10.906  16.392 -0.1550  0.1007 -0.0526
 9585W        W24716  11.909   9.685  15.844 -0.5138 -0.0234 -0.0162
 9586W        W24717   1.946  12.304   4.330  0.1339  0.1780 -0.1064
 9587W        W24718  14.309   5.182   1.987 -0.0325  0.2341 -0.3340
 9588W        W24719  17.043  12.580   6.138 -0.3211 -0.0081  0.0318
 9589W        W24720  11.771   7.741   5.770 -0.2801 -0.0364  0.1136
 9590W        W24721  16.907  12.909  13.807  0.1224 -0.0001  0.0818
 9591W        W24722  10.152   5.853  14.520 -0.1243 -0.1226 -0.2579
 9592W        W24723  10.393   4.729  12.627  0.1856 -0.0053  0.0878
 9593W        W24724   7.479  14.680  13.251  0.2930 -0.1474 -0.0097
 9594W        W24725  15.396   7.730  11.583  0.1681  0.0625 -0.3390
 9595W        W24726  11.381  16.562   3.394  0.1334 -0.0683  0.0287
 9596W        W24727   8.852  16.911  15.349  0.0055 -0.1353  0.2345
 9597W        W24728  10.549   7.327  13.057  0.2634  0.1055  0.0042
 9598W        W24729   3.053  15.144  15.419  0.2357 -0.1556 -0.3115
 9599W        W24730  10.651   6.851  14.985  0.1137  0.1546  0.1360
 9600W        W24731   7.666   2.441  11.879 -0.1742 -0.2587  0.0841
 9601W        W24732  11.503  10.934   1.075  0.2574  0.1392  0.3155
 9602W        W24733  16.166   1.967   5.791  0.1025  0.1530 -0.4149
 9603W        W24734  10.114  14.444  16.273  0.1603  0.1996 -0.0857
 9604W        W24735   8.848   4.134  14.080  0.0944  0.0853 -0.1705
 9605W        W24736  14.447  12.893  14.474 -0.0808  0.1363 -0.0842
 9606W        W24737   3.897  11.361   2.017 -0.1782 -0.2191 -0.0310
 9607W        W24738  16.817  11.418  12.140 -0.1056  0.0220 -0.3710
 9608W        W24739   0.185   4.495  11.251  0.2326 -0.0697  0.1743
 9609W        W24740   6.339   0.193  14.801 -0.0172  0.0317 -0.1289
 9610W        W24741  15.830  10.312  13.955  0.2128 -0.1805  0.1864
 9611W        W24742   6.578   9.863  16.018  0.0810  0.0052 -0.0484
 9612W        W24743   8.174   5.450   2.786 -0.0809  0.0331  0.1649
 9613W        W24744   3.727   5.545  12.441 -0.0043  0.0383 -0.0633
 9614W        W24745   2.553   1.150  11.641 -0.2529 -0.0186  0.1054
 9615W        W24746   5.606  15.625   0.490 -0.1982  0.3016  0.2071
 9616W        W24747  17.058   8.184   2.521  0.0978  0.0023 -0.4273
 9617W        W24748  17.405  14.910  11.027  0.0887 -0.1295  0.0264
 9618W        W24749  15.628  10.927  12.515 -0.1005 -0.1504 -0.1390
 9619W        W24750   3.037  12.232  11.515 -0.0756 -0.0591  0.3932
 9620W        W24751  18.066  13.547   5.636  0.3921  0.3028  0.2042
 9621W        W24752   1.306   9.764   0.702 -0.1522  0.0661 -0.1408
 9622W        W24753   5.555  11.696  15.542 -0.0935  0.1133  0.1294
 9623W        W24754   3.247   9.335  13.247  0.0956  0.1409  0.1721
 9624W        W24755  16.097  11.107  16.330  0.3971 -0.0351 -0.3965
 9625W        W24756  15.630   1.280  11.767 -0.0268 -0.1068 -0.0646
 9626W        W24757   4.331  11.024  15.222 -0.0507  0.2481 -0.4987
 9627W        W24758   4.554   9.967   9.817  0.1127  0.1412  0.2318
 9628W        W24759  12.610  13.052   2.466 -0.1116  0.2889  0.0386
 9629W        W24760  12.930  13.696  12.388  0.0223 -0.1948  0.0305
 9630W        W24761   8.053   1.494  13.957  0.1725 -0.1656 -0.0060
 9631W        W24762  15.293  15.176  16.130 -0.1483 -0.1128  0.2031
 9632W        W24763  11.419  10.564  11.176 -0.2257  0.1942 -0.0109
 9633W        W24764  11.567  11.621  12.477  0.0401  0.1349  0.2591
 9634W        W24765   1.082   0.308   0.843  0.1357  0.1534  0.2135
 9635W        W24766  13.932   2.268  13.904  0.2511  0.1471 -0.0012
 9636W        W24767  10.420  15.491   1.097  0.0830  0.1969  0.2103
 9637W        W24768  12.621   3.805   0.800 -0.0051  0.0938 -0.2757
 9638W        W24769   6.335   1.728   2.738  0.4244  0.1588  0.1282
 9639W        W24770  10.679   8.926   1.753  0.0162 -0.1164  0.0563
 9640W        W24771  15.510   8.455  13.766  0.0247 -0.1321 -0.2412
 9641W        W24772   2.867  16.974   0.260  0.1978 -0.1806 -0.1551
 9642W        W24773  10.377   0.201   5.860 -0.0211 -0.1979 -0.0754
 9643W        W24774   8.340  13.450  16.333 -0.2518  0.0056 -0.0927
 9644W        W24775  14.397   8.852  13.363  0.0996 -0.1390  0.2555
 9645W        W24776   4.995  14.826   0.119 -0.2109  0.1288 -0.2358
 9646W        W24777  15.171   3.296   6.404  0.0896  0.3329  0.1229
 9647W        W24778   1.479  13.383  11.856 -0.1262 -0.1144 -0.1774
 9648W        W24779  17.769  11.789  14.309  0.3219  0.0612 -0.2386
 9649W        W24780   2.268   6.931  12.059  0.2619 -0.0868  0.2038
 9650W        W24781   3.283   7.397  14.680  0.0309  0.0184  0.1894
 9651W        W24782  17.444   1.653   1.052 -0.2871  0.1209 -0.3597
 9652W        W24783   7.009  14.296   5.241  0.2206 -0.0788  0.0664
 9653W        W24784   6.273   4.573   0.011  0.0689 -0.0185 -0.3047
 9654W        W24785   3.453   2.852   0.691  0.2453  0.0397  0.1464
 9655W        W24786  10.956   8.819  12.719  0.2184 -0.3342 -0.0423
 9656W        W24787   3.258   0.680  15.444  0.0228 -0.1964 -0.4463
 9657W        W24788   1.094   7.563   0.841  0.4853  0.1740 -0.1680
 9658W        W24789   8.835  11.892   0.476  0.0224  0.0003  0.1495
 9659W        W24790  16.604  14.581   6.142 -0.1374  0.0757  0.1459
 9660W        W24791   6.804   2.701   4.066  0.0953 -0.2126  0.0118
 9661W        W24792   7.109   1.569  14.860  0.0355  0.2534 -0.3378
 9662W        W24793  18.067  10.068   1.904 -0.1613  0.0544  0.2239
 9663W        W24794  16.918  12.593   0.745  0.1146  0.4661 -0.3056
 9664W        W24795   9.138   0.848  15.057 -0.1988  0.0989  0.3872
 9665W        W24796   8.430   0.766   5.680  0.0281 -0.0505 -0.1361
 9666W        W24797   9.460  10.567  16.276  0.0719 -0.1559  0.1670
 9667W        W24798   5.929  13.290  14.682  0.2189  0.0003 -0.3141
 9668W        W24799   8.523   2.352   1.088 -0.0617  0.2542 -0.0138
 9669W        W24800   2.703  16.531  14.724  0.1188  0.0666 -0.0739
 9670W        W24801  15.649   6.975  12.218 -0.0051 -0.1770  0.3562
 9671W        W24802   0.611   4.672  11.070  0.1967  0.4257  0.1612
 9672W        W24803   2.313   7.044  13.231  0.0123 -0.0027 -0.0184
 9673W        W24804   4.895  16.668  14.470 -0.0002  0.0640 -0.3657
 9674W        W24805  13.995   1.968   2.710  0.2191  0.2012 -0.0003
 9675W        W24806  11.184  13.385  16.276  0.0992 -0.3040  0.0004
 9676W        W24807   7.177   4.960   3.051  0.0167 -0.0373  0.0076
 9677W        W24808   4.311  13.026  13.017 -0.0724  0.0994  0.2287
 9678W        W24809   2.662   7.771  10.740  0.3176  0.1674  0.0577
 9679W        W24810   8.993   4.063   4.148  0.1201  0.0190  0.3457
 9680W        W24811  11.713   6.465  11.432 -0.0005 -0.2800 -0.0989
 9681W        W24812  17.406  15.563   2.878  0.0495  0.0883  0.1578
 9682W        W24813  11.599   2.453   0.037 -0.1206  0.1050  0.1414
 9683W        W24814   5.122   0.605  12.625 -0.1530  0.2651  0.2036
 9684W        W24815   6.755  15.698  13.902 -0.1822 -0.3206 -0.0637
 9685W        W24816  10.971   6.127   1.675 -0.0002 -0.0560  0.0120
 9686W        W24817  10.227   7.717   2.789  0.1900 -0.1110  0.0596
 9687W        W24818  11.037   8.110   1.622 -0.2154  0.1042 -0.0738
 9688W        W24819   3.598  10.019  11.783 -0.0577 -0.0539  0.1781
 9689W        W24820   1.862   9.401  16.301 -0.0728  0.3937 -0.1781
 9690W        W24821  17.900   8.311  15.543 -0.5439  0.0541 -0.0791
 9691W        W24822   3.687   2.881  11.964  0.0364  0.4069  0.1301
 9692W        W24823   6.295  13.908  13.801 -0.0233  0.0602  0.0942
 9693W        W24824  12.073  11.200   5.903  0.5093  0.2896  0.1934
 9694W        W24825   1.834   1.459   5.753 -0.1757 -0.3337 -0.0852
 9695W        W24826   5.483   4.020   4.699 -0.2504  0.2551 -0.3835
 9696W        W24827   5.797  14.904   0.974 -0.0185 -0.0129  0.2255
 9697W        W24828   2.319  14.774   1.939  0.3367 -0.1084  0.1959
 9698W        W24829   7.133  14.618  15.875 -0.0113  0.1398 -0.2760
 9699W        W24830  10.968   1.301  12.733  0.0417  0.1511  0.3998
 9700W        W24831   2.712  16.351  12.768  0.1393 -0.0925 -0.0860
 9701W        W24832   1.743   9.186   5.056  0.0853  0.0991 -0.1594
 9702W        W24833   6.453  15.132  11.376 -0.0736  0.1806 -0.2135
 9703W        W24834  14.005  15.990   5.202 -0.2347  0.0517 -0.0566
 9704W        W24835  10.548  17.844  12.842 -0.5606  0.0935  0.3284
 9705W        W24836  11.276   9.695   5.195 -0.3288 -0.0636 -0.1461
 9706W        W24837   1.502   9.049  15.775  0.0701  0.1240 -0.1558
 9707W        W24838  13.944   8.353  10.778 -0.0018  0.1627 -0.1028
 9708W        W24839  14.748   2.376   4.225 -0.2862 -0.0910 -0.0150
 9709W        W24840  17.374  16.573  16.358  0.1631 -0.0788 -0.0263
 9710W        W24841   4.601   9.530   0.542 -0.1154 -0.1211  0.2885
 9711W        W24842   7.624   6.494  15.744  0.1715  0.2130  0.1331
 9712W        W24843   4.630   3.301   1.958  0.1477 -0.0328  0.1144
 9713W        W24844   7.057   3.811   2.822 -0.0008 -0.0606 -0.2132
 9714W        W24845   5.491   8.463   0.101  0.0890 -0.1336  0.3385
 9715W        W24846  15.164  10.540   2.079 -0.2315  0.2618 -0.0765
 9716W        W24847   4.913  11.314   5.234 -0.2265  0.1027 -0.2935
 9717W        W24848  10.657  11.297   1.768 -0.1364 -0.1748 -0.1231
 9718W        W24849  16.776   5.633   0.674  0.1866 -0.0971  0.1137
 9719W        W24850   5.675  10.793   3.657 -0.2241  0.5776  0.5287
 9720W        W24851   2.511  13.704   4.754  0.0195 -0.0493 -0.0194
 9721W        W24852  13.938   3.125   4.410  0.0055 -0.2131 -0.1047
 9722W        W24853   8.966   2.957  12.256  0.0348 -0.0997 -0.2697
 9723W        W24854  10.641   2.126  10.686 -0.0594  0.2838  0.0017
 9724W        W24855   9.326   3.919  12.678 -0.0772  0.2958 -0.3178
 9725W        W24856  16.836   3.164   0.132  0.0427 -0.1312 -0.1768
 9726W        W24857  13.658  13.995  11.085  0.0571 -0.1830 -0.3547
 9727W        W24858   0.870   1.590   0.564 -0.2453  0.2113  0.1011
 9728W        W24859  11.269  10.099  14.573 -0.3589  0.0085  0.3160
 9729W        W24860   1.222  11.604   1.012 -0.2988 -0.0691  0.0470
 9730W        W24861  17.923  12.116   3.654  0.0421 -0.1039  0.0406
 9731W        W24862  11.844  12.462   6.315 -0.0782  0.0106 -0.3495
 9732W        W24863   6.683  15.720   4.710  0.0378  0.1603 -0.2185
 9733W        W24864   1.481  10.966  13.426  0.1402  0.0079  0.0441
 9734W        W24865   1.435  15.102   2.972 -0.0294 -0.1238  0.2052
 9735W        W24866  10.048  16.057   4.477 -0.0405  0.0383  0.0047
 9736W        W24867  18.019   9.965   0.753 -0.0093 -0.1266  0.0131
 9737W        W24868   8.410  16.418  15.183 -0.3105  0.2779  0.3189
 9738W        W24869  13.930  15.129   4.709  0.3769  0.2305  0.2460
 9739W        W24870  11.332   5.967  12.474 -0.3643 -0.1979  0.5778
 9740W        W24871  15.960  12.197   0.210 -0.2112 -0.2172  0.0975
 9741W        W24872   5.771  13.701  14.924  0.0491 -0.0564  0.2872
 9742W        W24873  14.166  17.050   0.824 -0.2396  0.0804 -0.1227
 9743W        W24874   3.040  10.325   0.722 -0.1309 -0.1709 -0.1884
 9744W        W24875  16.343   2.285   6.084  0.0326  0.1321 -0.2429
 9745W        W24876  10.084   1.242   1.603  0.1004  0.3392  0.0286
 9746W        W24877   1.445  15.251   2.304  0.0603  0.1440 -0.1518
 9747W        W24878   3.772  17.131   0.401 -0.3658  0.3291  0.3081
 9748W        W24879  15.423  10.902   2.104 -0.1694 -0.1194 -0.2123
 9749W        W24880   3.749   1.245   3.387  0.3877  0.2511 -0.0794
 9750W        W24881  12.524   2.904  10.038  0.4643 -0.1154 -0.0376
 9751W        W24882   5.971   4.298  16.169 -0.3607  0.2191  0.0932
 9752W        W24883   5.319   2.017   2.820  0.0792  0.0184 -0.0757
 9753W        W24884  15.323   7.769   5.158  0.1462 -0.0385  0.2859
 9754W        W24885   4.663  11.443   1.282 -0.0484  0.2038 -0.0085
 9755W        W24886   0.468  17.952   2.762 -0.2081  0.0591  0.4082
 9756W        W24887   0.131  16.089   0.146 -0.3649 -0.0738  0.1919
 9757W        W24888   6.839   5.173   2.556  0.0033  0.0644 -0.0753
 9758W        W24889   3.807  11.436  11.805  0.0359  0.2702 -0.0532
 9759W        W24890   2.307  16.494  15.499  0.0071  0.3595 -0.0650
 9760W        W24891   5.965   3.650   1.653  0.3357 -0.1085 -0.0044
 9761W        W24892   5.269  13.342   0.960  0.0297 -0.0327 -0.0612
 9762W        W24893  17.217  13.887   3.371 -0.2041 -0.3160 -0.0383
 9763W        W24894  17.433  10.137  12.735  0.2478  0.3108  0.1216
 9764W        W24895  10.267  14.823  12.622 -0.1127  0.2051  0.1718
 9765W        W24896   9.625   0.835   5.041 -0.1003  0.0529 -0.2240
 9766W        W24897  14.493  14.716   5.020 -0.0510 -0.0542 -0.1126
 9767W        W24898   5.859  12.084  14.603 -0.2227 -0.1583  0.1811
 9768W        W24899   7.996   5.707   0.993  0.0039  0.0030 -0.0450
 9769W        W24900  13.548  15.990  12.214 -0.0385  0.0445 -0.0512
 9770W        W24901   4.329   6.466   4.209  0.1506  0.0668 -0.1406
 9771W        W24902   4.163  16.867   0.248  0.0315  0.1359 -0.0718
 9772W        W24903  10.993   9.514   3.887  0.3641 -0.3308  0.0023
 9773W        W24904  13.904   8.823   0.628  0.1388 -0.0438 -0.1231
 9774W        W24905  12.224   4.815  14.676 -0.0284 -0.1832 -0.1181
 9775W        W24906   9.689   4.920  13.242 -0.1121 -0.4300  0.1754
 9776W        W24907   7.118   0.226  11.360 -0.1504 -0.0501  0.1696
 9777W        W24908  10.633   9.556  11.720  0.0206 -0.0277 -0.2962
 9778W        W24909   7.166  10.216   3.149 -0.1100 -0.1375  0.3321
 9779W        W24910   9.179   4.691   2.166  0.3807 -0.1041 -0.1071
 9780W        W24911   7.624   3.099   0.912  0.3098 -0.0517  0.0607
 9781W        W24912  18.023  10.572   4.307  0.1097 -0.2685  0.0902
 9782W        W24913   8.190  14.548  11.262  0.0914  0.3164  0.0048
 9783W        W24914   8.067   0.244   3.570  0.1522  0.0200  0.0804
 9784W        W24915   6.768   8.512  15.499  0.1103 -0.0230  0.4185
 9785W        W24916  15.206  17.904   5.213  0.1238  0.0023  0.0088
 9786W        W24917   6.099   7.232  15.741  0.1643 -0.2498 -0.3048
 9787W        W24918  14.544  12.655  11.206 -0.4134  0.0128  0.3260
 9788W        W24919  12.561   3.588   3.442 -0.2157  0.1792  0.0425
 9789W        W24920   3.086   5.547  13.477 -0.0083 -0.2520  0.0045
 9790W        W24921   4.343   2.989   3.780 -0.0074  0.1452 -0.1952
 9791W        W24922   3.466   5.057  13.508  0.1441  0.0552 -0.0562
 9792W        W24923   4.322  15.929  13.854 -0.1009  0.0193 -0.1429
 9793W        W24924  12.321  16.039   5.171 -0.2825 -0.0680 -0.3188
 9794W        W24925   6.120  13.069  15.528 -0.1313  0.1377  0.1682
 9795W        W24926   1.573  15.063   5.386 -0.0337 -0.1149  0.4261
 9796W        W24927   2.846   6.306   2.175 -0.1227 -0.3363  0.0346
 9797W        W24928   2.608  12.880   4.574 -0.0354  0.2176 -0.0697
 9798W        W24929   2.918   9.489   4.938  0.0862  0.1704  0.2325
 9799W        W24930   9.458   1.375   5.111  0.0499 -0.4342  0.0471
 9800W        W24931  13.443  12.818   1.359 -0.1692  0.0843 -0.1026
 9801W        W24932   8.262  14.148  14.932 -0.1704  0.3729  0.1249
 9802W        W24933   8.253   8.976  14.485 -0.2990  0.1008 -0.2464
 9803W        W24934   1.131   7.526  11.677 -0.1705  0.1486  0.0462
 9804W        W24935  13.098   3.559  10.436 -0.0678  0.1028  0.3660
 9805W        W24936   3.644   4.138   0.128  0.1142  0.1712 -0.0111
 9806W        W24937   7.499  16.286   4.285 -0.0080  0.1662 -0.2145
 9807W        W24938   9.829   6.089   0.859  0.2291  0.2203 -0.4322
 9808W        W24939   5.924   8.107   0.857  0.0205  0.3552 -0.1302
 9809W        W24940   6.670   4.991   1.712 -0.2980 -0.0330 -0.0403
 9810W        W24941   5.474   4.089   1.490  0.3107  0.0311  0.2603
 9811W        W24942  16.674  12.846  13.087 -0.0155  0.1457  0.0295
 9812W        W24943  10.859  11.779   1.690  0.1397  0.0322 -0.0492
 9813W        W24944  12.621   1.759  12.014  0.1591 -0.0556 -0.2140
 9814W        W24945   6.451   7.894  11.365  0.0907  0.0008 -0.1957
 9815W        W24946  16.160   8.181   1.304 -0.1322 -0.1105  0.2916
 9816W        W24947   5.372  15.136   0.527  0.0404  0.1241 -0.2869
 9817W        W24948   9.900   8.327  13.420  0.0448 -0.1030 -0.0725
 9818W        W24949   7.489   0.804  12.442  0.1627  0.2266 -0.2298
 9819W        W24950   3.129   7.593   4.426  0.0383 -0.2311 -0.0364
 9820W        W24951  15.754   6.933  15.354 -0.0841  0.2672 -0.3321
 9821W        W24952   3.845   5.529  14.255  0.1034 -0.1010  0.1380
 9822W        W24953  16.617   8.806  13.918 -0.1499 -0.1142 -0.1330
 9823W        W24954  12.188  16.523  13.714 -0.0989  0.0791 -0.2214
 9824W        W24955   6.128  11.361   0.163 -0.0249  0.0325  0.0937
 9825W        W24956  16.620  18.044  12.106 -0.2055 -0.2308 -0.0345
 9826W        W24957   3.265  12.939   1.580 -0.0429  0.5097  0.1937
 9827W        W24958  14.394  10.900   2.214 -0.1510  0.1746  0.3642
 9828W        W24959   6.036  15.544  16.147  0.0214  0.3061  0.0262
 9829W        W24960   4.268  16.271  14.213 -0.2241 -0.0915  0.0930
 9830W        W24961   1.017  16.884   1.469  0.0777  0.0183  0.0930
 9831W        W24962  13.362   8.269   5.100 -0.0167  0.1241 -0.0249
 9832W        W24963   8.675   4.661  14.303  0.1626 -0.0181 -0.2530
 9833W        W24964  13.649  12.994  15.514 -0.2299 -0.1926 -0.2545
 9834W        W24965  18.015   1.182  14.006 -0.3049  0.0595  0.3586
 9835W        W24966  12.095   1.479   5.422 -0.1567 -0.2425  0.0827
 9836W        W24967  10.498   1.512   1.863  0.0613  0.1761  0.0721
 9837W        W24968  17.266  12.189  15.776 -0.0282  0.0338 -0.1360
 9838W        W24969  10.462   1.370  13.219  0.2408  0.0241  0.1809
 9839W        W24970   9.700   7.759  13.359 -0.1610  0.0676 -0.0963
 9840W        W24971   1.189   1.943   0.464  0.0744 -0.1426  0.2469
 9841W        W24972   5.478   3.449   4.808  0.0664 -0.0913  0.3393
 9842W        W24973   2.025   2.759   1.255  0.0351 -0.0668  0.0258
 9843W        W24974  17.017   3.590  11.422  0.3070  0.1739 -0.2949
 9844W        W24975  16.169   4.815  12.243 -0.2127  0.1478 -0.0788
 9845W        W24976   6.760  17.885  12.094  0.0972  0.0238 -0.0329
 9846W        W24977   4.791  12.846  14.659  0.1493  0.0322  0.1740
 9847W        W24978  15.197   7.713  16.145 -0.2498 -0.0950  0.1070
 9848W        W24979   0.673   5.370   2.401 -0.1332  0.1092 -0.2590
 9849W        W24980  15.655   4.121   5.482 -0.3491  0.0672  0.0183
 9850W        W24981   9.978  14.608  15.393  0.3281 -0.1400  0.0461
 9851W        W24982   7.720   8.618  16.027  0.1720  0.0312 -0.2968
 9852W        W24983   5.404  17.261  12.166  0.1533 -0.0723  0.2267
 9853W        W24984  17.958   5.459  14.098 -0.0748 -0.0317 -0.0008
 9854W        W24985   8.003  14.114  14.479 -0.2199 -0.2512  0.2554
 9855W        W24986  13.717   6.397   2.198  0.0404 -0.0416  0.0648
 9856W        W24987  14.822   4.853   4.360  0.0586  0.1475  0.1373
 9857W        W24988  17.555   1.156  12.390 -0.0467 -0.2120 -0.0682
 9858W        W24989  17.714  16.657   3.904  0.0875 -0.3347  0.0127
 9859W        W24990  13.143   3.766   1.758  0.0695 -0.1525 -0.1557
 9860W        W24991   9.083  12.233   0.255 -0.0369 -0.0709 -0.4839
 9861W        W24992   0.293   4.982  16.220  0.2379  0.0125 -0.3547
 9862W        W24993  10.362  16.987  13.314  0.1509  0.2364 -0.2314
 9863W        W24994   8.143   0.192  15.241  0.1889  0.1297  0.0441
 9864W        W24995   6.191  16.494   1.354  0.0666  0.1461  0.0054
 9865W        W24996   7.099   5.283  12.418  0.0443 -0.0446 -0.0091
 9866W        W24997   3.760  11.918   4.599 -0.0563  0.1944 -0.1961
 9867W        W24998  11.115  17.095  10.632 -0.0043 -0.1748  0.0504
 9868W        W24999  17.442  16.320   4.088 -0.0473 -0.0672  0.2443
 9869W        W25000  16.884   2.393   2.418  0.0668  0.5835 -0.2410
 9870W        W25001   0.250  15.728  11.961  0.0665  0.0272 -0.0635
 9871W        W25002   9.677  11.625  12.894  0.2848  0.2698  0.1213
 9872W        W25003   1.102   6.892   3.032  0.0630  0.3813  0.0336
 9873W        W25004   8.410  17.339   0.656  0.1207 -0.0082  0.0140
 9874W        W25005   3.699  17.652   0.433  0.1255  0.0665 -0.4001
 9875W        W25006  14.907   3.925   5.826  0.1849 -0.1599 -0.0381
 9876W        W25007   7.941  13.084   1.475 -0.3259 -0.0216 -0.1164
 9877W        W25008   2.246  15.549  15.957  0.1586 -0.0830  0.0503
 9878W        W25009  10.385  13.990  12.159 -0.4598 -0.1283  0.3652
 9879W        W25010   1.011  17.392  12.041 -0.1120  0.1744 -0.0193
 9880W        W25011  15.106  17.160  15.322 -0.3614  0.0861 -0.1361
 9881W        W25012  16.052  12.149  13.086 -0.1189  0.2608  0.2013
 9882W        W25013  11.083   4.486   4.643 -0.0676 -0.0791  0.2607
 9883W        W25014   8.928  16.756  11.449 -0.2195 -0.0814 -0.2150
 9884W        W25015   1.859   6.960  12.344 -0.2154  0.1833  0.1917
 9885W        W25016  11.942   8.273   5.156  0.0879  0.4020 -0.0157
 9886W        W25017  17.913   5.183  16.209  0.1586 -0.2262 -0.2421
 9887W        W25018   9.429   4.611   0.124 -0.2859 -0.1059  0.0428
 9888W        W25019   4.507   6.666   3.500  0.2387 -0.1049 -0.0913
 9889W        W25020  11.090  15.980  14.566 -0.1140 -0.1429  0.0720
 9890W        W25021  13.538  13.698   1.584  0.3069 -0.1119  0.1007
 9891W        W25022   8.604   0.697  10.261 -0.3214  0.1370  0.0758
 9892W        W25023   8.375   6.670  13.989 -0.0561 -0.3107 -0.1755
 9893W        W25024   2.795  12.933  14.268 -0.2954 -0.2548 -0.0015
 9894W        W25025  15.908  11.975  12.252  0.0179 -0.1072  0.0631
 9895W        W25026  15.442   5.068   0.614 -0.1596  0.0195 -0.6414
 9896W        W25027   0.606   8.672   2.774 -0.1741  0.1976 -0.2745
 9897W        W25028   5.901   6.040   1.145 -0.1269 -0.1565 -0.0933
 9898W        W25029  10.536   1.634   0.996 -0.1200  0.2961  0.0428
 9899W        W25030  13.619   3.634   2.074  0.0223 -0.1504 -0.0417
 9900W        W25031   7.681  14.976  15.061 -0.2689  0.0961 -0.2966
 9901W        W25032   7.107  15.172  15.090 -0.1681  0.0724  0.1088
 9902W        W25033  12.983   7.031  11.618  0.1396 -0.0739  0.1600
 9903W        W25034   7.500  10.014  12.518 -0.0917 -0.0572 -0.0340
 9904W        W25035   2.726   1.090  16.045  0.1772  0.2760 -0.2745
 9905W        W25036  10.768   6.215   5.671  0.0815 -0.0583  0.2330
 9906W        W25037   2.477  10.119  11.464  0.1499 -0.1527 -0.0773
 9907W        W25038   0.344   2.636  14.145 -0.3452  0.0736 -0.2874
 9908W        W25039  11.856  14.733  15.802  0.3061  0.3579  0.0883
 9909W        W25040  10.376   3.761  11.949 -0.1663 -0.0798  0.1940
 9910W        W25041  10.726   8.256  11.068  0.1792 -0.1719  0.0245
 9911W        W25042   4.330   3.181  11.264 -0.1040 -0.1896 -0.0527
 9912W        W25043  13.018  14.825  15.927  0.2965  0.0307 -0.3193
 9913W        W25044   3.542   1.109   0.413 -0.1250  0.2335  0.1724
 9914W        W25045   2.319  11.993  15.733 -0.0611 -0.0220 -0.0450
 9915W        W25046  12.608  17.587  15.622  0.0206  0.0408 -0.1790
 9916W        W25047   8.524  11.358  15.692  0.2674 -0.1093  0.0856
 9917W        W25048   3.091   4.663   2.151 -0.1917 -0.1311  0.0820
 9918W        W25049   6.573  14.434  12.503  0.1945 -0.0803 -0.2995
 9919W        W25050   5.789  10.956  12.566  0.1086  0.0720  0.0483
 9920W        W25051   6.205   6.253   1.525  0.2690  0.1287  0.0302
 9921W        W25052   7.235   1.311  13.130  0.1547  0.1506 -0.1404
 9922W        W25053   3.901   5.971  10.832  0.2324 -0.1815  0.1668
 9923W        W25054   5.089   7.065   1.939  0.2034  0.1744  0.1199
 9924W        W25055  10.420   7.489   0.313  0.0777 -0.0964  0.1496
 9925W        W25056   9.117  11.866  12.966 -0.2864 -0.2168  0.2515
 9926W        W25057  14.627  10.574   1.878 -0.0408 -0.1095  0.1176
 9927W        W25058  10.799  14.790   1.635  0.0088 -0.0615 -0.0988
 9928W        W25059   6.266  14.041  12.679  0.1318  0.0395 -0.1628
 9929W        W25060  10.256   9.393   1.719 -0.1496  0.3545  0.3994
 9930W        W25061   7.577   3.886   2.672  0.0786  0.1142  0.0555
 9931W        W25062  10.040  15.730   2.058  0.2160  0.1943 -0.0994
 9932W        W25063  11.016   4.028  15.210  0.1702 -0.0975  0.1554
 9933W        W25064   4.802   1.043   0.413 -0.1023  0.1946  0.0286
 9934W        W25065  14.046   4.652  11.367  0.0334 -0.0780 -0.0543
 9935W        W25066   2.272  17.206  11.286  0.3761 -0.1692 -0.0282
 9936W        W25067   5.605  16.453   2.183 -0.0020 -0.0556  0.0670
 9937W        W25068   7.003   2.110  12.533 -0.0332  0.3180  0.0589
 9938W        W25069  16.153  17.208   2.281 -0.4735 -0.2134  0.1961
 9939W        W25070  14.888   8.522   0.264 -0.2192 -0.0453 -0.2326
 9940W        W25071   3.018   4.756  12.717 -0.1033  0.0091  0.0416
 9941W        W25072  10.100  11.269   2.457  0.0863  0.2238 -0.0260
 9942W        W25073  13.361   7.543   4.845 -0.0496  0.2385  0.1671
 9943W        W25074  17.819  14.009   0.239 -0.0860 -0.2458 -0.1203
 9944W        W25075   6.489   6.653  14.681 -0.0165 -0.1949  0.1966
 9945W        W25076   5.849   3.232   4.255  0.1252 -0.2086 -0.1287
 9946W        W25077  18.078  12.076   2.238  0.1532  0.1027  0.3490
 9947W        W25078   0.682  13.091  15.016 -0.2371 -0.0650 -0.2584
 9948W        W25079   1.362  11.153   4.006  0.1534 -0.3013  0.4212
 9949W        W25080   8.984   1.203   4.714 -0.3538  0.0764 -0.4391
 9950W        W25081   4.218   2.555  16.063  0.3529  0.1068  0.1922
 9951W        W25082   7.046   1.846   2.489 -0.2667  0.1546  0.2646
 9952W        W25083  16.122  12.497   0.532 -0.1436 -0.3225  0.2024
 9953W        W25084   2.879   3.595   4.175  0.0721  0.3023  0.0817
 9954W        W25085   5.402   8.242  12.275  0.0733  0.1478  0.0395
 9955W        W25086   6.097  17.166   0.552 -0.0627  0.1501 -0.0805
 9956W        W25087  16.026  18.073  13.177  0.1132  0.4254  0.1405
 9957W        W25088  10.575   5.364   4.146  0.0541  0.1024 -0.0205
 9958W        W25089   6.230  11.373   1.467 -0.0415  0.0752 -0.0536
 9959W        W25090  16.285  12.796   3.101  0.0910 -0.0975  0.2898
 9960W        W25091   7.919  12.586   2.284 -0.0155 -0.0259  0.0880
 9961W        W25092   6.972   1.289   3.174  0.2405 -0.1237  0.0384
 9962W        W25093   0.174   4.329  12.363  0.0159 -0.1827 -0.1988
 9963W        W25094   6.944  13.081  15.704  0.2139 -0.1398  0.1741
 9964W        W25095  17.827   0.637   3.535 -0.0100 -0.1318  0.1102
 9965W        W25096  10.041   7.037   1.671 -0.0041  0.2915  0.0743
 9966W        W25097  15.360   8.190   1.418 -0.0660  0.1654 -0.0459
 9967W        W25098   0.267   7.046  13.882  0.2037  0.1423 -0.1639
 9968W        W25099  12.413   6.846  15.051  0.0644  0.0093  0.1677
 9969W        W25100   1.509  10.571  13.015 -0.1767  0.3141 -0.5229
 9970W        W25101   4.093  15.451   2.975  0.2732 -0.0818 -0.0951
 9971W        W25102  10.874   4.445   3.740  0.1662  0.1279 -0.1160
 9972W        W25103  16.955  18.063  13.381  0.0408 -0.3203  0.1346
 9973W        W25104   4.094   5.054  13.560  0.2747  0.0999  0.0452
 9974W        W25105  10.755   3.254   0.187 -0.0705  0.1047  0.2091
 9975W        W25106  15.124   0.408   5.793  0.1175 -0.1914 -0.0754
 9976W        W25107  12.071  13.647   2.156  0.0936 -0.0643  0.0880
 9977W        W25108   7.118  13.832   5.424  0.3458 -0.0096 -0.2368
 9978W        W25109  14.498   1.692   1.873  0.2959 -0.1228 -0.0436
 9979W        W25110  16.474  15.988   4.279 -0.1467 -0.1493  0.2457
 9980W        W25111  11.114   7.854  14.972 -0.2439 -0.2130 -0.3451
 9981W        W25112  12.575   3.826  12.583  0.0118 -0.0104 -0.3659
 9982W        W25113   4.998   7.349   3.758 -0.2260  0.1945  0.4114
 9983W        W25114  14.901  12.739   3.574 -0.2316  0.0375  0.0999
 9984W        W25115  15.364   9.801  14.791  0.0973 -0.1934 -0.0371
 9985W        W25116  13.948   7.054   4.278 -0.3270  0.1754  0.1408
 9986W        W25117   6.383   0.591   1.599  0.0578 -0.3130  0.0317
 9987W        W25118  14.328  17.165  12.319  0.0830 -0.0676  0.2616
 9988W        W25119  10.899  16.460  12.753  0.1035  0.1540  0.0756
 9989W        W25120  13.216  17.367   5.448 -0.0754 -0.2499  0.1745
 9990W        W25121  16.688  14.978  16.354 -0.1970  0.1298 -0.2639
 9991W        W25122  11.875   2.166  11.692  0.1287 -0.0468 -0.0767
 9992W        W25123  15.516   3.027  15.697  0.2091  0.1877 -0.1666
 9993W        W25124   5.437  10.132   3.736 -0.1266 -0.1045  0.1551
 9994W        W25125  15.672   3.005  12.558 -0.1080 -0.0088  0.1644
 9995W        W25126   2.647   8.412   1.205  0.4700 -0.2201  0.0364
 9996W        W25127   6.731   8.125  13.604 -0.1565  0.0130 -0.2074
 9997W        W25128   9.551   0.035   2.924 -0.3191  0.3004 -0.0974
 9998W        W25129  17.423   1.177   3.335  0.0799  0.1744 -0.0017
 9999W        W25130   6.184  14.363   4.423 -0.3168  0.0270 -0.0454
10000W        W25131  17.367  12.694   3.767 -0.0252 -0.0944 -0.0529
10001W        W25132   7.277   8.705  13.729  0.1407 -0.3824  0.2653
10002W        W25133  15.593  14.673  14.002  0.0892 -0.1582  0.2959
10003W        W25134   8.737   2.203   4.423  0.0778 -0.0717  0.0442
10004W        W25135   5.824   2.222  11.227 -0.1366 -0.0095  0.2886
10005W        W25136  13.543   5.565   0.284 -0.2016 -0.0466  0.1156
10006W        W25137   6.912   9.108  12.461 -0.0872 -0.1161  0.1105
10007W        W25138   9.960   2.822  12.299  0.2162 -0.0097  0.5049
10008W        W25139  14.598   4.251  13.494 -0.1661 -0.1013 -0.0698
10009W        W25140   4.302  15.064  12.319 -0.0569 -0.0819  0.2346
10010W        W25141   2.359  11.030   4.585  0.5052 -0.0581  0.1567
10011W        W25142  16.968   8.474  13.289 -0.0397 -0.1090  0.1134
10012W        W25143  12.810   4.324   0.743  0.0029  0.1080 -0.0203
10013W        W25144   3.500   8.287   3.005 -0.1314 -0.0831  0.2144
10014W        W25145   1.091  12.284   0.168 -0.0484 -0.0823  0.1495
10015W        W25146  15.591   7.644  14.612 -0.1330 -0.1371 -0.1656
10016W        W25147  12.975   9.120  13.620  0.0555 -0.0583 -0.0410
10017W        W25148  12.650   9.810   3.980  0.0031  0.0579  0.1300
10018W        W25149  17.468   9.403   1.991  0.0905  0.0663  0.0052
10019W        W25150  17.476  14.436  14.711  0.0149  0.1679  0.0379
10020W        W25151  10.816   1.181   3.061 -0.0077  0.0043 -0.1808
10021W        W25152   1.077   5.418  14.940 -0.1428 -0.0681 -0.1269
10022W        W25153  10.061  13.878   3.342  0.3802  0.2673  0.3190
10023W        W25154  16.725  17.878  14.980  0.2424 -0.1192  0.1087
10024W        W25155  12.013   8.680  12.833 -0.1425  0.3588  0.1128
10025W        W25156   5.466  10.444  16.034 -0.1651 -0.0140  0.0380
10026W        W25157  11.116  13.357  15.770  0.0453  0.0221 -0.1152
10027W        W25158   5.061   7.750  12.695 -0.0268 -0.2447  0.0118
10028W        W25159   5.313  13.886  14.726 -0.2807 -0.1313  0.2704
10029W        W25160  13.305   8.922   3.281 -0.0288  0.1349 -0.1106
10030W        W25161   5.537   5.894   6.103 -0.0056 -0.0337 -0.0402
10031W        W25162  10.755   4.893   1.477 -0.0162 -0.2517 -0.2042
10032W        W25163  15.810   3.884  12.113  0.2991 -0.3504 -0.1490
10033W        W25164  12.975   5.231   1.506  0.1884  0.0148 -0.0178
10034W        W25165   5.628   8.823   1.568  0.2778 -0.0265 -0.4780
10035W        W25166   7.137   1.243   1.718 -0.2894  0.0163 -0.2605
10036W        W25167  12.381   8.219  12.151  0.0889  0.1473  0.1713
10037W        W25168   7.975   5.711   1.765  0.3781 -0.3866 -0.0937
10038W        W25169   6.717   2.890   0.668 -0.1720  0.4493 -0.0519
10039W        W25170   5.993  15.961  11.655 -0.0355  0.3890  0.2161
10040W        W25171  17.370   5.307  15.611 -0.0745 -0.0206 -0.1665
10041W        W25172  17.439   9.213  15.834  0.2209  0.1228  0.1778
10042W        W25173  10.304  15.005  15.271 -0.1264 -0.0417 -0.1336
10043W        W25174   6.852   7.071   9.983  0.2731 -0.0469  0.0424
10044W        W25175  15.524   0.424  15.629 -0.1393 -0.0046 -0.1290
10045W        W25176   6.652   8.662  13.576 -0.0605  0.0607  0.3291
10046W        W25177  13.408   8.886   2.487 -0.1230  0.0483  0.0394
10047W        W25178   4.437   4.792  14.537 -0.0834 -0.0858  0.1587
10048W        W25179   6.152   7.158   1.038 -0.0180 -0.1907 -0.2323
10049W        W25180   7.559  14.338  15.429  0.2599 -0.0878 -0.0156
10050W        W25181   6.543   6.033  14.270 -0.1633 -0.0387  0.1901
10051W        W25182   5.137  12.584  14.053 -0.0519  0.1534 -0.2744
10052W        W25183  11.374  14.299   5.333  0.2663 -0.0661 -0.0926
10053W        W25184   3.851   0.639   5.913 -0.0423 -0.1499 -0.2896
10054W        W25185  12.832   0.521  15.430 -0.1019 -0.0917  0.1651
10055W        W25186   5.039   1.132   4.804 -0.1104  0.0932 -0.1052
10056W        W25187   6.669  15.147   3.567 -0.4728 -0.1812  0.0886
10057W        W25188  12.868   2.119   0.261 -0.2229 -0.0353  0.0579
10058W        W25189  16.529   8.549  15.462 -0.0743 -0.1623  0.1638
10059W        W25190   5.721   0.908   1.059 -0.1873  0.1913  0.1607
10060W        W25191   5.474   4.840  11.850  0.1610 -0.0868  0.1074
10061W        W25192   4.526   3.833  15.951  0.0110  0.0032  0.0455
10062W        W25193   9.792  15.084  11.809 -0.3159  0.2301 -0.0780
10063W        W25194  14.756   8.174  10.975 -0.1899 -0.1279 -0.0538
10064W        W25195   9.476   3.885  10.155 -0.0940 -0.1512 -0.1294
10065W        W25196  10.145  13.044  14.941  0.0027  0.1824 -0.2622
10066W        W25197   1.869   9.059  14.497 -0.0403 -0.0140  0.2027
10067W        W25198  16.781   6.081  12.666  0.1115 -0.1606 -0.0865
10068W        W25199  13.065   9.436   3.572  0.0033 -0.2341 -0.2457
10069W        W25200  15.724  10.683  12.937 -0.4541 -0.0455 -0.0069
10070W        W25201   5.980   5.027   4.520  0.4280 -0.1368 -0.1024
10071W        W25202   3.893  16.995   1.765 -0.0160 -0.0596 -0.0599
10072W        W25203  10.050  17.006   1.502  0.0520  0.3456  0.0110
10073W        W25204  14.263   0.326  14.626  0.2673  0.3502 -0.3026
10074W        W25205   4.446  17.932  15.772  0.1057 -0.2940 -0.3928
10075W        W25206  13.032  17.118   1.002 -0.0915  0.2453 -0.1969
10076W        W25207   3.279   6.084  15.855 -0.1009  0.0034  0.1761
10077W        W25208   6.100  17.620   0.953  0.0447  0.0472  0.0566
10078W        W25209  12.513  17.160  13.356  0.0376 -0.2724 -0.0524
10079W        W25210   0.024   2.617   1.476  0.2709 -0.0969  0.4565
10080W        W25211  13.884   3.152   3.200  0.0708  0.0015  0.2253
10081W        W25212   0.978  17.043   0.981 -0.0780  0.0367 -0.2099
10082W        W25213  11.312   7.242   3.479 -0.0361  0.0790 -0.2386
10083W        W25214  10.898   4.594   0.010  0.2810 -0.0223  0.0637
10084W        W25215   6.511  17.402   2.520  0.1740 -0.1082 -0.1349
10085W        W25216  16.487   9.684  13.897 -0.3723 -0.1781 -0.0114
10086W        W25217   2.842   9.870  14.611  0.3778 -0.1607  0.1440
10087W        W25218  17.908   7.831  14.763  0.1175 -0.0127 -0.1522
10088W        W25219   4.940  11.794  12.962 -0.0710 -0.0104 -0.1211
10089W        W25220  17.736  12.766   0.976 -0.1043  0.0845  0.0394
10090W        W25221  14.392   7.605  10.416  0.0866  0.2036  0.0116
10091W        W25222  10.357   1.654   2.316  0.1245 -0.0837 -0.1357
10092W        W25223   3.822  13.559   4.172  0.0811 -0.1040  0.4786
10093W        W25224   6.623   5.911  10.490 -0.0112 -0.0123 -0.1585
10094W        W25225   1.985   1.445   1.528  0.0707  0.1395 -0.0592
10095W        W25226  14.023  10.143   4.648 -0.2608 -0.5332  0.0080
10096W        W25227   7.495  12.031  15.050  0.0124  0.2485  0.0247
10097W        W25228  12.271   2.314   2.345  0.0528  0.1791  0.1874
10098W        W25229   5.405   3.014   4.063  0.2165 -0.1245 -0.0060
10099W        W25230  17.534  13.111  10.920 -0.1499  0.0262  0.0167
10100W        W25231  17.289   7.769   1.123 -0.2391  0.0178 -0.0422
10101W        W25232  18.083   3.836   5.633 -0.1925 -0.0819  0.1837
10102W        W25233  13.722  12.234  10.989  0.2907 -0.0845  0.0422
10103W        W25234   6.111  17.331   1.435  0.0044  0.0114 -0.0034
10104W        W25235  15.697   5.246   3.389  0.1478 -0.0773 -0.0527
10105W        W25236  16.707   6.244  14.884  0.0853 -0.1172 -0.3187
10106W        W25237  11.144   9.834   1.608  0.0302 -0.0874 -0.2386
10107W        W25238  12.025   3.304  16.377 -0.2155  0.2392  0.0988
10108W        W25239   0.789   1.170  12.151  0.0542  0.0031 -0.1170
10109W        W25240   3.391   5.054   1.981  0.2325  0.2269 -0.1419
10110W        W25241  13.180   5.752  15.244  0.3254  0.0125 -0.0274
10111W        W25242   9.908   0.124  11.856  0.2309 -0.0445  0.3779
10112W        W25243  17.672   3.095  15.011  0.1738  0.0645 -0.3527
10113W        W25244   3.871  14.748   1.325 -0.1704 -0.1320 -0.1463
10114W        W25245   6.180  17.299  13.547 -0.1587  0.0915  0.0456
10115W        W25246   9.014   1.629   2.236 -0.0611 -0.0375 -0.0196
10116W        W25247   5.589  17.414   1.587  0.0701  0.1879 -0.0602
10117W        W25248  13.057  10.353  14.564  0.2417 -0.0012  0.1921
10118W        W25249  17.137  11.263   4.433 -0.0561  0.1785  0.1597
10119W        W25250   2.951  17.340  14.124 -0.2704 -0.2733 -0.1901
10120W        W25251   5.034   8.114   3.946 -0.0820  0.1184  0.0748
10121W        W25252  16.506  11.880   2.105  0.5820  0.2121  0.3337
10122W        W25253   1.414  17.223   5.334  0.3152 -0.0361 -0.2152
10123W        W25254   9.371  16.121  15.172  0.2503  0.2069  0.0074
10124W        W25255  13.513   9.669   0.795 -0.3282  0.1697  0.1536
10125W        W25256   9.102   6.896   1.511  0.2021 -0.2149 -0.1976
10126W        W25257   7.501  12.047   2.004 -0.1880  0.0175  0.1190
10127W        W25258   9.262   2.961  14.850 -0.1642 -0.0973 -0.0573
10128W        W25259   3.256   9.491   2.408  0.1215 -0.1544  0.1330
10129W        W25260   8.083  14.570   1.798 -0.2493  0.0817 -0.3191
10130W        W25261   6.240  10.588  15.334  0.2975 -0.1010 -0.0182
10131W        W25262   5.087   1.911  16.380 -0.3620 -0.1816 -0.1174
10132W        W25263  17.684  17.162   4.598 -0.0414 -0.1136 -0.1900
10133W        W25264   2.271  17.570   3.214 -0.0016  0.3449 -0.1490
10134W        W25265  16.719   0.384  11.979 -0.3167  0.1825  0.0555
10135W        W25266  14.340  10.367   2.978  0.1367 -0.0484  0.2190
10136W        W25267  16.189  15.706  16.244  0.1981 -0.1129  0.1878
10137W        W25268   1.619   0.508   1.196  0.1734 -0.2676  0.2504
10138W        W25269  12.596   9.129   2.746 -0.1714  0.2178  0.0234
10139W        W25270   6.078   8.787   4.797  0.2366 -0.1554 -0.2515
10140W        W25271  14.683  15.059   0.751 -0.2828  0.0879 -0.1494
10141W        W25272  11.313   9.481  15.185 -0.0884 -0.0671  0.0438
10142W        W25273  14.100  15.446  12.027  0.1309 -0.2115  0.1305
10143W        W25274  13.985   2.085  16.002  0.1957  0.1340 -0.1267
10144W        W25275  12.354   8.996   0.128  0.0269 -0.4021  0.0469
10145W        W25276  11.872   3.634   3.123 -0.2253  0.0795 -0.0876
10146W        W25277   9.478   0.522   0.536  0.3612  0.1045  0.0733
10147W        W25278   3.041   7.331   2.123 -0.1022  0.1316 -0.0079
10148W        W25279   3.547   8.043   1.226  0.0733 -0.1308 -0.2227
10149W        W25280  10.799   4.606  12.339  0.1671 -0.0639  0.1326
10150W        W25281   8.260  12.388  15.583 -0.3851 -0.1425 -0.1183
10151W        W25282  14.333  16.196  16.262 -0.1583  0.0500 -0.0386
10152W        W25283   5.363   6.978  11.702  0.0004  0.0371 -0.1781
10153W        W25284   8.160  17.099   2.723  0.1717  0.0113  0.3502
10154W        W25285   1.408  14.307   0.113 -0.0644  0.0145 -0.2822
10155W        W25286   8.000  15.173   5.646 -0.0349 -0.3256 -0.2408
10156W        W25287  17.891   4.553  10.510 -0.0437  0.0352 -0.1483
10157W        W25288   0.574  14.849  16.062  0.1490  0.0689  0.1478
10158W        W25289  16.932   0.266  11.503 -0.1715 -0.1479  0.0854
10159W        W25290  15.306   5.015   5.240  0.0162 -0.0956  0.0167
10160W        W25291  16.556   3.466   1.493  0.0429 -0.2688 -0.2443
10161W        W25292   8.468   6.220   4.664  0.0279 -0.0431  0.0269
10162W        W25293   9.335   2.487   1.283  0.1225 -0.0156 -0.2079
10163W        W25294  10.253   0.997  10.755  0.0644  0.3075  0.0575
10164W        W25295  16.221   6.927   3.463 -0.0232 -0.1792 -0.1063
10165W        W25296   8.647  10.807   4.160  0.0952 -0.0473 -0.0002
10166W        W25297   9.531   9.045  12.744  0.1945 -0.1708 -0.2288
10167W        W25298  10.943   9.777   1.080  0.0577  0.0056 -0.2224
10168W        W25299   1.451  14.460  13.159 -0.0452 -0.1905 -0.3209
10169W        W25300   0.773  10.977   4.266  0.2712  0.0287 -0.1300
10170W        W25301  14.358  12.898  14.007 -0.0531 -0.1327 -0.1421
10171W        W25302   2.750   5.116  11.176 -0.0107  0.1288  0.0434
10172W        W25303   2.456  13.751   4.017  0.1843  0.0691  0.0173
10173W        W25304   2.752  13.813  11.420  0.1606 -0.0741  0.1334
10174W        W25305   7.110   5.759   0.580 -0.1915 -0.1535  0.3010
10175W        W25306   7.624   4.446   3.524 -0.0939 -0.2157 -0.1210
10176W        W25307  12.014  12.530  14.661 -0.2244 -0.1275  0.1644
10177W        W25308   3.794  12.170  11.251 -0.1833 -0.0642  0.0344
10178W        W25309   7.365  10.222   2.180 -0.1103  0.2880  0.2926
10179W        W25310   2.235   3.394  15.196  0.3348 -0.1647  0.1735
10180W        W25311  10.810   6.929  13.915  0.1955  0.1916 -0.1348
10181W        W25312  15.447   2.834  12.973 -0.1024  0.1278  0.2008
10182W        W25313   0.088  12.559   0.281 -0.3678 -0.0256  0.0319
10183W        W25314   7.963  12.044  10.469  0.1042 -0.2678  0.2069
10184W        W25315  15.085   0.885   0.586  0.2322 -0.0160  0.1440
10185W        W25316   9.176  15.965  14.341  0.3238  0.0581  0.1350
10186W        W25317   6.180   7.992  11.765 -0.1436 -0.3593  0.1508
10187W        W25318   1.007   7.687   4.071 -0.4174  0.2475  0.1731
10188W        W25319  14.488   6.341  13.109  0.3229 -0.1544 -0.0954
10189W        W25320  17.441   6.047  12.886 -0.2921  0.0819  0.1808
10190W        W25321  13.192   9.521   3.098 -0.0712  0.0111  0.0677
10191W        W25322  15.099   8.121  15.889 -0.0427 -0.0698 -0.1067
10192W        W25323  14.377  13.767  15.920  0.0390  0.2191  0.1397
10193W        W25324   6.670  17.388   6.171  0.0199  0.0766  0.1437
10194W        W25325  11.690  11.500   0.521  0.0389  0.0346  0.0215
10195W        W25326   3.407   2.976   3.951 -0.1408  0.1451 -0.0119
10196W        W25327   4.965  10.546  16.136  0.0952 -0.0145 -0.0259
10197W        W25328   3.613   1.946  13.661  0.1303 -0.2106 -0.0131
10198W        W25329  12.939  17.202  12.578  0.2061 -0.0103  0.0153
10199W        W25330   6.037  12.004   1.396 -0.1791  0.1058  0.2512
10200W        W25331   3.242   5.507  11.165 -0.1527  0.0372  0.2142
10201W        W25332   7.673   9.305   4.013 -0.0155 -0.2801 -0.1893
10202W        W25333   7.821   5.924   0.577 -0.0417  0.0329 -0.1826
10203W        W25334  13.687  10.893   0.477 -0.1089  0.1963 -0.0512
10204W        W25335   1.358  17.575   4.941 -0.0926  0.3148  0.3988
10205W        W25336   5.508   3.564   2.250  0.0703  0.2002  0.2304
10206W        W25337   5.408   5.055   4.558 -0.2060  0.0118  0.2557
10207W        W25338   0.463  16.223  10.952 -0.4549 -0.1399  0.1573
10208W        W25339   9.761   5.393   4.610  0.1924  0.0528  0.2046
10209W        W25340  12.477   6.709  13.068  0.0897  0.2965  0.0519
10210W        W25341   9.736   5.098   3.114  0.6145  0.1497 -0.0503
10211W        W25342   0.526  13.933  11.857  0.0556 -0.2550 -0.0812
10212W        W25343  13.551   7.174   3.706  0.2145  0.4173 -0.0802
10213W        W25344  14.724  16.691   3.809 -0.2374  0.1079 -0.1935
10214W        W25345   1.508  14.016  12.868 -0.2112  0.0599  0.1449
10215W        W25346  12.398   8.658  14.958 -0.2442 -0.2293 -0.2158
10216W        W25347   4.797   8.219   5.129 -0.0735  0.0674 -0.1562
10217W        W25348  15.229   6.064   1.313  0.0163  0.3463  0.1810
10218W        W25349   5.427  16.071   1.653 -0.1985  0.0035 -0.0411
10219W        W25350  16.578   3.502  15.711  0.3975 -0.2627  0.0785
10220W        W25351  10.143  13.155  13.386  0.2299  0.0571 -0.0515
10221W        W25352   2.739  15.803   3.911  0.1377 -0.1443  0.0110
10222W        W25353  10.122  17.864  13.831 -0.3254  0.2933 -0.1280
10223W        W25354   9.478   0.437   4.742  0.0189  0.0745 -0.0230
10224W        W25355  10.825   3.663  15.593 -0.1692  0.0700  0.0909
10225W        W25356   1.551  16.858  15.897 -0.4334  0.0229 -0.2595
10226W        W25357   5.683   4.199   2.568 -0.1776 -0.2350  0.2265
10227W        W25358  16.958   1.535   4.864 -0.0006  0.0078 -0.2063
10228W        W25359  14.727   7.135  13.833  0.0696  0.1271 -0.0728
10229W        W25360   1.792  17.226  11.988  0.0221  0.0788 -0.0735
10230W        W25361   5.447   4.388   5.114 -0.2028  0.1686 -0.1441
10231W        W25362  14.569   3.062  11.726 -0.2323 -0.0783 -0.2147
10232W        W25363   2.128  17.787  12.573  0.0882 -0.4079 -0.0602
10233W        W25364   8.654   0.345  13.540 -0.2818  0.0561  0.0654
10234W        W25365   0.640   9.681   2.639  0.1758 -0.0782  0.0431
10235W        W25366   3.907   1.030   6.619  0.0864 -0.1645  0.1089
10236W        W25367   3.193   5.695   4.311 -0.0404 -0.1619  0.1355
10237W        W25368  16.548   6.152  12.168 -0.1247 -0.1786  0.1269
10238W        W25369   6.215   2.759  14.777 -0.0846  0.2675  0.0571
10239W        W25370   5.981   4.593   4.270 -0.2443 -0.0278  0.0160
10240W        W25371   8.132  13.006   5.838 -0.2136 -0.1624 -0.3180
10241W        W25372   7.839  18.018   0.303  0.2059  0.2928 -0.0655
10242W        W25373   7.613   5.859  10.222  0.3926  0.1323  0.0931
10243W        W25374  17.913  11.661  12.282 -0.0214 -0.1940 -0.1683
10244W        W25375   0.491   9.075  12.367 -0.0220  0.1651  0.1012
10245W        W25376   8.021   0.296   2.709 -0.3843 -0.0651  0.1520
10246W        W25377   9.115   5.508  15.947  0.4184  0.0037 -0.0335
10247W        W25378   2.219   3.845  12.795  0.3367 -0.0104  0.3474
10248W        W25379  14.018   5.445  14.970  0.1186  0.0212 -0.4225
10249W        W25380  17.627  17.811   1.039 -0.0996  0.2472  0.2332
10250W        W25381   5.430   7.815   1.597  0.3491  0.3919 -0.1289
10251W        W25382   1.637  11.317  11.128 -0.2604  0.1701 -0.0475
10252W        W25383   0.341  18.000   3.659 -0.3649 -0.0560  0.0117
10253W        W25384  17.399   5.433  14.183 -0.3554 -0.2382 -0.0077
10254W        W25385   2.660   1.208  11.143 -0.2205 -0.0101  0.1097
10255W        W25386  16.330   0.800   2.875 -0.0081 -0.1097 -0.2139
10256W        W25387   5.088  14.882  13.887  0.3205 -0.3525  0.3981
10257W        W25388   0.558   2.867  16.088  0.0240  0.1409  0.1277
10258W        W25389  12.146  10.298  14.368 -0.1049  0.1352  0.0028
10259W        W25390  11.222   9.029  11.457 -0.1105 -0.0602 -0.3567
10260W        W25391  13.843   9.370   1.178  0.0523 -0.1106  0.2722
10261W        W25392  12.288  11.636   3.914 -0.0416  0.1882  0.0122
10262W        W25393   4.355   1.947  12.824  0.3211 -0.3650 -0.1604
10263W        W25394   5.321   7.472   4.715 -0.2745  0.3483 -0.0772
10264W        W25395   1.716   4.417  14.681  0.1801 -0.2077 -0.2722
10265W        W25396   1.286  15.648  15.659 -0.1390 -0.2674 -0.1606
10266W        W25397  17.738  17.000  15.771 -0.0681  0.0342 -0.0202
10267W        W25398  13.380  12.049   2.239  0.0753  0.2510  0.2956
10268W        W25399   1.182  15.072   4.405 -0.0087 -0.2738  0.0546
10269W        W25400   2.660   4.414   4.979  0.0248 -0.2489 -0.4485
10270W        W25401   9.387  15.598   2.781  0.0408  0.0264 -0.2025
10271W        W25402  11.863   7.772   3.945  0.2055  0.1085  0.2292
10272W        W25403  14.171   2.640  12.506  0.2560 -0.0911  0.0243
10273W        W25404  15.750  12.991  13.499 -0.1261 -0.2054 -0.1393
10274W        W25405  10.978  17.506  10.916 -0.1448  0.3328 -0.1777
10275W        W25406  16.186   9.673  16.057 -0.2110 -0.0026  0.0958
10276W        W25407   6.436  13.464  15.546 -0.1151  0.0360 -0.1000
10277W        W25408  11.609   5.614  11.755 -0.2301  0.0280 -0.0894
10278W        W25409  17.298   2.552  11.917  0.2155 -0.1728  0.2594
10279W        W25410  17.983   8.795  11.141  0.0082  0.3044  0.0721
10280W        W25411   5.066   2.412  15.233  0.0561 -0.1677  0.4308
10281W        W25412  15.955  11.087  12.182  0.1041  0.1279  0.2340
10282W        W25413   7.045   6.427  12.333 -0.3501  0.0454  0.2216
10283W        W25414  13.493   2.977   4.536 -0.0711 -0.1639  0.2357
10284W        W25415   8.119  12.128   3.830  0.2411  0.1898  0.1993
10285W        W25416  12.449  15.849  13.840 -0.1284 -0.3045  0.0507
10286W        W25417  16.504  11.584   1.710 -0.1352  0.1603 -0.1997
10287W        W25418   5.709   6.535  11.342  0.0233 -0.1432  0.1945
10288W        W25419   5.981  11.178   5.055  0.3050  0.1580 -0.1049
10289W        W25420   4.462  13.837  12.766 -0.0382 -0.0485 -0.0034
10290W        W25421   0.181  10.735   0.063 -0.0119  0.1765 -0.2746
10291W        W25422  10.646  13.818   1.770  0.1539 -0.0858 -0.0522
10292W        W25423  11.230  13.893  10.496 -0.0108 -0.0836  0.3411
10293W        W25424   6.347  14.889   1.462 -0.1666  0.2525 -0.1450
10294W        W25425   7.049  14.588  14.617  0.0426 -0.3459 -0.0086
10295W        W25426  13.120  12.052  11.656  0.0737  0.2534  0.0980
10296W        W25427  15.076   1.747   1.865  0.0518  0.0510 -0.0192
10297W        W25428   8.577   7.870  16.445  0.1247  0.0039  0.4417
10298W        W25429  14.775  16.411   3.410 -0.1408  0.1007 -0.0695
10299W        W25430  16.622  16.175   5.230 -0.0702 -0.0286 -0.0369
10300W        W25431  13.673  15.234  11.841 -0.2271  0.1817 -0.0379
10301W        W25432  11.242  15.173  16.391  0.2008  0.0067 -0.2131
10302W        W25433   5.424   7.218  12.174 -0.1450  0.2720 -0.0421
10303W        W25434   6.790   7.964  14.117 -0.0575  0.1470 -0.1323
10304W        W25435   1.404  11.804  15.513  0.1750  0.1784  0.3097
10305W        W25436  11.200   1.056   5.264  0.0748 -0.0820 -0.1188
10306W        W25437   7.222   0.010  11.952  0.2721  0.1644 -0.3087
10307W        W25438  15.387   9.981  11.367 -0.2658  0.0441  0.1014
10308W        W25439  12.395   9.541   5.061 -0.3438 -0.2492  0.2902
10309W        W25440   5.729  17.348   2.449 -0.0937  0.1798  0.0926
10310W        W25441   8.228   4.632   3.449  0.2485 -0.3369  0.1481
10311W        W25442  14.300  13.885  14.188  0.0315  0.3081 -0.0575
10312W        W25443  15.158  16.698  14.595 -0.2190 -0.2914 -0.0752
10313W        W25444  15.423  13.905   0.222  0.1471  0.0305  0.1741
10314W        W25445   4.455  15.550  14.815 -0.2788  0.1643 -0.2413
10315W        W25446   5.681   9.178   4.621  0.1927 -0.0013  0.0055
10316W        W25447   1.569   8.800  14.797 -0.0010  0.0660  0.0478
10317W        W25448   0.770  16.137  12.130  0.1193  0.1606 -0.1264
10318W        W25449   4.972   7.881  15.917  0.0750 -0.1073 -0.0758
10319W        W25450  12.978   0.220  16.246 -0.1289  0.3030  0.0768
10320W        W25451   4.339   9.152  13.966 -0.2383 -0.2323 -0.2034
10321W        W25452   3.981  15.492  13.249  0.1775  0.0689 -0.0928
10322W        W25453   1.177   1.335   3.347  0.1005  0.2639  0.1085
10323W        W25454  15.975  16.397   2.401  0.2905  0.2513  0.1191
10324W        W25455   3.387  15.751  13.102  0.0822  0.1428  0.3332
10325W        W25456  15.291   7.840   0.222 -0.3980  0.1245  0.2904
10326W        W25457  16.831   7.718  12.246  0.1540 -0.0103 -0.1309
10327W        W25458  10.507  15.429  15.730  0.1630  0.0338 -0.0557
10328W        W25459   0.208   4.954   1.089  0.1891  0.3031 -0.0460
10329W        W25460   7.868   3.442   0.719  0.2588 -0.0360  0.0268
10330W        W25461  12.287   9.910   3.169 -0.0799  0.2686 -0.0664
10331W        W25462  15.187   9.070  11.326 -0.1238  0.2801  0.0569
10332W        W25463  16.831   6.189   2.939 -0.1290 -0.0073  0.0652
10333W        W25464  11.854  15.062  12.156  0.0101  0.6714  0.0491
10334W        W25465   1.639  17.174   3.354  0.1686 -0.1755 -0.0007
10335W        W25466  13.532   2.469   0.390 -0.0022  0.0576  0.1173
10336W        W25467   9.005   4.605  16.315 -0.2361 -0.2484 -0.0521
10337W        W25468   3.735   4.144   3.867 -0.2036  0.1128  0.0092
10338W        W25469   1.280   1.821   5.214  0.0481 -0.1950 -0.4982
10339W        W25470  14.544  15.289   1.237 -0.0706  0.0917 -0.0521
10340W        W25471  10.247   2.520   0.019  0.1612  0.3567 -0.0034
10341W        W25472  13.208   0.708   0.800  0.1329 -0.0656  0.0309
10342W        W25473   6.258  16.865   4.256  0.0926 -0.3808 -0.2011
10343W        W25474   3.514   9.312   1.091 -0.1248  0.2392  0.2379
10344W        W25475   2.752   7.001  11.371 -0.0316  0.1226  0.1573
10345W        W25476  15.819  11.913   3.386  0.2679  0.1117  0.1407
10346W        W25477   0.471  17.111  11.296  0.0497  0.1216  0.4227
10347W        W25478   0.492   6.228  12.116  0.1667 -0.3123  0.2030
10348W        W25479   1.625   9.838   2.310  0.3054 -0.0911  0.0200
10349W        W25480  15.202   1.155   4.640  0.0106  0.1699 -0.0619
10350W        W25481  12.495   3.608  13.100 -0.0699 -0.3172  0.1686
10351W        W25482   9.197  14.635  11.087  0.0765  0.0581 -0.1555
10352W        W25483   4.099  16.884   0.893 -0.0711 -0.1722  0.1997
10353W        W25484  15.261  10.641   5.631 -0.1365  0.1217 -0.1894
10354W        W25485   0.376   9.311   3.502 -0.0726  0.4094 -0.1926
10355W        W25486  17.017   2.100  11.958  0.1237  0.1707  0.1007
10356W        W25487  16.244   7.159   5.793 -0.0174  0.3991  0.1817
10357W        W25488  16.402  15.298  11.934  0.1802  0.2302 -0.1199
10358W        W25489  13.418   4.323  12.776 -0.2471 -0.1673 -0.0756
10359W        W25490   5.418  12.940  13.803 -0.1662  0.1287 -0.1642
10360W        W25491  11.840   8.759  11.187  0.0167 -0.0360  0.1458
10361W        W25492   2.433  15.533  12.659  0.0079 -0.0415 -0.0340
10362W        W25493   3.304   0.545  11.248 -0.4183  0.0718  0.0194
10363W        W25494   5.724   7.761   4.383 -0.0092  0.0388  0.1008
10364W        W25495  16.121   5.497   3.264  0.2231  0.0368 -0.4102
10365W        W25496  10.239   6.639  12.425 -0.1936 -0.0307  0.0287
10366W        W25497   3.797   5.167  13.158  0.0595 -0.1717 -0.0975
10367W        W25498   2.318  12.584   4.094 -0.1631 -0.0341 -0.0084
10368W        W25499  14.765  15.806  11.372  0.1020  0.0194 -0.1213
10369W        W25500   2.097   9.845  11.173 -0.1251  0.2141 -0.1515
10370W        W25501   5.566  18.014   0.513  0.2972 -0.1955 -0.1922
10371W        W25502   4.840   8.919   4.017 -0.0485 -0.0241 -0.2750
10372W        W25503   9.190   5.696  13.165 -0.0093 -0.2032  0.1223
10373W        W25504  16.654  17.869  16.081 -0.1906 -0.1986 -0.1395
10374W        W25505   0.828   5.139   5.038  0.0828 -0.0104 -0.0804
10375W        W25506   7.576  17.883  14.607 -0.2426 -0.1127 -0.1173
10376W        W25507   0.056  12.057  12.509 -0.1035  0.2758 -0.3225
10377W        W25508   2.338   0.094  14.741 -0.1770 -0.1582 -0.0261
10378W        W25509  11.067   2.133  15.589 -0.0238  0.1102 -0.2082
10379W        W25510  10.101   4.920   4.069 -0.1480 -0.1106  0.1863
10380W        W25511  11.957  14.385   4.782 -0.1514 -0.1193  0.2619
10381W        W25512   7.861  14.369   0.006 -0.0057 -0.0382 -0.3201
10382W        W25513   6.631  11.222  14.200 -0.0419 -0.1230  0.3523
10383W        W25514   7.636   6.350   2.992 -0.0924 -0.0440 -0.2028
10384W        W25515   3.992  13.039  16.083 -0.1404 -0.2345  0.1714
10385W        W25516  16.962   1.650   1.525 -0.0970 -0.6294  0.0931
10386W        W25517   9.714  15.836   5.370  0.0128 -0.0844  0.1649
10387W        W25518  15.053   3.758   1.608  0.0375  0.2065 -0.0375
10388W        W25519  15.544   7.844  13.687  0.3856 -0.2743  0.1778
10389W        W25520   3.855   4.469   3.351  0.1775 -0.0523 -0.0825
10390W        W25521  14.007  11.794  13.885 -0.0834  0.3916 -0.0629
10391W        W25522   1.800   0.458  14.520 -0.1557 -0.0742 -0.0824
10392W        W25523   1.078   6.569  13.626  0.4274 -0.0878 -0.1201
10393W        W25524   9.562   5.710   1.732 -0.1204 -0.2107  0.5015
10394W        W25525   3.788  16.275   5.219 -0.2350 -0.1420  0.4274
10395W        W25526  14.772  14.650  11.376  0.3168  0.1006  0.2494
10396W        W25527  18.083   7.012  12.978  0.1169 -0.1071 -0.3265
10397W        W25528   5.124   5.340  12.513 -0.1315 -0.4032 -0.3094
10398W        W25529  16.030  14.444   6.170  0.1246 -0.0312 -0.2251
10399W        W25530   1.298  10.190   2.102  0.1075 -0.4035  0.2213
10400W        W25531  11.854   5.005   0.971  0.1413  0.1104 -0.3379
10401W        W25532   3.828  17.655   4.069  0.1680  0.1710  0.1680
10402W        W25533  13.012  16.519   1.728 -0.1822 -0.1647  0.3130
10403W        W25534   0.258   4.541   3.150 -0.0919  0.2992 -0.0757
10404W        W25535  14.798   4.848  12.527  0.1755  0.0777  0.1937
10405W        W25536   7.241   0.114   5.362 -0.2820  0.0369 -0.2380
10406W        W25537  17.689   5.296  12.198  0.1837  0.1700  0.6350
10407W        W25538   8.760   7.075   1.006 -0.1459 -0.0651  0.0738
10408W        W25539  12.151   0.931   3.549 -0.2595  0.3694  0.2300
10409W        W25540   9.142   4.400  15.835  0.1088  0.3379 -0.3559
10410W        W25541   9.091  11.475   0.760  0.2373  0.1085  0.0879
10411W        W25542  12.967   7.573  15.373  0.1239  0.1989 -0.0331
10412W        W25543   5.072  13.934   3.987  0.1329  0.1757  0.0507
10413W        W25544   5.327   2.121   0.671 -0.0689 -0.1623 -0.0534
10414W        W25545  16.625   1.144  11.441 -0.2407 -0.1988  0.1654
10415W        W25546   3.752   2.261  15.897  0.5054  0.1389 -0.1558
10416W        W25547   2.437  14.360   0.655 -0.1756  0.0465 -0.3575
10417W        W25548  11.646   4.014   3.871 -0.1286  0.0152 -0.3068
10418W        W25549   8.334  17.776   0.388  0.1908 -0.1137  0.0900
10419W        W25550   1.045  12.076   5.986  0.2039  0.0732  0.2715
10420W        W25551   0.276   8.622  13.578  0.1556  0.0715 -0.0867
10421W        W25552  16.822   7.330   2.821  0.3328 -0.0322 -0.0565
10422W        W25553   4.487  12.348  11.754 -0.1306  0.1553 -0.0042
10423W        W25554   1.753  17.779   1.061  0.0680  0.1177 -0.2696
10424W        W25555  14.461   7.682   0.652  0.2160 -0.0735  0.0884
10425W        W25556  10.339   9.330  13.162 -0.0129 -0.0994 -0.0524
10426W        W25557   4.504   8.091   1.232 -0.0778  0.3189  0.1288
10427W        W25558  16.089   2.609   0.481  0.1775 -0.2253  0.2438
10428W        W25559   5.130   8.510  13.369  0.0269 -0.1072  0.2709
10429W        W25560   0.656  10.172  15.236  0.0736  0.1272  0.4212
10430W        W25561   8.354   6.240  16.333 -0.4651 -0.2551 -0.2409
10431W        W25562  11.848   5.881   2.396  0.1104 -0.1245 -0.0147
10432W        W25563   4.417   3.884   2.966 -0.1360  0.2629 -0.2538
10433W        W25564   1.963   8.275  13.967 -0.0023  0.1378  0.1079
10434W        W25565   8.214   5.442  11.765  0.0232  0.2187 -0.4147
10435W        W25566   3.223  12.636   5.527 -0.2606  0.0060  0.1888
10436W        W25567  11.295  12.546   4.477 -0.2343  0.2050 -0.0256
10437W        W25568   0.878   4.748  16.218 -0.1241 -0.1688 -0.1498
10438W        W25569   1.327  15.576  16.199 -0.4808 -0.2503  0.2046
10439W        W25570   2.377   6.469   1.188  0.3145 -0.3506 -0.3020
10440W        W25571   0.297   0.162   2.125  0.2429 -0.1191 -0.1942
10441W        W25572  10.171  17.237   2.724 -0.0310  0.1893  0.1865
10442W        W25573  13.513   8.524  13.654 -0.0422 -0.1545 -0.1767
10443W        W25574   8.358  10.963   1.967 -0.0908  0.2355 -0.3609
10444W        W25575   4.896   5.503   0.052 -0.0822  0.1010  0.1688
10445W        W25576   1.800   9.285   1.415 -0.3652 -0.0295  0.2041
10446W        W25577   5.060   2.076   2.374 -0.0781 -0.2047  0.1617
10447W        W25578   5.319   4.442  15.660  0.2896  0.1309 -0.2797
10448W        W25579  12.708  11.704   2.968  0.1419 -0.0067  0.1010
10449W        W25580  13.271   4.583   6.103 -0.2186  0.1526  0.2442
10450W        W25581  12.672   6.034  11.822  0.0002  0.3419 -0.1873
10451W        W25582  10.733   3.290  11.863  0.0782  0.2181 -0.0923
10452W        W25583  11.474   3.310   1.304 -0.1800 -0.0862  0.0274
10453W        W25584   6.721   6.542  13.026 -0.2946  0.1893 -0.0625
10454W        W25585  16.949   2.598   4.918 -0.1229 -0.0283  0.3146
10455W        W25586   1.865  16.765   3.152  0.2172  0.0680  0.1896
10456W        W25587   9.276   5.869  11.113  0.2077  0.1605  0.0583
10457W        W25588   2.609  18.105  13.725 -0.0962 -0.2867 -0.0941
10458W        W25589   9.293  16.468   3.368 -0.0345 -0.3590 -0.1366
10459W        W25590  15.767  10.094   3.060  0.0985 -0.0188  0.1122
10460W        W25591   6.694  10.416  15.179 -0.3262 -0.0467  0.3073
10461W        W25592  11.198   5.320   2.225  0.0859  0.2891  0.1369
10462W        W25593   4.924  11.129  11.921  0.0302  0.0968 -0.0662
10463W        W25594   0.684  17.246  15.949  0.1788  0.1068  0.2153
10464W        W25595   3.669   2.515   3.985  0.2256 -0.0993 -0.1512
10465W        W25596  16.237  16.887   3.488  0.0121 -0.4346 -0.0568
10466W        W25597   0.235   8.429  15.797  0.3040 -0.2847 -0.1562
10467W        W25598  17.001  11.574   6.409 -0.1716  0.4203 -0.1376
10468W        W25599  15.535   6.016   0.935  0.1073 -0.2125  0.1677
10469W        W25600  16.547  15.429  16.029  0.0660  0.1037  0.0292
10470W        W25601   5.408  11.357  16.006 -0.2633 -0.0595  0.1167
10471W        W25602  14.875  13.448  15.338 -0.0290 -0.2203  0.2372
10472W        W25603   5.792  10.815  14.301  0.0474 -0.0363 -0.0746
10473W        W25604   6.306   4.113  12.565 -0.1763 -0.0507  0.0434
10474W        W25605   6.247   7.660   4.590  0.0451 -0.1114  0.3978
10475W        W25606  11.215   3.253   5.386  0.1666 -0.0706  0.2075
10476W        W25607   6.189   6.466   4.537 -0.0767 -0.2459  0.0665
10477W        W25608   3.889  10.422   1.818 -0.1461 -0.2878 -0.1721
10478W        W25609   3.333   2.580  12.327  0.1137  0.4182  0.1785
10479W        W25610   8.309   6.653  10.567 -0.2657 -0.1926 -0.0483
10480W        W25611   5.871   9.525   1.330  0.4466  0.0669 -0.0500
10481W        W25612   8.810   8.690   1.467 -0.1175 -0.0671  0.2822
10482W        W25613   2.092   2.219   1.675  0.1938 -0.1622  0.0917
10483W        W25614   7.994   9.599  11.004  0.2235 -0.1059 -0.1891
10484W        W25615   7.012   7.112  16.352 -0.1159  0.2223 -0.0363
10485W        W25616  11.900  18.102   1.828 -0.0904  0.1386  0.0255
10486W        W25617  17.673  16.462  12.592 -0.2792  0.0808 -0.0760
10487W        W25618   6.319   9.237  15.998  0.2799 -0.1173  0.2648
10488W        W25619   0.592  15.256   0.979  0.0706 -0.3200  0.0849
10489W        W25620   9.578  12.887   0.264  0.3821  0.2103  0.3896
10490W        W25621   8.736  15.400  11.295  0.1930 -0.2189 -0.1007
10491W        W25622   3.824  17.849   5.513  0.3369 -0.4038  0.4348
10492W        W25623  12.663   5.998  16.020  0.0973  0.0598 -0.1657
10493W        W25624   3.550   3.746  12.816  0.3082  0.4218 -0.0955
10494W        W25625  16.275   2.970   3.011  0.2125  0.3339  0.3533
10495W        W25626  14.368   2.526  12.053 -0.1437 -0.1432 -0.0521
10496W        W25627  12.815   7.253  12.678 -0.0840 -0.2979 -0.0038
10497W        W25628   6.390   5.385  11.917 -0.1479 -0.1320  0.2778
10498W        W25629  11.607   3.792   0.451  0.0354 -0.0624 -0.2938
10499W        W25630   3.157  12.415   1.465 -0.0377 -0.2236  0.1896
10500W        W25631   7.392   8.835   5.448  0.2852  0.1582 -0.1418
10501W        W25632  13.930   3.514   4.097  0.0496  0.0580  0.1883
10502W        W25633  14.450   6.321  13.937  0.1724 -0.0041  0.1614
10503W        W25634   8.008  14.428   2.940  0.1704 -0.0839  0.2431
10504W        W25635   5.944  13.863  12.973  0.1192 -0.0756 -0.2591
10505W        W25636   3.936   1.113   5.295  0.1647 -0.1085  0.1743
10506W        W25637  18.104  16.287  12.824  0.2431 -0.1190 -0.0127
10507W        W25638   1.495  11.582   2.467  0.1048  0.1587 -0.2362
10508W        W25639   7.221  16.016  14.087  0.1543  0.0149 -0.1313
10509W        W25640  15.431  12.667   4.331  0.0930 -0.1825  0.1361
10510W        W25641   6.364   5.902  12.424 -0.0987 -0.0130 -0.2534
10511W        W25642  11.721   0.339  11.785 -0.1019 -0.1704 -0.1528
10512W        W25643  13.988   2.493  14.473  0.0360 -0.0678 -0.0836
10513W        W25644  17.866  13.529   2.246  0.4840  0.1131  0.3596
10514W        W25645  17.851   0.262  13.600 -0.0718  0.4224 -0.2219
10515W        W25646   9.932   4.339   0.047  0.3530 -0.0808  0.2035
10516W        W25647  16.984  17.859   2.525  0.1256 -0.0207  0.0252
10517W        W25648  12.834   9.388   1.393  0.0071 -0.0624  0.0092
10518W        W25649  13.559  10.435   4.881 -0.1395 -0.1994 -0.0366
10519W        W25650   2.636   4.114  12.537  0.0875  0.1727 -0.4502
10520W        W25651   6.487   6.551   0.563 -0.2180  0.1825 -0.0204
10521W        W25652  16.520   8.735   5.759  0.2239  0.1475  0.1650
10522W        W25653  17.065   5.747  14.000  0.0592  0.2030 -0.2612
10523W        W25654  14.951  13.714  13.062  0.3845  0.0171  0.0442
10524W        W25655   8.507  12.714   5.442  0.0352  0.2290  0.0158
10525W        W25656   1.101  11.846   4.530  0.0725  0.1987  0.0316
10526W        W25657   7.147  14.263   6.201 -0.1237 -0.4350  0.1973
10527W        W25658  13.955   3.581  12.284  0.1405  0.2883  0.2445
10528W        W25659   3.927  11.512   0.660 -0.1044  0.2280 -0.0000
10529W        W25660  12.913   7.763  10.045 -0.1594  0.2141  0.1227
10530W        W25661   5.058   2.671  10.208  0.0415  0.4137  0.0238
10531W        W25662   8.264   0.222  12.573  0.1185 -0.0697 -0.1176
10532W        W25663  12.747   4.756   1.520  0.2271  0.1992 -0.3530
10533W        W25664   4.795  10.719  14.846  0.0079 -0.1093  0.2248
10534W        W25665   8.372  15.625  15.280 -0.1776  0.1499 -0.0195
10535W        W25666   3.859   2.071   3.056  0.2793  0.0078  0.0668
10536W        W25667  15.482   3.990   4.301  0.4102  0.1782  0.0991
10537W        W25668   6.647  11.253   1.089 -0.0217 -0.1679  0.1249
10538W        W25669   7.445  15.664  12.859 -0.2029  0.2704  0.1344
10539W        W25670  10.387   2.246  13.068  0.0070 -0.2633  0.0566
10540W        W25671   5.042   1.986  14.886 -0.2451 -0.2813  0.4442
10541W        W25672   1.335   6.174  13.429 -0.0403 -0.0260 -0.0856
10542W        W25673  14.644   2.697   0.790  0.0031 -0.0695  0.0938
10543W        W25674  11.950   3.639  15.541  0.0001 -0.0049  0.0321
10544W        W25675  13.424  13.475  13.181 -0.0655 -0.2940  0.1918
10545W        W25676  15.661  11.424   3.035  0.2702  0.3657  0.2296
10546W        W25677  17.880   8.516  13.488 -0.2111 -0.1075  0.1370
10547W        W25678   3.730   6.871   6.358  0.2505  0.1972 -0.0673
10548W        W25679   9.253   4.492   0.727 -0.1268 -0.0488 -0.0830
10549W        W25680   0.172   6.151  11.200  0.1161  0.1721 -0.1607
10550W        W25681   5.444   4.115  12.013  0.0934  0.0915 -0.1523
10551W        W25682   4.981   5.542  14.210 -0.0202  0.3867  0.1053
10552W        W25683  18.065   8.011   2.540 -0.1492 -0.1314  0.1893
10553W        W25684   4.032   1.500  12.859  0.2201  0.1180  0.0886
10554W        W25685  15.922  14.305  11.690  0.0263  0.2780  0.2526
10555W        W25686  10.293   5.538  15.688  0.1864 -0.2199 -0.2833
10556W        W25687   3.645   0.595  12.376  0.2963  0.1833  0.0267
10557W        W25688   1.971   2.526   4.936  0.1289  0.2135  0.1907
10558W        W25689  12.380  10.984   6.282 -0.0358 -0.1485  0.0468
10559W        W25690   5.070  10.398   4.300 -0.1881 -0.2380  0.0375
10560W        W25691  10.066  14.284   3.732  0.1621  0.1535  0.0506
10561W        W25692  16.003  14.453  15.582 -0.1649  0.5369 -0.4095
10562W        W25693  12.014  12.362  12.863 -0.1046 -0.0974  0.0403
10563W        W25694  15.982   0.151   2.344 -0.1138 -0.0729  0.0179
10564W        W25695  13.445  17.331   1.753  0.1639 -0.3407  0.0885
10565W        W25696   6.165   9.086  11.807 -0.0192 -0.4223 -0.3163
10566W        W25697  12.900   4.445  12.752 -0.0293 -0.2235  0.2278
10567W        W25698  16.463  14.525  15.073 -0.1391 -0.2782  0.3039
10568W        W25699  16.576   0.849   2.395  0.3507  0.1965 -0.0515
10569W        W25700   2.982   7.417  16.063 -0.0514 -0.2588 -0.1182
10570W        W25701  16.534  16.437   4.093  0.0743 -0.1943  0.0723
10571W        W25702  12.254  16.799  13.135 -0.1536  0.0810 -0.1326
10572W        W25703  17.002   7.621   0.723 -0.2459 -0.1090 -0.0958
10573W        W25704  11.181  16.181   1.836  0.4544  0.0315  0.2628
10574W        W25705  16.989  10.459   2.219 -0.0071  0.0362  0.2119
10575W        W25706  17.132   3.527   3.189 -0.0589 -0.3988  0.3598
10576W        W25707  17.210   3.491   3.712  0.1846 -0.0312  0.2953
10577W        W25708   0.017  17.197   1.210  0.4311 -0.3117 -0.1848
10578W        W25709   9.092   3.924   2.412  0.0838  0.0429  0.3450
10579W        W25710   3.641  16.551   1.827 -0.1345 -0.1100 -0.1115
10580W        W25711   1.068   0.369  10.390 -0.1355 -0.0127  0.0218
10581W        W25712  12.977   7.499   4.454 -0.0817  0.1453  0.0066
10582W        W25713   4.635  16.142  13.490  0.1166 -0.1536  0.2779
10583W        W25714  13.613  13.004   4.641  0.2473  0.3198  0.1124
10584W        W25715  11.491   9.611   1.125 -0.0573  0.2279 -0.0690
10585W        W25716   3.707   0.095   0.356 -0.0817 -0.3012  0.1082
10586W        W25717   2.167   5.637   4.195  0.2952 -0.1346 -0.0100
10587W        W25718   8.425  14.088   5.071 -0.1594  0.1241 -0.0226
10588W        W25719  10.559  10.869   6.026  0.1823 -0.2824  0.0898
10589W        W25720   6.564   0.546   5.314  0.3546 -0.1440 -0.1037
10590W        W25721  12.822  13.081   0.027 -0.2679 -0.3807 -0.0214
10591W        W25722  15.015   9.265  10.794  0.0150  0.0605  0.1265
10592W        W25723   4.762   2.389  16.103 -0.3345 -0.5283 -0.0473
10593W        W25724   2.498   3.938   2.598 -0.2701 -0.0469 -0.0544
10594W        W25725   6.394   8.626   4.460 -0.3489  0.3011  0.1316
10595W        W25726   3.248  11.798   0.237  0.0290 -0.0181  0.2684
10596W        W25727   0.484  16.522  13.571 -0.0948 -0.2220  0.1825
10597W        W25728   4.601   0.708  12.665  0.0938 -0.3206  0.0230
10598W        W25729   4.397  12.986   5.364  0.1123  0.1066  0.1689
10599W        W25730  16.533   1.989   2.366 -0.2782  0.2569 -0.1028
10600W        W25731  14.430  16.127   2.425  0.0880 -0.1335 -0.0797
10601W        W25732   2.949   3.677   2.149 -0.2112 -0.1320  0.1735
10602W        W25733   3.088   4.740  15.435 -0.1671 -0.3151 -0.0606
10603W        W25734   6.894  13.197   3.097 -0.0440 -0.1709  0.0772
10604W        W25735  17.254  11.251   1.651 -0.0338 -0.0056  0.1571
10605W        W25736   7.728   9.505  11.764 -0.0526 -0.1559 -0.1526
10606W        W25737   2.811   4.761   2.981 -0.1877 -0.0719 -0.2036
10607W        W25738  14.757   4.235   6.193 -0.0524  0.3122  0.2162
10608W        W25739   2.574  10.964  16.000  0.6545  0.0876  0.2298
10609W        W25740   5.740   5.877   1.653  0.0925 -0.3342  0.0295
10610W        W25741   8.855   2.872   3.520  0.1293  0.0703 -0.1107
10611W        W25742   8.045  13.727  12.342  0.2602  0.2604  0.0174
10612W        W25743  17.136  13.848  11.309  0.1898  0.3117  0.0694
10613W        W25744   4.613   8.752   5.018 -0.0025  0.1139 -0.0474
10614W        W25745  14.635  13.831  11.833 -0.2106  0.2071  0.0686
10615W        W25746  18.040   3.727   4.579 -0.2140  0.0788  0.3086
10616W        W25747  15.700   4.255   6.399  0.1476 -0.0560  0.3018
10617W        W25748  11.560   6.617   2.298 -0.0141  0.0737  0.0942
10618W        W25749   7.175  16.198   1.512  0.1868 -0.1434  0.0174
10619W        W25750   3.011   0.366  12.818 -0.0202 -0.0716 -0.1902
10620W        W25751  12.440   1.776   4.083  0.0499 -0.2575 -0.0846
10621W        W25752  10.291  11.631   3.865 -0.0584  0.0574  0.0627
10622W        W25753   4.314   5.255   3.777  0.2721  0.1584 -0.3321
10623W        W25754  14.727   3.038   1.665 -0.0514 -0.2801 -0.1505
10624W        W25755   9.418   1.105   5.543 -0.1319 -0.0661 -0.3535
10625W        W25756   1.335  17.311  11.040 -0.0986 -0.0711  0.0168
10626W        W25757   8.329   5.341  14.223  0.0149 -0.0556  0.0006
10627W        W25758   6.477  14.758   3.785 -0.0241 -0.0623  0.3448
10628W        W25759  11.582   0.336   0.464 -0.5769  0.2436 -0.2589
10629W        W25760   9.352   7.417   5.099 -0.0619 -0.2736  0.1540
10630W        W25761  10.882   2.157  14.144 -0.2151 -0.0524  0.0924
10631W        W25762   7.440  15.455   4.426  0.0844  0.0818  0.1242
10632W        W25763   5.983  12.620  14.612  0.1944 -0.3387  0.0955
10633W        W25764  10.123  14.364   3.228  0.2933 -0.3453  0.0766
10634W        W25765   5.779   1.601   5.847 -0.0209  0.1740 -0.1045
10635W        W25766   4.607  17.288   2.165 -0.0662  0.1547 -0.2078
10636W        W25767   3.956   1.900   1.272  0.2600 -0.0905  0.1697
10637W        W25768   4.876  15.892   1.521 -0.1977  0.1658 -0.0264
10638W        W25769   3.730   9.395   3.350 -0.0564  0.1651  0.1406
10639W        W25770   9.211  14.444   5.700 -0.2838  0.2272 -0.1754
10640W        W25771   0.106   1.377  15.948 -0.1388  0.0939 -0.3783
10641W        W25772  15.772   1.684  16.021  0.1225  0.1865  0.0887
10642W        W25773   0.773  17.941   5.612 -0.1555 -0.0552  0.0643
10643W        W25774  15.560  10.599   3.277 -0.0962  0.1982 -0.1227
10644W        W25775   6.403   7.367  14.794 -0.3864  0.2646  0.0035
10645W        W25776  11.917  15.626   0.408 -0.1304  0.5048 -0.0834
10646W        W25777  12.079  16.730   4.422  0.0369  0.0753 -0.1617
10647W        W25778   7.832  11.743  16.068  0.0053  0.1266 -0.1726
10648W        W25779   1.584   1.107   4.547 -0.0761  0.0093  0.3542
10649W        W25780  12.882   5.070   2.862 -0.1004 -0.3102  0.1686
10650W        W25781  15.090   1.467   3.389  0.1395 -0.1697  0.0943
10651W        W25782  12.836  11.283  14.845 -0.1571 -0.1211  0.0348
10652W        W25783   5.086   2.771   0.506 -0.0013  0.1505  0.0942
10653W        W25784   0.038   5.178   5.116  0.0523  0.0015  0.1042
10654W        W25785  10.333  12.092  13.295  0.0511 -0.1341 -0.0511
10655W        W25786   3.861  13.587  14.566 -0.2418 -0.1320  0.0866
10656W        W25787  10.235   5.806   3.361  0.3767 -0.1465  0.0311
10657W        W25788   9.975  13.110  11.899  0.0621  0.0370 -0.1947
10658W        W25789   9.541   3.628   2.487 -0.0610  0.0756 -0.5765
10659W        W25790   0.048   4.990   2.999  0.0578 -0.2881 -0.1582
10660W        W25791  17.765   3.930  12.320 -0.0829  0.3729  0.1430
10661W        W25792   3.463   3.674  15.427  0.2932 -0.2286  0.1813
10662W        W25793  15.696  12.709   1.472  0.6145  0.1407 -0.3204
10663W        W25794  15.931   5.582   5.081  0.1656  0.0091 -0.0208
10664W        W25795  13.866  16.743   4.097 -0.1302  0.1122 -0.0454
10665W        W25796  10.820   4.359  14.735 -0.1042 -0.1294  0.2280
10666W        W25797   0.870   3.886   0.383 -0.0685  0.0994  0.4296
10667W        W25798   9.280   2.106  15.700  0.0721 -0.0964  0.0188
10668W        W25799   3.193  15.748   2.623 -0.2799 -0.0618 -0.0756
10669W        W25800   7.089  16.910  11.365 -0.0639  0.0107  0.2049
10670W        W25801  14.153   1.113  11.264 -0.0811  0.3065  0.3772
10671W        W25802  10.802   6.954   3.207  0.1213 -0.2798 -0.0148
10672W        W25803   2.606  16.110   1.619 -0.1275  0.1391  0.0565
10673W        W25804   6.555  15.346   5.266  0.0793  0.0338  0.2379
10674W        W25805  10.983   2.779   5.203 -0.2466  0.1740  0.0304
10675W        W25806   4.413   4.768  13.295  0.0998 -0.0448  0.2627
10676W        W25807   4.299   7.955   2.664  0.0245  0.2291  0.0725
10677W        W25808  12.689  13.720   5.339  0.0722  0.0816  0.0537
10678W        W25809   8.789  11.013  10.868 -0.0056  0.0091 -0.0398
10679W        W25810   1.126   8.999   5.563 -0.3346 -0.1383  0.2240
10680W        W25811   7.915   2.917   4.331 -0.3279  0.1683  0.1050
10681W        W25812  17.301   1.159   5.710  0.4601  0.4312  0.1417
10682W        W25813  14.551   3.975  13.912 -0.0902  0.0955  0.1236
10683W        W25814   7.920   9.954   2.238 -0.3343 -0.1107 -0.0796
10684W        W25815   0.865   6.799  16.355  0.0063  0.1168  0.2312
10685W        W25816  11.445   2.025  14.285 -0.0375  0.4118 -0.1077
10686W        W25817  12.358  13.376   0.784  0.1377  0.1447 -0.0291
10687W        W25818  15.717   6.455   0.652  0.0379 -0.2534  0.0885
10688W        W25819  14.902   6.032  13.167 -0.0343  0.0599  0.3202
10689W        W25820  11.533   1.103  13.599  0.1289 -0.1112 -0.0517
10690W        W25821  17.596   3.520   2.265  0.4594  0.2290 -0.0970
10691W        W25822  14.347  14.312   0.836  0.1111 -0.3165  0.0004
10692W        W25823  12.739   1.322  14.876  0.0489 -0.1295 -0.0979
10693W        W25824  17.552   4.957  13.399  0.1469  0.1941  0.0404
10694W        W25825   3.867  12.724   3.916  0.0122  0.2244 -0.0326
10695W        W25826  15.488  15.953   5.162 -0.0139 -0.4439  0.1360
10696W        W25827   2.213   1.293  13.842 -0.2444  0.0874  0.1194
10697W        W25828   2.609   2.423  12.157  0.0708 -0.0600  0.1809
10698W        W25829  16.833   3.399   5.461 -0.1515  0.1720 -0.0060
10699W        W25830  11.701  12.497  11.738 -0.1826  0.0869 -0.1099
10700W        W25831   7.643   3.222   9.949 -0.1056  0.0902 -0.1489
10701W        W25832   8.950  12.894   4.604  0.0686  0.1328  0.0086
10702W        W25833  11.098   3.374   5.865  0.1843 -0.0125 -0.0458
10703W        W25834  15.913  11.061  14.908  0.1036  0.1063  0.0918
10704W        W25835  12.811  14.947  12.000  0.2597  0.0931  0.0636
10705W        W25836   2.500   9.116  14.126  0.0967  0.0015  0.3797
10706W        W25837   6.648  14.170  12.114  0.2378  0.2246 -0.3089
10707W        W25838  17.816   0.443  11.308 -0.0314 -0.2962  0.0752
10708W        W25839  17.030  12.894  11.652 -0.3152  0.0307 -0.4591
10709W        W25840  17.800  13.987  11.233 -0.0257 -0.3096  0.1794
10710W        W25841  14.264   5.994  14.369 -0.0474 -0.1811  0.0931
10711W        W25842  13.867   5.970   2.445 -0.2930  0.5867 -0.5407
10712W        W25843   8.344   5.435  15.378  0.1030  0.0418 -0.0001
10713W        W25844  15.726   8.716   3.997 -0.2260 -0.0753  0.0136
10714W        W25845   6.508   9.062  14.783 -0.2375 -0.3021 -0.1726
10715W        W25846  17.862  15.699  11.901  0.0250  0.0754 -0.1205
10716W        W25847   9.783  11.748   5.000 -0.3241  0.0722 -0.0856
10717W        W25848  17.299  15.769  13.978 -0.1266 -0.0705 -0.1852
10718W        W25849  16.852   2.655  11.945  0.0386  0.0208 -0.0091
10719W        W25850   5.494   0.952  11.149  0.0579  0.0915  0.1796
10720W        W25851   4.552  16.874  11.805 -0.3004  0.0151 -0.0237
10721W        W25852  12.092   5.505  13.880  0.1750  0.1398 -0.0372
10722W        W25853   6.711  17.634   3.252  0.3789  0.1919 -0.0423
10723W        W25854   6.560   2.796  15.329  0.1898  0.0735 -0.3684
10724W        W25855  12.824   3.125   2.438  0.0113 -0.2680  0.1075
10725W        W25856   5.016   1.915   3.285  0.1457 -0.0564  0.1988
10726W        W25857   1.062  18.040   2.820 -0.1912  0.0680  0.1784
10727W        W25858   3.417   6.837   3.252  0.1525 -0.2874  0.2462
10728W        W25859  13.450   3.512  13.782 -0.1616  0.1941 -0.4067
10729W        W25860  15.149   5.859   2.191  0.1198 -0.0269  0.0736
10730W        W25861  16.842  13.930  14.156  0.0521  0.4308  0.0593
10731W        W25862  16.465  14.633   1.730 -0.0335 -0.1555  0.0075
10732W        W25863  14.853  11.841   3.153 -0.1336 -0.0009 -0.1925
10733W        W25864   5.748  15.782   5.695 -0.1740 -0.1698  0.2537
10734W        W25865   6.033   1.629   0.001 -0.0979  0.1437 -0.0143
10735W        W25866   5.109   2.585  15.747 -0.0604  0.2187 -0.1183
10736W        W25867  11.331  15.490   5.428  0.1001 -0.2257 -0.0146
10737W        W25868  15.271   1.924   6.235  0.1942 -0.1803  0.2787
10738W        W25869   9.923   6.462  12.040 -0.2238  0.0486  0.2829
10739W        W25870   2.580  10.378   0.809  0.1525  0.1298 -0.0509
10740W        W25871  16.430   1.596   1.640 -0.1032 -0.0349 -0.1031
10741W        W25872  16.716   9.822  13.027  0.0993  0.0110 -0.2028
10742W        W25873  15.422   8.319   0.426  0.4684  0.2897 -0.3349
10743W        W25874  18.075  15.453  11.548  0.1300 -0.3068  0.2066
10744W        W25875   1.312  11.327   0.221 -0.0663 -0.0644 -0.0645
10745W        W25876   9.202   6.237   2.733  0.0008 -0.2461 -0.2350
10746W        W25877   1.414   8.904   3.789  0.0135 -0.1418 -0.2209
10747W        W25878   7.585  17.275  12.890  0.3626  0.0183 -0.1752
10748W        W25879  14.980   0.404   0.450 -0.1750 -0.2204 -0.3616
10749W        W25880   8.739   2.510  12.378  0.1121  0.1800  0.0548
10750W        W25881   0.386  14.223  12.421 -0.0014  0.1159 -0.0892
10751W        W25882   2.238   6.457   3.411 -0.4179  0.2657  0.1761
10752W        W25883  14.694   6.911  10.791  0.0818 -0.2432 -0.0422
10753W        W25884  17.090   0.959  12.521  0.0256  0.2609  0.2541
10754W        W25885  10.792   6.067   2.745  0.3155  0.0406  0.1135
10755W        W25886   5.313  11.664   0.398  0.1652  0.0718 -0.2802
10756W        W25887  15.178   4.547   3.389 -0.1170 -0.1364 -0.2455
10757W        W25888   0.682  16.370  15.571  0.0503  0.3584  0.0035
10758W        W25889  12.623  10.699   5.891  0.3320  0.0145 -0.2413
10759W        W25890   2.963   7.542  12.041  0.0122  0.0856  0.1573
10760W        W25891   1.375   9.209   1.105 -0.1559  0.1359 -0.0735
10761W        W25892  17.003   6.122  13.133 -0.5083  0.3151 -0.1506
10762W        W25893  16.623   0.248  15.777  0.0646  0.1537  0.1644
10763W        W25894   0.384   8.576  12.171  0.0612  0.5328  0.0414
10764W        W25895  15.841  11.327  12.667 -0.1928  0.2461  0.1840
10765W        W25896  12.797  16.455   5.382  0.5405 -0.1112  0.5398
10766W        W25897   8.497   5.996  13.505  0.2054 -0.0837  0.4013
10767W        W25898  11.169   6.936  12.516 -0.1236  0.1270 -0.4048
10768W        W25899  11.230  17.087   5.093 -0.3630  0.1410  0.0701
10769W        W25900  11.701  10.888  15.598 -0.0043  0.0153 -0.0818
10770W        W25901   0.479  11.404  12.134  0.3476 -0.1969  0.3007
10771W        W25902  12.603   7.516  15.825  0.0013 -0.0085 -0.0622
10772W        W25903   6.668   5.380   3.516 -0.0903 -0.1058  0.1401
10773W        W25904   4.481   1.549   1.287 -0.1587  0.1452 -0.0306
10774W        W25905  16.631   1.321   1.204 -0.0651 -0.1167  0.0579
10775W        W25906   9.002   2.733   6.284 -0.3295  0.0755  0.1582
10776W        W25907  11.560   9.506  14.281  0.1311  0.0167  0.0493
10777W        W25908   7.841   2.199  12.242 -0.1059 -0.2731  0.0742
10778W        W25909   7.676   6.148   2.553 -0.0917 -0.2514  0.0131
10779W        W25910   8.444   2.999   1.491  0.1704 -0.0627  0.1533
10780W        W25911  18.075   0.577  15.872  0.1475 -0.0958 -0.0591
10781W        W25912   2.593   1.312  16.443  0.0874 -0.0907 -0.1594
10782W        W25913  18.074   4.787   3.465  0.0854 -0.1618  0.0672
10783W        W25914  17.417  16.386  14.769 -0.0864 -0.1630  0.1326
10784W        W25915   9.545  12.574  11.342 -0.0865 -0.0252  0.0897
10785W        W25916   6.815  16.592   2.236  0.3615  0.2717 -0.0604
10786W        W25917   4.500   8.158   1.790  0.0692  0.0952 -0.1711
10787W        W25918   1.448   4.534   5.583  0.1302  0.2872  0.1975
10788W        W25919   7.031  14.364  15.390 -0.1583  0.0690 -0.0637
10789W        W25920  11.075   4.985  11.290  0.0133 -0.0880 -0.2501
10790W        W25921  13.153  16.390   5.773  0.0048  0.0062 -0.2399
10791W        W25922  13.319   3.903   4.891 -0.0685 -0.3137  0.1987
10792W        W25923  16.697  17.535  13.917 -0.0907 -0.0162 -0.2098
10793W        W25924   9.032  16.734  12.475  0.0063  0.0454  0.0971
10794W        W25925   5.190  10.169   1.606  0.1312  0.1534 -0.1719
10795W        W25926  15.579  10.108   5.037 -0.2788  0.2362  0.0096
10796W        W25927   3.267  17.614  16.124 -0.3875  0.0233 -0.0936
10797W        W25928   1.366  12.738  14.284 -0.2064  0.2101 -0.2513
10798W        W25929  11.571  13.416  12.099 -0.3044 -0.0343 -0.0566
10799W        W25930  12.573   7.988   5.248  0.2433  0.1094 -0.1204
10800W        W25931  10.755  16.176   3.717  0.0182 -0.0079  0.1297
10801W        W25932   7.553   7.484   0.181  0.2911  0.3052 -0.2087
10802W        W25933   7.094  16.433   4.522  0.3878  0.0523 -0.1891
10803W        W25934  12.876   5.532  11.808 -0.0810 -0.1738 -0.2193
10804W        W25935  16.262  10.742   2.782  0.1876 -0.0916  0.1969
10805W        W25936  11.343   6.417  10.768  0.0006 -0.0235 -0.1056
10806W        W25937  17.865  11.592  12.774  0.1669  0.2621  0.1400
10807W        W25938   9.893   9.480   3.976  0.2226 -0.0845 -0.0285
10808W        W25939   6.000  12.920   4.171 -0.1345  0.1342 -0.3032
10809W        W25940   7.059  11.244  14.673 -0.0027 -0.2169  0.0603
10810W        W25941  13.907  14.614   1.193 -0.0088  0.0203 -0.0073
10811W        W25942  13.519   7.598  16.178 -0.2634  0.1361 -0.1354
10812W        W25943   5.412   5.991  13.454  0.0346  0.0496  0.0578
10813W        W25944  17.538  14.536  14.136  0.0629 -0.0630  0.2653
10814W        W25945   3.486   0.401  13.652 -0.1484 -0.2278 -0.4747
10815W        W25946   8.880  12.148   1.482  0.1296  0.1549  0.1122
10816W        W25947   9.201  15.742   4.026  0.1007  0.4356  0.0318
10817W        W25948  17.813   1.969  11.742 -0.1702 -0.1024 -0.0390
10818W        W25949   9.145   4.047   5.109 -0.0339 -0.2743  0.0234
10819W        W25950  15.001   9.709   2.468 -0.0475  0.1610  0.0233
10820W        W25951  17.734   4.480  15.559  0.1705  0.1423 -0.2632
10821W        W25952   7.905  15.853   1.028  0.3936 -0.0986 -0.0626
10822W        W25953   5.897   2.708   4.387 -0.1561  0.0100 -0.0383
10823W        W25954  12.506  15.491  11.411 -0.0504  0.1587  0.4438
10824W        W25955  15.167   2.914   1.968  0.0579 -0.3034 -0.0089
10825W        W25956   4.593   0.761  11.104 -0.0822 -0.1442  0.2123
10826W        W25957   1.008  14.221  14.375 -0.1690  0.3271 -0.1095
10827W        W25958   9.923  15.601   4.255 -0.1200  0.2599  0.1519
10828W        W25959  10.168  15.327   1.545  0.1103 -0.3515  0.0695
10829W        W25960   4.812   4.018  13.238 -0.2226  0.2040 -0.1484
10830W        W25961   0.088  14.882   2.237 -0.0203 -0.1476  0.0989
10831W        W25962   9.308  14.600   3.368 -0.0350 -0.3209 -0.0266
10832W        W25963  15.110  16.353   0.907  0.0307 -0.2148 -0.1722
10833W        W25964  13.931  10.946   2.979  0.0224 -0.1305  0.0204
10834W        W25965   8.041   8.803  12.933  0.0070  0.1102 -0.1364
10835W        W25966   9.982   5.057  12.843 -0.0859  0.2928  0.1624
10836W        W25967   6.428  17.797   2.927 -0.0637 -0.0833  0.0417
10837W        W25968   2.154   2.563   6.375 -0.1199 -0.0148 -0.2417
10838W        W25969  11.981  10.778   3.512 -0.1096  0.1305 -0.0253
10839W        W25970   3.562   8.239   4.871  0.0855  0.2461  0.1203
10840W        W25971   3.773  18.037   2.635 -0.0712  0.1641 -0.2931
10841W        W25972  17.675  16.908   0.866  0.0968  0.0680 -0.4625
10842W        W25973  10.389  10.407  11.579 -0.1229 -0.2295  0.2442
10843W        W25974  12.194  14.408  12.453  0.1249  0.1242 -0.1718
10844W        W25975  11.910   6.323   3.459  0.0241  0.0006 -0.0030
10845W        W25976  10.808   8.796   4.968 -0.0592 -0.0219  0.1552
10846W        W25977  12.710   2.460  14.147  0.1095 -0.1406 -0.1239
10847W        W25978  17.666  14.081   2.391 -0.0286  0.1430 -0.0132
10848W        W25979  12.541  11.873   2.549  0.1086 -0.0885 -0.0951
10849W        W25980  14.762   5.808   1.109 -0.0302 -0.5026 -0.4316
10850W        W25981  15.358   1.519  16.255 -0.1652  0.0678 -0.2809
10851W        W25982  15.389   7.118   0.009 -0.0023  0.0675 -0.1148
10852W        W25983   3.857   7.333  12.185  0.0094  0.1063 -0.2398
10853W        W25984  13.198  14.096  12.266 -0.0332  0.1291 -0.1474
10854W        W25985   3.057  17.378   5.196 -0.1422 -0.1233 -0.1728
10855W        W25986   9.286  18.098   4.004  0.0170 -0.1207  0.1014
10856W        W25987  15.695   8.398   5.665  0.5637 -0.0205 -0.2033
10857W        W25988  10.744   1.881   4.893  0.2036  0.2334 -0.1779
10858W        W25989  14.259   0.946  11.746 -0.0553 -0.0733  0.0834
10859W        W25990  11.954   6.018   4.725 -0.2268 -0.0239 -0.0137
10860W        W25991  15.385  11.680  16.321 -0.0896  0.1239 -0.0921
10861W        W25992   5.756   7.864  12.169 -0.1226  0.1316  0.4509
10862W        W25993  16.983  12.196   0.414  0.1799  0.1625  0.0274
10863W        W25994   5.292   6.838  14.126 -0.1088 -0.1998  0.2158
10864W        W25995  16.056  13.008   2.718 -0.1468 -0.1076  0.1265
10865W        W25996   0.537  17.364  13.174 -0.2206  0.3013 -0.3385
10866W        W25997  12.059   0.490   3.752 -0.2513 -0.1007 -0.1107
10867W        W25998   7.501   4.525  12.647 -0.3509  0.0672  0.2911
10868W        W25999  13.208   5.367   1.087 -0.0963 -0.3422 -0.0305
10869W        W26000  14.940   5.819   3.121 -0.1625  0.2140  0.0311
10870W        W26001   0.228   4.376  15.564  0.0236  0.2496  0.3133
10871W        W26002  14.399   6.943  15.386  0.0283  0.0148 -0.0911
10872W        W26003   4.672  14.905   4.050 -0.0046 -0.0883 -0.2652
10873W        W26004  11.615   6.375   5.199 -0.0149 -0.4541  0.0488
10874W        W26005   6.936  12.307   0.738  0.0329 -0.1124  0.0255
10875W        W26006  15.056  17.567   4.329 -0.1807 -0.0600  0.3102
10876W        W26007  13.600   1.076   5.185  0.0909  0.1200  0.2298
10877W        W26008  11.112  16.262  15.901 -0.1960 -0.0887 -0.0310
10878W        W26009   2.523  13.045  13.314 -0.3730  0.2454 -0.0055
10879W        W26010  10.205  16.496   4.719 -0.1386  0.1283  0.0088
10880W        W26011   2.159   0.984  14.243 -0.3173  0.0002 -0.1234
10881W        W26012   0.269  16.861   2.007 -0.1871 -0.2853  0.2413
10882W        W26013   7.679  11.639   5.383  0.0206  0.0391 -0.0060
10883W        W26014  14.695   3.770  13.340 -0.0804 -0.1250  0.0542
10884W        W26015   9.628  11.091   0.905  0.0136 -0.2876 -0.3133
10885W        W26016   1.659   5.996  13.085  0.1294 -0.0615  0.0157
10886W        W26017   8.328   0.346   1.960 -0.3883 -0.4361  0.1582
10887W        W26018  15.518   8.953   1.878 -0.0547 -0.3038  0.1284
10888W        W26019  15.437   5.268  12.019 -0.3404 -0.0201 -0.0767
10889W        W26020  17.082  12.935   1.520  0.0692 -0.4476 -0.1314
10890W        W26021  17.052  15.371  16.396  0.1713  0.0025 -0.4677
10891W        W26022  17.232  17.233  11.181 -0.1855  0.1021 -0.1671
10892W        W26023  12.839  10.221  16.244  0.3572  0.0590 -0.0562
10893W        W26024   2.000  16.955  14.211  0.0828 -0.2529  0.2984
10894W        W26025  16.513  16.545   0.269  0.2209 -0.2702  0.0167
10895W        W26026   6.446   4.302   4.241 -0.2919 -0.3258 -0.4103
10896W        W26027  16.855  14.267  15.357  0.0198 -0.0050 -0.0030
10897W        W26028  14.329  16.187   0.283  0.0599  0.0474 -0.0291
10898W        W26029   9.427   9.548   5.677  0.0296 -0.1120  0.1270
10899W        W26030  12.167  18.106  15.688  0.0420 -0.0611 -0.1411
10900W        W26031  14.853  16.229  12.143 -0.1202  0.0457 -0.0575
10901W        W26032  17.132   9.477   0.443  0.0528 -0.4277  0.0400
10902W        W26033  16.056  12.017   2.301 -0.1336  0.0235  0.0496
10903W        W26034   3.857   9.452   4.327 -0.1790 -0.2644  0.0644
10904W        W26035   6.647   1.186   0.796 -0.0689 -0.0526  0.1238
10905W        W26036  16.070   6.281  12.101  0.1374 -0.3009 -0.0054
10906W        W26037   2.115   0.916  12.468 -0.0592  0.0834 -0.2290
10907W        W26038   0.608   8.332  11.752 -0.4118  0.0282  0.0091
10908W        W26039   5.604   3.952   9.876  0.1710 -0.1960 -0.0495
10909W        W26040   3.606  14.778   0.099  0.3482  0.0843  0.2017
10910W        W26041  16.675   3.811  11.041 -0.3085  0.1772 -0.6119
10911W        W26042  15.007   1.825  12.432 -0.1004  0.3586 -0.0797
10912W        W26043  12.097   4.280  14.791 -0.2361 -0.0455  0.0233
10913W        W26044   3.161   6.038   3.253  0.2542  0.2354 -0.1980
10914W        W26045   6.479  14.119   0.774  0.2323  0.1177  0.3136
10915W        W26046  17.167  14.654  13.107 -0.1685 -0.0056 -0.0462
10916W        W26047  17.982  11.586   4.594 -0.2687 -0.1006  0.2209
10917W        W26048   0.858   0.622   4.839  0.0214  0.0727 -0.0028
10918W        W26049   4.500   9.233  15.492 -0.2541  0.0874 -0.0875
10919W        W26050  15.619  10.394   1.582 -0.2535  0.0344  0.0622
10920W        W26051  11.781  13.040   2.290  0.0681 -0.2910  0.0737
10921W        W26052   5.012   8.224   1.255  0.0914 -0.0667 -0.0472
10922W        W26053   8.132   0.404  15.734  0.0441  0.1102  0.1550
10923W        W26054   5.471  17.073   0.302 -0.2949 -0.2544  0.0570
10924W        W26055  17.531   3.670  11.216  0.0919 -0.1641  0.3588
10925W        W26056  15.000  16.055   3.631 -0.2133  0.0797 -0.1760
10926W        W26057   9.957   6.650  14.992 -0.2267  0.0751  0.1636
10927W        W26058  15.645   8.939  15.620 -0.2371 -0.2856  0.1222
10928W        W26059   3.377  11.828   0.698  0.1534  0.2059 -0.1759
10929W        W26060  16.846  11.751   2.980 -0.1289  0.1201  0.1760
10930W        W26061  11.199  13.545  12.472 -0.2913 -0.1735  0.3370
10931W        W26062  16.941   0.013   0.767 -0.0630  0.0640 -0.2374
10932W        W26063   4.067   6.132  13.829 -0.0298 -0.2044 -0.0707
10933W        W26064  17.873  17.236  11.574  0.2856  0.1746  0.1663
10934W        W26065   8.517   8.105  14.469  0.1932 -0.1073  0.1556
10935W        W26066   1.586  17.922  11.150  0.1433  0.1647  0.4234
10936W        W26067   7.453  16.737  13.936 -0.0654  0.0702  0.4921
10937W        W26068   3.417   7.593   2.609 -0.0582  0.4965 -0.2080
10938W        W26069   5.009  17.731  15.122 -0.1856  0.0260  0.0976
10939W        W26070   5.258   6.276  15.892  0.0707 -0.0518 -0.0094
10940W        W26071   6.708   5.155  13.967  0.2344 -0.0878  0.1418
10941W        W26072  17.261  16.897  14.882  0.0165 -0.0773  0.0496
10942W        W26073   9.260  12.727  15.862  0.0084  0.0920 -0.0050
10943W        W26074  10.779  14.376  14.814  0.1164 -0.2418  0.0675
10944W        W26075   0.105   5.050  14.074 -0.0765  0.0030  0.1633
10945W        W26076   8.662  17.042   5.022 -0.2124 -0.1042 -0.0915
10946W        W26077  16.369   1.698  15.023  0.2432  0.1503 -0.0099
10947W        W26078  10.028  12.232   1.319  0.2357  0.2634  0.0856
10948W        W26079   4.763   0.736   6.414 -0.0259  0.0992  0.0766
10949W        W26080  17.327   9.186  14.103  0.0404 -0.0030  0.1923
10950W        W26081   6.928   6.035   6.164  0.1166 -0.3787  0.1386
10951W        W26082  12.283   9.899  12.535  0.0110 -0.2269 -0.2729
10952W        W26083   0.649  10.865   5.171  0.1271  0.0818 -0.2148
10953W        W26084   6.228   2.227   1.469  0.0256  0.2673 -0.4373
10954W        W26085  15.000   7.254   2.457  0.0908 -0.3070 -0.1287
10955W        W26086   6.986   7.963   1.697 -0.0897  0.2728  0.0456
10956W        W26087   9.394   9.725  13.364  0.3189  0.1231  0.0884
10957W        W26088   6.123   4.947   0.780 -0.2865  0.3463 -0.0237
10958W        W26089  16.370   0.335   2.658 -0.0464  0.2036 -0.4147
10959W        W26090   9.884  17.168  12.569  0.1065  0.0033 -0.0902
10960W        W26091   5.468   1.286   0.735 -0.0896 -0.2154  0.2884
10961W        W26092   2.224   9.643  13.328  0.0250  0.1363 -0.1087
10962W        W26093   5.751  17.411  12.485  0.2204  0.1549 -0.0132
10963W        W26094   4.943  11.424  13.308  0.2398 -0.1116  0.0559
10964W        W26095  16.113   6.750  12.851 -0.3573  0.1206 -0.0197
10965W        W26096   0.105   0.087   4.916  0.1856 -0.0745 -0.0215
10966W        W26097   1.747   6.403  15.979  0.0682  0.0372 -0.1749
10967W        W26098   6.309  12.152   4.554  0.1698  0.0224 -0.1285
10968W        W26099  11.704  10.147  11.475 -0.0765 -0.1474 -0.0883
10969W        W26100  13.013   8.446  11.654 -0.0224 -0.0051 -0.0283
10970W        W26101  13.214  17.890   1.196 -0.1098  0.0889  0.1746
10971W        W26102  15.432  12.347  15.328  0.0455 -0.0841 -0.2570
10972W        W26103  17.598  13.532   0.494  0.0686 -0.0330  0.2185
10973W        W26104  17.119   3.957  12.906  0.2184  0.0815 -0.1155
10974W        W26105   6.444  11.625   4.319  0.0255  0.0507  0.1215
10975W        W26106  13.985   5.648  13.548  0.0579  0.0972  0.1660
10976W        W26107  10.281   8.681   3.659 -0.0797 -0.1311 -0.3984
10977W        W26108  12.789  17.946   4.917  0.2373  0.2375  0.3536
10978W        W26109  10.892  17.812  13.432 -0.3255  0.0172  0.0140
10979W        W26110   9.036  13.536   4.707  0.4908  0.2415 -0.1320
10980W        W26111   2.685  11.196  12.715 -0.1901  0.1848 -0.1754
10981W        W26112  15.980   8.221  12.739 -0.1383  0.1398  0.0325
10982W        W26113  17.517   3.468   1.678 -0.2653 -0.0724  0.1178
10983W        W26114   0.919   8.860   1.129 -0.0783 -0.0357  0.1190
10984W        W26115  17.748   8.121  12.292  0.0346  0.1475  0.2204
10985W        W26116   3.114  12.614   4.625 -0.0431  0.1397 -0.0292
10986W        W26117   9.285  16.265  13.733  0.1581 -0.0164 -0.0342
10987W        W26118   9.297  17.410   1.000  0.1088  0.2603 -0.0788
10988W        W26119  11.109   8.699   1.735  0.1880  0.0049 -0.1608
10989W        W26120   2.010  10.927   2.689  0.1465  0.2327  0.0380
10990W        W26121   9.333  15.074   5.871  0.3206  0.1782 -0.1205
10991W        W26122   1.002   1.465  12.920  0.2584  0.1023  0.0622
10992W        W26123  11.363  12.969  14.514 -0.1347 -0.1561 -0.0355
10993W        W26124  11.520   5.001   4.740  0.0153 -0.0084 -0.0793
10994W        W26125   9.338  15.147  16.109 -0.1566 -0.0613  0.2349
10995W        W26126  14.106  11.682  14.386 -0.0607  0.2382 -0.2906
10996W        W26127  17.372  14.441  15.951 -0.2552  0.0189  0.2625
10997W        W26128   4.132   9.459   0.296 -0.0294  0.1730  0.0678
10998W        W26129  16.408   0.386   2.149  0.2460 -0.0738 -0.0255
10999W        W26130   6.246   5.105   2.746 -0.0743  0.1593  0.1083
11000W        W26131   1.557   9.287  12.309 -0.2793 -0.1328  0.2040
11001W        W26132  17.999   4.297  15.171  0.0932  0.1632 -0.1150
11002W        W26133  17.327  11.617  15.158  0.1235  0.0901 -0.0139
11003W        W26134  17.674   8.277  14.010  0.0132  0.0094  0.1164
11004W        W26135   9.361   3.486  16.035 -0.1494 -0.1495  0.0690
11005W        W26136  10.638   9.856  15.226  0.1609 -0.1087  0.0205
11006W        W26137   8.967  15.819  11.100 -0.0541 -0.0734 -0.1216
11007W        W26138  10.759   5.354  12.032 -0.1290  0.2227  0.3123
11008W        W26139  16.642   3.200  16.147 -0.3172 -0.0511 -0.1449
11009W        W26140  10.590  12.957   2.152  0.2557 -0.0904  0.1634
11010W        W26141  10.530  12.651  16.343  0.1738 -0.0774  0.1511
11011W        W26142   4.795  17.475  15.535 -0.0379  0.1960  0.2023
11012W        W26143   2.389   4.822   4.630  0.0108 -0.1724 -0.1921
11013W        W26144   2.390  17.371   2.416 -0.0991  0.0601 -0.1317
11014W        W26145  11.528   6.631   1.668  0.1785  0.1001 -0.2076
11015W        W26146  13.249   6.919  13.476  0.1154 -0.1972 -0.1718
11016W        W26147  15.577  17.975  12.890  0.2987 -0.2618 -0.2610
11017W        W26148  13.163  17.814  13.976 -0.0066  0.0862 -0.0429
11018W        W26149  16.070  11.131  13.141 -0.1655 -0.1462 -0.0774
11019W        W26150   1.935   3.098  12.142 -0.0293 -0.0628  0.0316
11020W        W26151   4.446   4.419  10.843 -0.3736  0.0745 -0.0319
11021W        W26152  13.341   8.252  13.154  0.0426  0.1128  0.0561
11022W        W26153   3.952   3.509  12.653 -0.3421 -0.1763 -0.1266
11023W        W26154   5.746  11.907   2.206  0.2566  0.1372  0.1927
11024W        W26155  12.942  15.152  10.841  0.0042 -0.0757 -0.2272
11025W        W26156   6.039   6.566   1.138  0.0102  0.1714 -0.0474
11026W        W26157   5.146  13.714   1.833  0.0314  0.0596  0.0590
11027W        W26158   9.861   4.668  15.343  0.1542 -0.0059  0.2240
11028W        W26159  12.633  12.420   4.359 -0.1295 -0.2066  0.1027
11029W        W26160  10.979   6.991   3.829  0.2601 -0.1750 -0.1327
11030W        W26161   1.301  12.850   1.592  0.1170 -0.1706 -0.0537
11031W        W26162   7.159   4.309  10.995 -0.0691  0.1279 -0.1135
11032W        W26163   0.516   4.416   5.027  0.1420 -0.1243 -0.2055
11033W        W26164  15.860   4.074   1.747 -0.2283  0.0890 -0.2391
11034W        W26165  14.217  13.844   1.034 -0.0395 -0.0134 -0.0884
11035W        W26166  13.052   6.400  11.091  0.1621 -0.0861 -0.0367
11036W        W26167   6.959   8.431  14.038  0.3390  0.0961 -0.2677
11037W        W26168  14.878   6.325   6.274  0.2210 -0.0773 -0.2497
11038W        W26169  12.571   5.752  12.192  0.1825  0.1536  0.0458
11039W        W26170   1.556   6.644  15.451  0.1409  0.3136  0.0108
11040W        W26171   8.007   1.438   5.100  0.1270 -0.0144  0.0005
11041W        W26172  17.637  17.046  16.324 -0.0836 -0.2616 -0.0907
11042W        W26173  11.862  10.946  11.277  0.2160 -0.3286  0.0158
11043W        W26174   2.397   3.708   1.216 -0.2648 -0.1231 -0.1638
11044W        W26175  10.098  14.571   2.233  0.3530  0.0368  0.1075
11045W        W26176  13.054   8.318  16.172  0.3000  0.0693  0.2456
11046W        W26177   5.448   3.371  13.735 -0.1157 -0.2014  0.0813
11047W        W26178   2.707  16.034   2.112  0.0977  0.0641 -0.1316
11048W        W26179  11.418  15.030   1.569 -0.0635 -0.0373 -0.0053
11049W        W26180   1.808  17.109   6.221  0.0655  0.1917 -0.1165
11050W        W26181   1.862   4.082  11.505  0.1856 -0.2326 -0.0653
11051W        W26182  10.696   6.583  12.230 -0.2300 -0.1075 -0.6103
11052W        W26183  17.418   1.153  16.141  0.1647  0.1690 -0.2118
11053W        W26184  15.699  13.539  11.361 -0.2439  0.1766 -0.1107
11054W        W26185  14.953   7.430  12.924  0.5208 -0.1498 -0.0911
11055W        W26186   7.081   8.999   1.810  0.0008  0.2845 -0.0468
11056W        W26187   7.209   1.181  16.155  0.3587  0.0560 -0.3545
11057W        W26188   2.192   0.596   2.506  0.2346  0.0119  0.0694
11058W        W26189   9.403   2.850   1.664 -0.1869 -0.3036 -0.0690
11059W        W26190   9.352   3.103   1.251  0.1263 -0.4258 -0.1704
11060W        W26191  16.596   1.963  15.810 -0.2757 -0.3571 -0.1192
11061W        W26192  12.361   0.098  12.312  0.0816  0.2204  0.1999
11062W        W26193   1.913  11.684   5.333 -0.2827 -0.0295 -0.0902
11063W        W26194  13.222   5.523   2.721  0.3465  0.1751 -0.0010
11064W        W26195   0.649  13.252   2.597  0.0053 -0.0986  0.0022
11065W        W26196  15.668  14.879   3.429  0.0832  0.0164  0.1265
11066W        W26197  17.375   6.631  15.456 -0.1367 -0.1356 -0.2526
11067W        W26198  10.993  16.965   3.328 -0.1895 -0.0906  0.0270
11068W        W26199   4.160   0.897   4.490 -0.1717 -0.0152 -0.1680
11069W        W26200   9.499  15.298   5.421  0.0988  0.1807 -0.1408
11070W        W26201  13.350  16.368  12.572 -0.2065 -0.2468 -0.2436
11071W        W26202   3.672   7.978  15.600  0.1973 -0.1288 -0.1852
11072W        W26203  10.629  12.176   6.270 -0.0840  0.0209  0.1116
11073W        W26204   1.746  15.798   4.362 -0.0666  0.0671 -0.3754
11074W        W26205  11.621  13.850  15.693 -0.0538  0.0208 -0.1235
11075W        W26206   8.757   9.869  14.611 -0.1204 -0.1331  0.0819
11076W        W26207   1.029   2.043  11.552 -0.1847 -0.2086 -0.1084
11077W        W26208   5.091   4.749  13.864 -0.0641 -0.2456 -0.0493
11078W        W26209   7.529  10.781   0.781  0.0226  0.3387  0.0547
11079W        W26210   1.864  14.743   4.588  0.2913  0.0634 -0.0066
11080W        W26211  16.646   2.891   2.214  0.0092 -0.1860  0.2790
11081W        W26212   3.074  17.975   5.013  0.3296 -0.1778 -0.3710
11082W        W26213   5.707  12.540  13.739  0.0815 -0.2411 -0.0987
11083W        W26214  11.612  12.699   4.066 -0.1747  0.1753 -0.0930
11084W        W26215  18.029  17.443   0.812  0.1993  0.1182 -0.1707
11085W        W26216   1.795  15.362  16.110 -0.0775  0.2340 -0.2896
11086W        W26217   2.451   2.550   3.216  0.1956 -0.5695 -0.6068
11087W        W26218  12.840  15.125   3.763  0.3262 -0.1625  0.0175
11088W        W26219   4.595  13.910   3.847 -0.0312  0.1081  0.2792
11089W        W26220  15.130  15.746  15.064  0.0736 -0.0388 -0.1497
11090W        W26221  10.219  11.127   0.194  0.4094 -0.2320 -0.2742
11091W        W26222   4.948  11.021  11.327 -0.2047 -0.0221 -0.1698
11092W        W26223   8.779   9.805   0.691 -0.4375  0.0108 -0.1883
11093W        W26224  16.604   6.201   3.420  0.2696 -0.3457  0.0305
11094W        W26225  12.646  12.763   2.074  0.0213 -0.3187  0.3348
11095W        W26226   4.256   3.631  10.975  0.0085  0.1783  0.0838
11096W        W26227   6.090  11.099   3.689  0.1674 -0.0558  0.1497
11097W        W26228   1.624  13.288  13.115  0.1450  0.0446  0.0441
11098W        W26229   7.736  10.400  12.659  0.0287  0.0943 -0.0489
11099W        W26230  15.107  11.593  14.320  0.0404 -0.0664 -0.0485
11100W        W26231  13.733   9.296   0.463  0.0359  0.0766  0.0128
11101W        W26232  17.911   8.881  14.877 -0.3602  0.1901  0.0771
11102W        W26233  11.857   8.344  13.598  0.0303 -0.2567  0.0023
11103W        W26234   9.762   4.952  15.765  0.1961  0.3907 -0.3046
11104W        W26235   6.646  17.769  14.528  0.0671  0.0127 -0.1772
11105W        W26236   8.001   6.314  10.310 -0.1830  0.1611  0.0139
11106W        W26237  14.786  10.818   5.178 -0.2049  0.0054 -0.0460
11107W        W26238  12.913   2.150   4.700  0.1492  0.0044 -0.2142
11108W        W26239   1.261  15.908  14.047  0.0602 -0.0177  0.1402
11109W        W26240  12.496  11.841  12.654  0.0702 -0.0016 -0.0387
11110W        W26241   6.976   6.210  15.414 -0.1035  0.1154 -0.2086
11111W        W26242  10.022  17.314   5.267  0.1716  0.0912  0.0666
11112W        W26243   9.772   8.996   4.483 -0.1272  0.2220 -0.1390
11113W        W26244  15.905   2.594  14.309 -0.0814 -0.0100 -0.0958
11114W        W26245   1.062   9.301   4.168 -0.1007 -0.2177  0.1656
11115W        W26246  10.483   8.070   4.619  0.2213 -0.1844  0.1137
11116W        W26247  13.603   2.584   1.397 -0.2345  0.1243  0.0460
11117W        W26248   7.657   6.036   1.363  0.0963  0.1750 -0.2746
11118W        W26249  11.123   3.615   0.292  0.2196 -0.1773 -0.2960
11119W        W26250  11.428  10.451  12.241  0.2071  0.2608  0.2450
11120W        W26251   6.766   2.672  10.892  0.1606  0.1732 -0.2066
11121W        W26252  17.514   2.822  11.524 -0.1532 -0.0429 -0.2728
11122W        W26253   1.457   1.806  11.685  0.0876  0.0487 -0.0012
11123W        W26254   5.386   6.673   2.018 -0.0126 -0.0025 -0.1676
11124W        W26255  15.153   4.115  13.401  0.0287 -0.1587  0.1785
11125W        W26256   4.122  11.221   4.930 -0.0577 -0.3075  0.3024
11126W        W26257  10.744   7.501  15.623  0.2649 -0.2860  0.3661
11127W        W26258   7.790   7.445   1.263  0.0416  0.0553  0.0503
11128W        W26259  12.939  13.683  14.860  0.2924 -0.2503 -0.0872
11129W        W26260   8.888   3.958  11.833 -0.1337 -0.4095 -0.0431
11130W        W26261  18.077  13.500   3.714 -0.1746  0.0109 -0.1889
11131W        W26262   2.474   8.837  12.991 -0.0931 -0.3756  0.2071
11132W        W26263  12.710   9.038   3.313  0.0679 -0.1023 -0.1164
11133W        W26264   1.847   4.330  15.467 -0.1190  0.1600  0.1793
11134W        W26265  16.504   2.802   0.160 -0.2998  0.1092 -0.2323
11135W        W26266  11.336   2.376  12.952 -0.1927 -0.0746 -0.0461
11136W        W26267  13.695  12.811   4.177  0.2470 -0.1719 -0.0972
11137W        W26268  16.812   1.019  15.534 -0.0061 -0.0746 -0.0595
11138W        W26269  14.003   0.621  15.536 -0.0671  0.1417 -0.1308
11139W        W26270   1.405   5.612  12.864  0.1579 -0.2371 -0.0900
11140W        W26271  12.613   4.885  14.258  0.1142 -0.1718  0.2382
11141W        W26272   7.098   1.109  12.637  0.1533  0.0835  0.3432
11142W        W26273   8.772   5.308   2.501  0.2773 -0.2904 -0.0108
11143W        W26274   6.072   0.341   2.293  0.2245 -0.1885 -0.3166
11144W        W26275  13.203  15.275   1.933  0.0015 -0.1464 -0.2727
11145W        W26276  13.195   6.266  15.068  0.2436 -0.1354 -0.2344
11146W        W26277   4.048   8.526  15.287 -0.3237  0.0826  0.5998
11147W        W26278   9.433   8.563   2.639 -0.1583  0.2243  0.1040
11148W        W26279   6.106   1.506   5.415  0.0520  0.0034  0.1052
11149W        W26280   5.154   3.495   5.282  0.0749  0.2558 -0.1966
11150W        W26281   3.143  16.781  11.256  0.1324 -0.1447 -0.0861
11151W        W26282  11.255  16.510   4.816 -0.1324 -0.1276 -0.1478
11152W        W26283   2.744   4.132  11.090  0.1764  0.0515  0.1047
11153W        W26284   1.225  15.889   1.666 -0.0595  0.0995  0.1157
11154W        W26285   5.898   8.586   1.018 -0.2090 -0.2679  0.1273
11155W        W26286  16.850  10.484  12.273  0.1521 -0.0492 -0.3956
11156W        W26287  12.587   3.230  14.700 -0.2282 -0.4460 -0.0208
11157W        W26288  11.866   4.547  11.690 -0.0453 -0.0638  0.0513
11158W        W26289   0.280  11.629   0.393  0.3988 -0.0876  0.2596
11159W        W26290   6.148   5.061  16.373 -0.1962  0.0220 -0.2174
11160W        W26291  11.289   3.583   1.823  0.1424 -0.3523  0.1651
11161W        W26292   6.737  11.089  12.322  0.0711  0.1222 -0.0439
11162W        W26293   3.187   6.573  11.887  0.1306 -0.1344 -0.1100
11163W        W26294  15.050   4.051   4.511 -0.0182 -0.3065 -0.0425
11164W        W26295  10.317   0.764   1.372  0.1236  0.1030  0.0495
11165W        W26296   9.234  15.640   0.382  0.0291  0.1478 -0.1801
11166W        W26297   4.583  14.489  13.097 -0.2114  0.0589 -0.2821
11167W        W26298   7.930   4.712  15.836  0.1269 -0.0316  0.1884
11168W        W26299  15.424   7.421   4.821 -0.0610 -0.1557  0.1392
11169W        W26300  17.114   5.349   0.418 -0.1618  0.1417 -0.0032
11170W        W26301   3.014  17.074   3.149 -0.0696 -0.0865  0.1066
11171W        W26302   0.876   6.751   3.698  0.4026 -0.1933  0.3349
11172W        W26303   2.684   0.721  11.295  0.2115  0.0628 -0.0416
11173W        W26304   5.436  17.299  12.946 -0.1857 -0.1839  0.1646
11174W        W26305  10.490   5.058  14.138  0.1068  0.0648 -0.0061
11175W        W26306   8.458   4.756   0.538  0.0448 -0.2445  0.1091
11176W        W26307  11.564   0.108  12.788  0.4757 -0.2320 -0.0564
11177W        W26308  16.017  15.141  13.323  0.1204  0.1137 -0.0814
11178W        W26309   0.651  10.574  16.403 -0.1515 -0.3298  0.1786
11179W        W26310   2.413  17.304  14.831  0.1134  0.0400  0.0618
11180W        W26311  11.229   1.232  10.397  0.1231 -0.0702 -0.1356
11181W        W26312  10.294  11.727   0.102 -0.0351  0.0986  0.1020
11182W        W26313  12.467  16.652   2.397 -0.1935  0.3064 -0.1884
11183W        W26314   5.849  15.829  14.403 -0.0911 -0.1216  0.2687
11184W        W26315   8.018   4.088  12.224 -0.0241 -0.4136  0.0243
11185W        W26316  11.606   5.655  13.731 -0.1241 -0.0869 -0.2046
11186W        W26317   4.025   1.798   0.242 -0.0570  0.0856 -0.1363
11187W        W26318  10.904  15.301  13.272 -0.1156 -0.1154 -0.1168
11188W        W26319  13.633   5.695   5.484 -0.3372 -0.1065  0.2696
11189W        W26320  13.101  11.972   3.247 -0.0633  0.1860 -0.0491
11190W        W26321   7.301  10.929  10.190 -0.4483 -0.0543 -0.2770
11191W        W26322  11.911  10.608   0.541 -0.0457 -0.2055 -0.3680
11192W        W26323  13.609  12.936  11.537 -0.0528 -0.2309  0.0050
11193W        W26324  12.638  11.011  14.258 -0.0426 -0.2312 -0.0981
11194W        W26325   5.861   4.077   3.070  0.0157  0.2053 -0.3439
11195W        W26326  17.814  11.665  13.780 -0.1916  0.3202 -0.3406
11196W        W26327   5.436   6.685  12.132 -0.1529 -0.3210  0.3827
11197W        W26328  10.693  16.243  14.833  0.1932 -0.2957  0.0901
11198W        W26329   7.037  14.988  16.320 -0.2600 -0.2904  0.1468
11199W        W26330   4.226   1.045   5.738  0.0474 -0.3697 -0.1405
11200W        W26331  12.542   0.413  11.206 -0.0188  0.0100  0.1636
11201W        W26332   9.628  11.860  13.782 -0.4260  0.2336 -0.1969
11202W        W26333  15.367  11.054   3.334  0.0637  0.0814 -0.4818
11203W        W26334   1.963   0.831   4.795  0.1368  0.1073  0.2116
11204W        W26335   5.132   1.459  12.544  0.0352  0.3869 -0.0131
11205W        W26336   4.921   6.943  13.765 -0.1198 -0.1163  0.0880
11206W        W26337   0.931  12.423   4.447  0.0306 -0.0354  0.1600
11207W        W26338   6.880   4.580   4.340  0.1568  0.2119 -0.0322
11208W        W26339   2.981  14.729   5.624 -0.1763  0.1868 -0.0951
11209W        W26340   2.461  13.521   1.834 -0.0871 -0.2484  0.0571
11210W        W26341   2.785  10.759   4.718 -0.1970  0.1397 -0.1347
11211W        W26342   6.852  13.609  12.020 -0.1957  0.1902  0.3153
11212W        W26343  16.990  16.012   1.256 -0.0576 -0.2189 -0.2363
11213W        W26344   2.147   7.645  15.869 -0.2072 -0.0915 -0.1137
11214W        W26345   1.586   1.337  11.275 -0.0067 -0.2912 -0.6026
11215W        W26346   7.971   0.617  14.263  0.0781 -0.3145 -0.2364
11216W        W26347   0.962   9.055   4.649  0.2335  0.3415  0.4283
11217W        W26348   6.294   1.012  15.955  0.2303 -0.0510 -0.0437
11218W        W26349   2.566   1.484   1.945  0.2081 -0.0581 -0.3738
11219W        W26350  11.328  12.083  13.428 -0.0979 -0.0341 -0.1042
11220W        W26351  14.554  17.335   0.964  0.2005  0.1135 -0.2278
11221W        W26352   8.566  15.717  13.348  0.0774  0.1348 -0.1089
11222W        W26353  10.547  13.370  15.071  0.1044 -0.1954  0.0281
11223W        W26354   0.387   5.989  13.955 -0.1322 -0.3527  0.1149
11224W        W26355   4.157   3.227  15.601 -0.1827  0.1597  0.0550
11225W        W26356   9.516  15.488   0.007  0.0151 -0.2769  0.0777
11226W        W26357  13.342   7.361  14.106 -0.1496 -0.0066 -0.0841
11227W        W26358   1.985   9.813  14.012  0.2036  0.1652 -0.2282
11228W        W26359  17.481   8.602   0.793  0.1926  0.0541 -0.0763
11229W        W26360  18.052   1.214   5.807  0.0740 -0.1889 -0.0293
11230W        W26361   4.337   8.893   1.063 -0.0784 -0.3317  0.0056
11231W        W26362  12.421   5.090   5.902 -0.0011  0.0628 -0.1731
11232W        W26363   6.541  12.104  15.242 -0.2543 -0.0282 -0.2308
11233W        W26364   0.671   3.670  12.336 -0.0985 -0.2167  0.1015
11234W        W26365   2.175  12.164  13.608 -0.2589 -0.1873 -0.1318
11235W        W26366   7.494   0.262  14.653  0.2625  0.1834 -0.0722
11236W        W26367   6.267   1.401   2.212  0.1842 -0.2308  0.0058
11237W        W26368  10.276   0.720  11.758 -0.0316  0.3856  0.2416
11238W        W26369  17.123  17.655  15.237  0.0035 -0.0361 -0.1407
11239W        W26370   1.473   3.524  15.912  0.1605  0.1150  0.0717
11240W        W26371  16.980  16.132   4.166  0.0531 -0.1450  0.0595
11241W        W26372  11.151   0.341  10.858  0.1799  0.3326  0.0980
11242W        W26373   1.588  17.575   6.243  0.0105  0.0570 -0.1167
11243W        W26374  15.079   9.003  15.548 -0.0142 -0.1774 -0.0251
11244W        W26375   1.724   5.615  12.183  0.0034 -0.1004 -0.2543
11245W        W26376  17.204   3.031  14.659 -0.0728  0.0067  0.0582
11246W        W26377   0.920  17.201  11.298 -0.1318 -0.3944 -0.3241
11247W        W26378   1.055   0.592   2.080 -0.0009 -0.0906  0.0727
11248W        W26379   3.784  16.845  11.411 -0.2376  0.1504 -0.0676
11249W        W26380   3.513   4.534  14.914 -0.0961 -0.3388 -0.0079
11250W        W26381   6.261   4.329  13.990 -0.0158 -0.2466  0.0201
11251W        W26382   2.873  10.265   1.204 -0.1983  0.2400 -0.0332
11252W        W26383  14.441  15.131   4.713  0.1409  0.1429 -0.4109
11253W        W26384  15.820   8.485  14.679  0.0407 -0.0024 -0.0720
11254W        W26385   2.481   7.356  16.170  0.2434  0.2097 -0.1560
11255W        W26386  13.266  17.402   2.927  0.0171  0.0516 -0.1619
11256W        W26387   0.971  12.125   1.240  0.0906 -0.2937  0.0857
11257W        W26388  13.008  13.632  16.425 -0.1421 -0.1350  0.2434
11258W        W26389   2.211  11.323   1.484  0.0108 -0.1389 -0.0143
11259W        W26390   0.587   1.291  11.718 -0.2350 -0.0455  0.0773
11260W        W26391   1.550   5.999   3.677 -0.0483 -0.0485  0.0928
11261W        W26392  17.117   1.923  15.589  0.2956 -0.2153 -0.2214
11262W        W26393  11.520  11.084  11.624  0.0447 -0.2580  0.2708
11263W        W26394   6.108  18.070  15.707 -0.0480 -0.3531  0.1431
11264W        W26395  16.232  10.438  13.625 -0.0320 -0.1698 -0.0547
11265W        W26396  11.630   7.070   2.511 -0.1632  0.1153  0.0458
11266W        W26397   2.882   2.404  11.675  0.1928  0.0524  0.3072
11267W        W26398   6.354   2.519   0.536  0.1903 -0.1295  0.2593
11268W        W26399  12.943   0.361   4.232  0.0807 -0.2520  0.4234
11269W        W26400  12.442  11.077  15.637 -0.2942  0.2435  0.0377
11270W        W26401   9.923  10.011  12.266 -0.2094 -0.2748  0.0563
11271W        W26402  13.203  17.746   5.023 -0.0258 -0.0797  0.0212
11272W        W26403   8.146  11.828  15.714  0.1748  0.2075  0.0596
11273W        W26404  13.044  11.940   1.238 -0.0693 -0.3122 -0.0198
11274W        W26405   2.361  16.386  11.249 -0.0010 -0.1850  0.0716
11275W        W26406  16.944  11.892   1.862  0.2435 -0.0822 -0.2903
11276W        W26407   4.916   6.178  13.635 -0.6181 -0.2110 -0.3286
11277W        W26408   5.896   5.874  10.942  0.1688  0.1545  0.0267
11278W        W26409   9.371  15.688  12.270  0.1862 -0.1576 -0.1120
11279W        W26410   9.366  15.237  12.027 -0.1071 -0.1950 -0.0950
11280W        W26411   1.794   2.328   3.246  0.0299 -0.1810 -0.2475
11281W        W26412  16.105  11.355   5.299 -0.0485  0.1796 -0.0381
11282W        W26413   1.106  15.449  14.938  0.2515 -0.1037  0.0205
11283W        W26414   3.849   0.108   4.074  0.2427  0.1421  0.2177
11284W        W26415   1.069   8.681  13.959 -0.2492 -0.1206 -0.2193
11285W        W26416   4.230  14.062  11.941 -0.3518  0.1913 -0.1394
11286W        W26417  15.975  13.321  15.896 -0.0991 -0.0473  0.0446
11287W        W26418   4.683   0.019   4.338  0.0881  0.2240 -0.2904
11288W        W26419   3.408   4.320  15.405 -0.1980 -0.0550 -0.0056
11289W        W26420  10.187  14.174   4.213 -0.0352 -0.2424  0.3550
11290W        W26421   5.226   3.271   5.722 -0.0351  0.0947 -0.3005
11291W        W26422   7.614   6.524   1.136  0.3101 -0.0811  0.1974
11292W        W26423  13.275  10.794   5.208  0.1052 -0.0955 -0.1150
11293W        W26424   5.374   4.627   2.374 -0.4265  0.3692 -0.1772
11294W        W26425  16.363   9.060  10.517  0.4153 -0.2625  0.0785
11295W        W26426  15.986  10.204  15.362 -0.1157  0.1750 -0.1555
11296W        W26427  14.274  12.646   5.632  0.0608 -0.0032 -0.2565
11297W        W26428  11.208   2.909   2.615  0.1730  0.2144  0.0610
11298W        W26429  11.686   5.424  14.168  0.3100 -0.2330  0.0165
11299W        W26430   5.765  16.600   6.880 -0.1030 -0.0870  0.1950
11300W        W26431  12.325   1.824  15.543  0.3568  0.0987 -0.2236
11301W        W26432  10.592  10.374   2.522 -0.2573 -0.0990  0.0972
11302W        W26433   0.088   4.940   1.593 -0.0506 -0.3860  0.1188
11303W        W26434   9.231  12.412   4.869 -0.2382  0.0750 -0.0560
11304W        W26435   0.441   5.144  10.454  0.0370  0.0014  0.0624
11305W        W26436   0.004  16.365   0.626  0.0231  0.1780 -0.1375
11306W        W26437  14.984  16.631  12.422 -0.0118 -0.0635  0.2752
11307W        W26438   1.145   3.014  12.426  0.0827  0.0021  0.0593
11308W        W26439  17.565  10.627  12.991 -0.3730 -0.3366  0.2501
11309W        W26440   0.698   9.545   3.890 -0.0229 -0.0213 -0.1207
11310W        W26441  14.101  17.451   1.701 -0.1038  0.0604 -0.5450
11311W        W26442   5.327  12.952   3.342 -0.0240 -0.0130 -0.2679
11312W        W26443  10.112  12.673  12.183  0.2444  0.0297 -0.1904
11313W        W26444   5.355  14.163   0.321  0.2289 -0.0190 -0.2910
11314W        W26445   0.328  14.707   3.405  0.1053  0.0867 -0.1153
11315W        W26446   3.953   9.903  13.484  0.2319  0.2183 -0.3055
11316W        W26447   7.995   7.554  12.072  0.0702 -0.0033 -0.0535
11317W        W26448  10.557  10.529  14.324  0.0548  0.3616  0.0513
11318W        W26449   3.308   7.059   4.519  0.0541  0.1850  0.0661
11319W        W26450   4.685   7.298  15.027  0.0950  0.4388  0.2932
11320W        W26451   9.016   8.713  13.050  0.1248 -0.2124 -0.0775
11321W        W26452  14.195  17.674  13.025  0.1895 -0.3358  0.2465
11322W        W26453  12.515  14.307  14.614  0.3221  0.0327  0.0745
11323W        W26454   4.679  10.913  16.010 -0.1922 -0.2005  0.0180
11324W        W26455   4.760   9.491   5.585  0.2761 -0.1883 -0.3157
11325W        W26456  16.109   8.934   1.690  0.1019  0.0394 -0.0541
11326W        W26457   3.191   4.578   2.667  0.0450  0.1414 -0.0708
11327W        W26458   9.711   8.802  15.035  0.1414  0.1845  0.0516
11328W        W26459   0.581  14.133   3.202 -0.0849  0.0919  0.0487
11329W        W26460   7.883   9.450   2.264  0.2216  0.1846  0.0383
11330W        W26461  10.258  12.030   2.102 -0.0799 -0.0829  0.0328
11331W        W26462  13.232  12.765  14.348  0.1451 -0.2401  0.1228
11332W        W26463   5.747   0.105  14.317  0.2530 -0.0568 -0.0420
11333W        W26464  14.535   9.713   3.641  0.1252  0.1254  0.2616
11334W        W26465   5.820  12.930   3.175  0.1013  0.0400 -0.3220
11335W        W26466   8.140  17.324  12.202  0.2110 -0.1088 -0.1636
11336W        W26467  13.366  14.839  11.978 -0.2084 -0.1818  0.0474
11337W        W26468   2.530   6.187  11.921  0.0674 -0.3777 -0.2121
11338W        W26469  16.219   8.766   1.227  0.0491  0.1972 -0.2859
11339W        W26470   8.247   8.961   0.576  0.0276  0.1403 -0.0672
11340W        W26471   4.095   8.336   3.605  0.0897  0.2031  0.1757
11341W        W26472   3.617  11.813  13.439 -0.0463  0.2392 -0.0422
11342W        W26473   3.011   3.299  14.741 -0.3054 -0.4323  0.2246
11343W        W26474  17.384   4.333   1.667  0.1348  0.0934  0.0712
11344W        W26475   1.603  17.201   2.741 -0.0623  0.0593  0.2713
11345W        W26476  14.823   4.827  14.144 -0.1213  0.2114  0.0371
11346W        W26477   3.304  17.035   5.405  0.0084 -0.1088 -0.3941
11347W        W26478   2.186  12.706   1.051 -0.2135  0.1581  0.2896
11348W        W26479   6.091   7.827  11.001 -0.0062  0.2096  0.1023
11349W        W26480   3.948  16.715  12.802 -0.2667  0.4571 -0.2518
11350W        W26481  10.153  12.397  14.993  0.3041  0.0627  0.0629
11351W        W26482   0.882   7.046  13.304 -0.0611 -0.2709 -0.1389
11352W        W26483   2.584  12.942   2.654  0.0502 -0.0608 -0.2919
11353W        W26484   4.886   6.344  14.788  0.0806 -0.1378  0.1005
11354W        W26485  17.187  11.321  13.603 -0.0259 -0.0272  0.2366
11355W        W26486  13.741  15.508   3.443  0.0160  0.0859 -0.2982
11356W        W26487  12.512   2.299  13.709  0.0992  0.2319  0.0015
11357W        W26488  17.822   9.687  12.750  0.2461  0.0098 -0.0107
11358W        W26489  16.321  11.594  15.978 -0.0054 -0.2668 -0.2310
11359W        W26490   0.157  11.360  13.763 -0.1129  0.0209  0.2980
11360W        W26491  14.764   8.487  12.776 -0.0942  0.0994 -0.0464
11361W        W26492  15.909   4.862   0.437 -0.0572 -0.1266  0.1239
11362W        W26493   8.342   5.822   1.369  0.1572  0.3054 -0.1772
11363W        W26494  11.061  10.446   0.221 -0.4367  0.4646 -0.1741
11364W        W26495  15.712   6.481   4.177  0.2108  0.3047  0.1743
11365W        W26496   2.644   1.403   1.445 -0.1416  0.3065  0.2725
11366W        W26497   7.329  17.416  16.414  0.1439  0.2779  0.1308
11367W        W26498  11.746   5.528   4.738 -0.3188 -0.0496  0.1024
11368W        W26499  15.923   1.950  15.112 -0.1227 -0.1798 -0.0444
11369W        W26500   9.444  17.159   4.241  0.2764  0.2558 -0.1792
11370W        W26501  13.067   2.962   1.148  0.1073 -0.0036 -0.1004
11371W        W26502   6.596   7.373  11.377 -0.0274 -0.1210  0.2231
11372W        W26503   3.761  17.508   4.613  0.1434 -0.1908 -0.2689
11373W        W26504  11.583  17.710  12.637 -0.3145 -0.1924  0.0155
11374W        W26505   5.842  14.151   0.305  0.1633  0.2194 -0.0246
11375W        W26506   0.976  11.657   2.205 -0.2385 -0.4653 -0.3090
11376W        W26507   7.756   0.140  15.947 -0.0094 -0.1723 -0.0091
11377W        W26508   2.985  12.394  11.025 -0.0867  0.0429  0.0129
11378W        W26509  12.430   8.449   2.215 -0.2670  0.3731  0.0250
11379W        W26510  16.744  10.954  14.187  0.1739 -0.1783 -0.1755
11380W        W26511   0.611   9.627  11.116  0.1214  0.0536  0.0583
11381W        W26512   8.421  12.979   4.051  0.0091  0.3594  0.0449
11382W        W26513   5.612   3.765  14.503  0.5578  0.0030  0.1608
11383W        W26514  14.435  17.632   2.627 -0.3085 -0.0610 -0.4179
11384W        W26515   9.205  14.065   3.391  0.2495 -0.0401 -0.2877
11385W        W26516  15.042   9.798   5.735 -0.1170 -0.0971 -0.4040
11386W        W26517  16.776  16.154  15.707  0.3368 -0.0690 -0.0251
11387W        W26518   6.715   4.863   0.861 -0.0636 -0.2418  0.1584
11388W        W26519  15.506   8.842   5.720 -0.0323 -0.2265 -0.0147
11389W        W26520   3.671  14.963  16.016 -0.0186  0.1134 -0.0141
11390W        W26521   3.577   1.736   1.536  0.4068 -0.2766 -0.2630
11391W        W26522  11.555   6.101   3.801 -0.0207  0.0475  0.1652
11392W        W26523   5.864   7.436  11.968  0.5253 -0.1110 -0.1357
11393W        W26524  15.494   8.373  12.441  0.1043  0.1608 -0.2529
11394W        W26525  15.117   1.145   2.092 -0.2576  0.4530 -0.1663
11395W        W26526   6.294   7.482   1.483  0.0797 -0.0405  0.2041
11396W        W26527  10.658   8.707   0.965 -0.0625  0.1148  0.0349
11397W        W26528   6.807  16.283  14.684  0.2108 -0.1284 -0.1283
11398W        W26529   1.405   5.775  14.781  0.2883 -0.2257 -0.0135
11399W        W26530   4.213   0.653   1.014 -0.3718 -0.0620  0.1061
11400W        W26531  16.719   1.760  14.695 -0.1126 -0.0795 -0.2288
11401W        W26532  15.631   6.179   0.126  0.0022  0.1694  0.1156
11402W        W26533   9.568  10.805  15.337 -0.1735 -0.1610  0.0659
11403W        W26534   9.108  13.012  12.069 -0.1611 -0.0603  0.2700
11404W        W26535  15.065   3.593   5.435 -0.1218 -0.0385  0.1734
11405W        W26536  12.612   4.046  15.869 -0.3195  0.0668 -0.0218
11406W        W26537  15.484  13.470   3.934 -0.1627 -0.2694 -0.0406
11407W        W26538   7.460  11.054  14.915 -0.0810 -0.1296 -0.0323
11408W        W26539   4.358   3.693   2.101  0.0162 -0.4086  0.1601
11409W        W26540  16.398  17.122   0.010 -0.0861  0.0835  0.1462
11410W        W26541  13.062   0.856  14.559  0.0298  0.1892 -0.3679
11411W        W26542  11.434  11.202   6.323  0.1491  0.1456  0.2179
11412W        W26543  17.651  12.787  16.241 -0.2362  0.0223 -0.1773
11413W        W26544  17.986   9.164   3.618 -0.1958 -0.2445  0.1647
11414W        W26545   2.997   2.503  15.885  0.0832 -0.1931  0.2088
11415W        W26546   2.605  14.331   3.264 -0.0147 -0.1814  0.0747
11416W        W26547  12.588  10.454  12.478 -0.0837 -0.2192 -0.3411
11417W        W26548  17.967  13.913   3.457  0.0945  0.0031  0.2358
11418W        W26549  17.283   3.437  15.061 -0.0096 -0.1837 -0.0876
11419W        W26550   1.531  10.069   4.096  0.0382 -0.1646  0.2295
11420W        W26551   1.394  12.248  14.795  0.2765  0.2383 -0.0228
11421W        W26552  17.938  10.900  15.135 -0.3998  0.2954 -0.2096
11422W        W26553  14.697   3.150  12.495 -0.0853  0.0175  0.0327
11423W        W26554  12.197  15.263  11.855  0.0920 -0.0572 -0.1728
11424W        W26555   5.057  16.828   2.831  0.2721 -0.1074  0.0249
11425W        W26556  17.785   0.847  14.952 -0.0439 -0.0718 -0.1742
11426W        W26557  12.754  11.681  10.418  0.1732  0.0832 -0.1802
11427W        W26558  15.120   0.170   2.184  0.0604  0.0678 -0.2943
11428W        W26559  10.121   8.744  11.724  0.1664  0.1500  0.0167
11429W        W26560  10.247  16.003   5.989 -0.0769 -0.0703  0.1662
11430W        W26561  11.548   3.865   2.784  0.1936 -0.3479  0.0051
11431W        W26562   7.728   7.162   0.583  0.2051  0.2531  0.3431
11432W        W26563   1.290   2.099   1.710 -0.3019 -0.1358  0.0148
11433W        W26564   0.140   6.230   1.591 -0.3168  0.3539  0.0183
11434W        W26565   6.361  10.635   4.046  0.1760  0.3370 -0.0390
11435W        W26566   7.206   3.692   4.312  0.0438  0.1710  0.0336
11436W        W26567   4.449   2.111  12.053 -0.2987  0.3727  0.0692
11437W        W26568  10.143  11.996   3.286 -0.1555  0.1373 -0.0862
11438W        W26569  10.732   0.835   3.423  0.0496 -0.3057 -0.2314
11439W        W26570   0.228  17.679  14.332 -0.0683 -0.1021 -0.0696
11440W        W26571   1.235  10.671  15.074 -0.1242 -0.0415 -0.3691
11441W        W26572  13.203  15.896  12.524  0.1107 -0.3662  0.1534
11442W        W26573  11.973   6.069  14.930 -0.0809 -0.2429 -0.0471
11443W        W26574   1.555   4.554  14.218  0.1885 -0.2544 -0.1308
11444W        W26575  13.565   3.970  13.875 -0.0413  0.2433  0.0059
11445W        W26576  12.887  11.000   4.468 -0.0204  0.0197  0.1736
11446W        W26577   6.326   4.933  11.093  0.0857 -0.1844 -0.0580
11447W        W26578   8.205  16.076   5.416 -0.1012 -0.1697  0.1038
11448W        W26579  14.366  17.112   2.742 -0.1147  0.2140  0.3416
11449W        W26580   7.573  14.001  10.795  0.3247 -0.3057  0.2680
11450W        W26581   7.472  11.436   0.360 -0.1176 -0.1281  0.2296
11451W        W26582   5.695   0.817   0.562  0.0778  0.0335 -0.2535
11452W        W26583   2.862   5.977  15.009 -0.1623  0.1149 -0.0021
11453W        W26584  16.726  13.546   2.126 -0.1191  0.2373  0.0663
11454W        W26585  17.125   4.069   0.466 -0.1300 -0.1718  0.4960
11455W        W26586   8.000   1.140   0.870 -0.0101 -0.0278 -0.2550
11456W        W26587   3.712   1.147  12.598  0.0903  0.3496 -0.1669
11457W        W26588  17.863   4.496   1.771  0.1511  0.1424 -0.2296
11458W        W26589   6.783  14.006   1.604  0.0542  0.0258  0.0830
11459W        W26590   2.331  16.386   3.297 -0.0608  0.1036  0.0177
11460W        W26591   4.336   7.915  12.951  0.0075 -0.1313 -0.0131
11461W        W26592  17.940   6.560   1.525 -0.0662 -0.2332  0.0885
11462W        W26593   8.188   7.958  10.683  0.0674  0.0072 -0.1355
11463W        W26594  13.541   6.743   1.094  0.0488  0.1114 -0.2155
11464W        W26595  12.148   6.507  11.632  0.2057 -0.1373 -0.0769
11465W        W26596   3.705  14.845   0.634 -0.2223 -0.2013 -0.0897
11466W        W26597  12.051   3.977  15.177  0.3389 -0.0560 -0.2068
11467W        W26598  12.471  16.252  15.815  0.0376 -0.2287  0.2311
11468W        W26599   4.923   2.836  15.355  0.2475  0.0234  0.0973
11469W        W26600   4.239  13.697   0.292  0.0373  0.0130  0.0640
11470W        W26601  18.037   3.207   2.361  0.2810  0.3455  0.0258
11471W        W26602  11.403  11.994   5.752 -0.0172  0.0461  0.0563
11472W        W26603  14.429   4.985  15.121 -0.1394  0.1924  0.0659
11473W        W26604   8.770   9.289  16.016  0.0333  0.4451  0.0108
11474W        W26605  13.751  12.756   3.631 -0.1375  0.0811  0.2503
11475W        W26606   6.228  10.864   0.071 -0.0328  0.1648 -0.1368
11476W        W26607  16.606  10.244   4.359  0.0062  0.1396 -0.1581
11477W        W26608   6.475  10.783  13.374 -0.0567  0.3171 -0.2250
11478W        W26609   8.720  10.860  13.497 -0.3643 -0.0823 -0.0818
11479W        W26610  11.929  10.865   2.584 -0.0426 -0.0486  0.1276
11480W        W26611  10.089   1.620  14.741 -0.2324 -0.1012  0.0320
11481W        W26612   1.989  17.018   2.383  0.0399  0.3284 -0.1019
11482W        W26613   4.183   2.445  12.936  0.1817  0.0451  0.1060
11483W        W26614  12.400  13.360   3.707 -0.0853 -0.2613 -0.0848
11484W        W26615   3.791  12.394   6.072  0.2879 -0.0940 -0.0450
11485W        W26616   3.629  12.839  14.256 -0.2327  0.2674 -0.3890
11486W        W26617   9.022  15.439   5.506  0.1236  0.0207 -0.0870
11487W        W26618   7.894  10.501   4.709 -0.0764  0.2050  0.0381
11488W        W26619   7.583   8.773  11.546  0.1339  0.0194 -0.1487
11489W        W26620   5.737   7.856  11.523  0.2529  0.2592  0.0156
11490W        W26621   2.320  17.017  15.586 -0.2400 -0.0153 -0.0132
11491W        W26622  14.676  17.394   4.666  0.2125 -0.0297 -0.1134
11492W        W26623   1.603   2.022   0.861 -0.0218 -0.0508  0.0223
11493W        W26624  14.467  13.971  12.328 -0.1557  0.1759  0.1831
11494W        W26625   7.422  10.037   4.622 -0.0784 -0.2898 -0.1349
11495W        W26626  17.512  14.102  11.608  0.0555  0.0680  0.2751
11496W        W26627   6.118  10.429  10.606  0.0857 -0.3165 -0.0668
11497W        W26628  10.070   1.023  11.271 -0.0049  0.1717 -0.2172
11498W        W26629  17.474  11.044  15.921 -0.0681 -0.0516  0.0570
11499W        W26630  15.821   0.175   0.058 -0.1611 -0.0817 -0.0069
11500W        W26631   0.226   6.743  15.682 -0.1692  0.0366 -0.2398
11501W        W26632  11.087  10.571   2.836 -0.2996  0.3360 -0.1488
11502W        W26633  14.027   7.494  11.090  0.1837 -0.0553 -0.0357
11503W        W26634   6.695   9.006   4.728 -0.1122 -0.1984  0.2354
11504W        W26635   4.284  14.179   0.130  0.0391  0.3123  0.2030
11505W        W26636   1.411  10.998   1.505  0.2271 -0.6613  0.1239
11506W        W26637   8.086   5.900   2.956 -0.1646 -0.0804  0.1084
11507W        W26638   3.720   8.274  12.423 -0.2553 -0.1549 -0.0637
11508W        W26639  11.921  10.448  12.466  0.2743  0.0151  0.2800
11509W        W26640   6.677   6.506  14.125  0.1748 -0.0990 -0.3076
11510W        W26641  11.225   9.875  13.092  0.0348 -0.0419 -0.0537
11511W        W26642   3.190   3.868  16.294 -0.1937 -0.0874  0.3026
11512W        W26643  16.662   5.733   3.748  0.1937 -0.4474 -0.1070
11513W        W26644   4.847  14.333   0.078  0.0254  0.1759 -0.0541
11514W        W26645   6.120  12.530  11.708 -0.2142 -0.0664  0.2966
11515W        W26646  17.093   6.673   0.120  0.1126  0.1659  0.2862
11516W        W26647   5.419   8.964  12.617 -0.1006  0.1672  0.0503
11517W        W26648   7.720   5.869  16.118  0.0700  0.2999  0.4679
11518W        W26649  16.979   3.702  16.002  0.1655  0.2513 -0.1589
11519W        W26650   9.029   7.670   0.893 -0.0387  0.5000  0.1806
11520W        W26651   2.965  17.022  11.635  0.0702 -0.1714  0.1861
11521W        W26652  12.705   1.923  14.333  0.1136 -0.1049  0.0341
11522W        W26653   8.653   2.999  12.658  0.2262  0.1326  0.1592
11523W        W26654   5.574   4.870   4.164 -0.1161  0.1048 -0.1185
11524W        W26655   7.902   2.413  11.437  0.4609  0.2770  0.3033
11525W        W26656   7.972   1.659  10.772  0.0952  0.1129  0.1480
11526W        W26657   7.758   2.655  12.426 -0.0003 -0.0915  0.0657
11527W        W26658   3.751   6.456   6.124 -0.4527 -0.3667  0.2056
11528W        W26659   0.776  10.557  13.772 -0.0752 -0.1238  0.0036
11529W        W26660  15.774   9.609   3.089 -0.3954 -0.4315  0.2170
11530W        W26661   1.879  16.078  14.711 -0.1933  0.0790 -0.0671
11531W        W26662   7.081   4.864  13.763  0.0185 -0.2510 -0.1190
11532W        W26663  12.759   7.024  13.409 -0.0419  0.2592  0.0310
11533W        W26664   4.292   0.202   2.758  0.2205  0.0178  0.0217
11534W        W26665  11.763   5.233   1.605 -0.2268  0.1442  0.1374
11535W        W26666  16.124  10.266  15.786 -0.1117 -0.0355  0.3109
11536W        W26667  12.406   8.104   0.745  0.0313  0.1348  0.4763
11537W        W26668  11.638   6.888   5.111 -0.1589  0.3347  0.2636
11538W        W26669   5.136   4.946   3.335  0.1890  0.2846  0.2072
11539W        W26670   1.440   3.962  16.102  0.3463 -0.1283  0.0112
11540W        W26671  17.143   4.058   0.994 -0.3431 -0.0679 -0.0085
11541W        W26672  17.141   7.247   5.052 -0.1781 -0.2343 -0.5504
11542W        W26673   2.072  17.055  15.129  0.3076 -0.1800 -0.0785
11543W        W26674  17.168   7.707   4.713  0.0274 -0.0644 -0.0118
11544W        W26675  14.051   7.104  13.702 -0.0821 -0.1753  0.0357
11545W        W26676   7.939  11.844  15.187 -0.1214 -0.1483 -0.3233
11546W        W26677   1.612  14.691  12.270 -0.2748 -0.2017 -0.1264
11547W        W26678  10.332   9.921   0.011 -0.2384 -0.0666 -0.0617
11548W        W26679  11.494   5.277   0.192  0.3220 -0.0856  0.3419
11549W        W26680  15.905   5.679   0.051  0.1073 -0.1507 -0.1793
11550W        W26681   5.565  11.798   3.346 -0.0321  0.2540  0.0893
11551W        W26682  13.861  17.853  15.095  0.0513  0.2261 -0.1194
11552W        W26683  13.269  11.276   5.127 -0.1881 -0.1261  0.0495
11553W        W26684   3.651   8.654   3.846  0.2794  0.0315 -0.3357
11554W        W26685  12.045  11.569   5.458  0.1453 -0.0361  0.0502
11555W        W26686  16.312   1.162   5.465  0.1381 -0.1484 -0.1545
11556W        W26687   8.585   7.037   1.543 -0.3536 -0.0847  0.2100
11557W        W26688  12.881   4.371   1.242  0.1840 -0.1985 -0.1365
11558W        W26689   9.099   2.520  16.001  0.1072  0.0858  0.0353
11559W        W26690  16.873   8.737  16.174  0.0138  0.0005  0.0187
11560W        W26691   6.882   2.444  12.076 -0.1700 -0.2793  0.2138
11561W        W26692  13.238  14.155   0.957  0.1499 -0.1465  0.0588
11562W        W26693   7.523   0.585  11.429 -0.2283  0.2387  0.0485
11563W        W26694  14.788   0.603  16.402  0.1950 -0.0951  0.3345
11564W        W26695  11.287  15.795  15.308 -0.2355  0.1927  0.1190
11565W        W26696  10.626  11.188   2.313 -0.0774  0.1656 -0.2980
11566W        W26697   7.504  10.933   5.016  0.1005 -0.0645 -0.0559
11567W        W26698   7.859  14.994  13.980  0.2566 -0.0101 -0.4097
11568W        W26699  14.858   6.941   0.979  0.1654 -0.2065  0.0915
11569W        W26700  10.905  17.782   2.785  0.0073 -0.0521  0.3168
11570W        W26701   5.752   8.070   5.288  0.1306 -0.1373 -0.0830
11571W        W26702  10.577  14.454  13.782 -0.2110 -0.0934  0.0177
11572W        W26703   5.694  12.173   3.686  0.2132  0.1626 -0.2341
11573W        W26704   0.004   1.722   5.531 -0.0467  0.0453  0.2544
11574W        W26705  10.721  13.043   3.993 -0.0311 -0.0741  0.0363
11575W        W26706  10.887  10.771   2.490  0.0145 -0.1032  0.2024
11576W        W26707  13.158   0.127  15.284  0.0637  0.2905 -0.2319
11577W        W26708   5.614  13.735  13.766  0.2644 -0.0003 -0.4661
11578W        W26709   3.577   2.326   0.779 -0.1740  0.2955  0.1215
11579W        W26710   4.407   9.448   1.041 -0.1557 -0.2938 -0.2595
11580W        W26711  16.638   2.649   3.123  0.3331  0.1202  0.2482
11581W        W26712  10.227   9.723   5.222 -0.0026  0.1114  0.3157
11582W        W26713  14.604   4.488  12.812  0.0783 -0.0388  0.0788
11583W        W26714  11.055   8.323   4.158 -0.0159 -0.0862 -0.0849
11584W        W26715   2.282  12.232   3.634 -0.2732  0.1615  0.0856
11585W        W26716   4.770   8.342   2.498 -0.0327  0.0720  0.1338
11586W        W26717  10.267  11.079  12.428 -0.1135 -0.0906 -0.3753
11587W        W26718   4.794  17.255   0.492 -0.0947 -0.1113  0.3377
11588W        W26719   1.910  12.122   5.032  0.1136 -0.0139 -0.1700
11589W        W26720  15.536  11.252  11.214 -0.2338  0.0992  0.0268
11590W        W26721  10.037   7.785  12.567 -0.1464  0.0160  0.0607
11591W        W26722  17.265  15.697  12.024 -0.0557 -0.0833 -0.1023
11592W        W26723  12.778  15.103  13.614  0.1850 -0.1279 -0.1174
11593W        W26724  14.500  17.194  15.917  0.0773 -0.1144 -0.2688
11594W        W26725   9.326  11.786  12.480 -0.2739  0.2326  0.2134
11595W        W26726   6.937   8.332  15.918 -0.1893  0.2079 -0.2179
11596W        W26727  14.766  17.538  12.321  0.1028  0.0100 -0.1147
11597W        W26728   4.602   1.462  12.836  0.2900 -0.0018 -0.1676
11598W        W26729   9.125  14.683  13.371  0.0279  0.0742  0.2675
11599W        W26730   7.416   6.429  15.267 -0.1007  0.1784  0.2720
11600W        W26731  17.375   8.753   3.123 -0.0102  0.0615  0.0832
11601W        W26732   6.081  16.118   3.484 -0.0833 -0.0934 -0.2367
11602W        W26733  13.474  12.476   4.453 -0.0371 -0.0266  0.0600
11603W        W26734  16.736  12.523   2.956  0.0696 -0.0402 -0.1551
11604W        W26735  17.962  10.411   1.193  0.0012 -0.2517  0.1047
11605W        W26736   6.619   2.211  14.206  0.4335 -0.0698 -0.3700
11606W        W26737   1.625   6.356  11.060  0.1165  0.1486  0.1515
11607W        W26738   5.083   9.356  14.956 -0.0875  0.0685  0.2677
11608W        W26739   9.427  17.573   1.485  0.3263 -0.0533  0.1989
11609W        W26740   0.484   4.688   0.137  0.2156 -0.1297  0.0542
11610W        W26741  16.666  13.331  14.428  0.3815 -0.2987 -0.0693
11611W        W26742  14.575   0.034   2.767 -0.1784 -0.1227  0.1236
11612W        W26743  17.215   4.795   5.391 -0.1390  0.2300  0.1657
11613W        W26744   3.534   1.410   1.908 -0.3030 -0.1553 -0.2152
11614W        W26745  17.313  12.634  12.113 -0.1586  0.1173  0.2775
11615W        W26746   1.613  13.753  16.205  0.0092  0.0107  0.1479
11616W        W26747   4.340  15.980   2.513 -0.0074 -0.0491  0.2404
11617W        W26748   8.113  16.757  13.887 -0.0085 -0.1764 -0.1663
11618W        W26749   4.565   8.380  11.891  0.1851 -0.1643 -0.1615
11619W        W26750  14.873   5.356  12.516 -0.0359 -0.0673 -0.0563
11620W        W26751  11.371  10.587  14.733 -0.1736  0.1660 -0.3810
11621W        W26752  15.768  11.445   4.693  0.2617 -0.2794 -0.1809
11622W        W26753   6.763  13.791   0.447  0.0741 -0.1809  0.1058
11623W        W26754   5.191   8.789   2.874 -0.2144  0.0055  0.1895
11624W        W26755   7.934   2.824   0.036  0.1610 -0.3505 -0.0602
11625W        W26756  11.704   0.656   3.362 -0.3693  0.0001 -0.0740
11626W        W26757  15.313   4.410   1.034 -0.1433  0.1746 -0.1793
11627W        W26758  15.748   7.748   4.604  0.0425  0.2377  0.2864
11628W        W26759   9.363   8.470  12.775  0.1621 -0.0061 -0.2762
11629W        W26760   3.650   5.337  11.447 -0.0364  0.0185  0.0170
11630W        W26761  14.828   8.981   3.022  0.0857  0.3879 -0.0012
11631W        W26762  11.878   6.017  15.582 -0.0393  0.0925  0.0824
11632W        W26763   4.864   0.657   1.080  0.0114 -0.0097  0.0633
11633W        W26764  18.064   6.375  12.118 -0.1994 -0.0506  0.2225
11634W        W26765  12.753  12.185   2.138 -0.2439  0.1077  0.2084
11635W        W26766   8.074  15.904   3.156 -0.0846  0.1618  0.1207
11636W        W26767   8.239  10.975   4.364 -0.1275  0.2436  0.3557
11637W        W26768   0.123  14.956   1.663 -0.1367 -0.0326  0.1030
11638W        W26769  17.518   5.709   1.624  0.1233  0.1527  0.1760
11639W        W26770   6.645   0.551   2.443  0.0619  0.1881  0.3067
11640W        W26771  11.092  12.947  13.758 -0.0576  0.1006 -0.0639
11641W        W26772   0.349   8.555   5.662  0.2881 -0.0378 -0.0450
11642W        W26773  13.010   5.487  13.520 -0.0676  0.1964  0.1130
11643W        W26774  14.201   5.474  13.083 -0.1625 -0.0686  0.1821
11644W        W26775  10.254   3.288  12.105 -0.0943 -0.0487 -0.4144
11645W        W26776  16.649   9.352   0.514 -0.3636  0.1672 -0.3294
11646W        W26777  16.070  10.282  12.823  0.0251 -0.0032 -0.0128
11647W        W26778   7.718  12.963   5.212 -0.2704  0.0466  0.0176
11648W        W26779  16.245   5.703   1.349  0.1866 -0.1914  0.1744
11649W        W26780   0.979  16.848   4.390 -0.1095 -0.1149 -0.2981
11650W        W26781  16.674   9.282   3.614  0.1643  0.4062  0.2688
11651W        W26782  13.733   2.573   4.342  0.0373  0.0378  0.4218
11652W        W26783  12.233  13.153   2.008  0.0465  0.1030  0.1515
11653W        W26784   4.927  14.993  11.888  0.1378 -0.1143  0.2406
11654W        W26785  14.823   4.046   2.860 -0.1672  0.0450  0.4345
11655W        W26786  14.489   2.841   2.902 -0.0850 -0.0057  0.2837
11656W        W26787  13.417   1.520  12.216 -0.2621 -0.0047  0.1531
11657W        W26788   7.520  15.868  12.315 -0.0434 -0.1022  0.0612
11658W        W26789  16.981  12.572  13.389  0.1800  0.0561  0.3267
11659W        W26790   4.924   4.661  13.368 -0.0866  0.3747 -0.2572
11660W        W26791   2.445   1.409  14.285 -0.1489 -0.0426 -0.1024
11661W        W26792  16.674   9.218  12.056 -0.2064  0.1199 -0.2274
11662W        W26793   3.192   1.961  13.888  0.4488  0.0674  0.2286
11663W        W26794  12.440  13.345  11.786  0.0108  0.1440  0.1791
11664W        W26795  14.524   7.054   4.114  0.0707 -0.1781 -0.0791
11665W        W26796  11.383  11.945  15.531 -0.0028 -0.1388 -0.3132
11666W        W26797  11.055  16.923   1.245 -0.2896  0.0086  0.1064
11667W        W26798   6.110  11.708  12.029 -0.0362  0.0531  0.1718
11668W        W26799  11.399   9.396   4.766  0.0445 -0.2914 -0.2779
11669W        W26800  11.157  12.323   2.655 -0.1887 -0.2838  0.0197
11670W        W26801   9.524  10.824   5.201 -0.0480 -0.1332  0.2369
11671W        W26802  16.335  13.925   4.398 -0.0233  0.0179 -0.3225
11672W        W26803  15.405  12.811   1.894 -0.0287  0.0184 -0.0748
11673W        W26804   7.371   5.573  12.733  0.0331  0.0808  0.1456
11674W        W26805   7.057   5.367   1.641 -0.1566  0.1218  0.1925
11675W        W26806  10.979   3.414   1.268  0.0229  0.2909  0.2522
11676W        W26807   0.614  15.811   4.689  0.0116  0.0629 -0.0034
11677W        W26808   0.533  15.022   4.178 -0.1946 -0.0130 -0.1114
11678W        W26809   2.115  15.632  13.906 -0.0825  0.0661 -0.2600
11679W        W26810  15.078   9.676  16.207  0.0140  0.0879 -0.2358
11680W        W26811   5.894   0.873  12.463 -0.1476 -0.1986  0.2254
11681W        W26812   7.139   8.686  12.512 -0.2778 -0.1895 -0.1464
11682W        W26813   5.944   0.858   1.570 -0.2414 -0.0107  0.0181
11683W        W26814  11.493  14.484  11.747  0.3270  0.1029  0.1235
11684W        W26815  13.237   7.334  15.787 -0.2588 -0.2210 -0.0357
11685W        W26816   7.063   1.697  13.649 -0.0071 -0.0924 -0.1065
11686W        W26817   8.873   2.924   1.778  0.1251 -0.0243  0.1656
11687W        W26818  15.018   6.383  16.389  0.2892  0.1644 -0.3658
11688W        W26819  15.197  10.348   4.768 -0.0364 -0.2598  0.0990
11689W        W26820   5.657   4.897  15.148 -0.1348  0.0697  0.3131
11690W        W26821   8.358  10.345   4.239  0.2294 -0.1422 -0.2605
11691W        W26822  15.034   4.670   2.434 -0.1209  0.0860  0.1501
11692W        W26823  11.744  17.380  13.183  0.2435 -0.0413  0.0882
11693W        W26824   9.738  12.602  11.834 -0.3896 -0.1400 -0.1016
11694W        W26825   5.422  12.623  12.829  0.0017 -0.1577 -0.0262
11695W        W26826  11.355  14.883  15.049  0.1890  0.1345 -0.0394
11696W        W26827  10.826   0.522   1.730 -0.3130 -0.2506 -0.0847
11697W        W26828  16.960  11.623   4.724  0.1950  0.1005 -0.1286
11698W        W26829  12.115  12.462  15.646 -0.0242 -0.3815 -0.2194
11699W        W26830  12.733   5.993  15.162 -0.2629  0.0141  0.1666
11700W        W26831   6.114   0.452   4.625  0.0133 -0.2448 -0.0754
11701W        W26832  13.248   7.258  13.088  0.2719 -0.3502  0.0032
11702W        W26833   4.284  15.219  15.197  0.0095  0.0703  0.2643
11703W        W26834   6.224   2.251  12.740 -0.0053 -0.3171  0.1490
11704W        W26835  17.548   5.597   1.068  0.0141 -0.0053  0.0637
11705W        W26836   8.488  11.282  13.218  0.1623 -0.0893  0.2245
11706W        W26837   1.543   1.432   0.501  0.0361 -0.0429  0.1956
11707W        W26838   6.717   1.468   2.521 -0.1285 -0.0260 -0.0376
11708W        W26839   5.914  17.053   3.139  0.0063  0.0374  0.1503
11709W        W26840   2.348   6.079   5.603 -0.0936 -0.0569 -0.0919
11710W        W26841   1.793   0.070  14.112  0.2943  0.0715  0.1835
11711W        W26842   2.065   1.717   3.795  0.1124 -0.0641  0.0110
11712W        W26843  12.281  12.409   4.796 -0.0073 -0.0578 -0.0363
11713W        W26844   7.031  16.999  12.700  0.1933 -0.2639 -0.4799
11714W        W26845   2.462   9.466   2.709  0.2022 -0.0706  0.2070
11715W        W26846   6.473  12.823   2.320  0.0826 -0.1003 -0.1781
11716W        W26847  15.782  15.260  13.807  0.0074 -0.0812  0.0593
11717W        W26848   7.052   5.331   0.122 -0.1387  0.0673  0.0001
11718W        W26849   1.446   8.571   2.854  0.1938 -0.0991  0.0632
11719W        W26850  10.728   5.488   1.389  0.2246 -0.1533  0.0402
11720W        W26851  15.005  10.484  13.574  0.2056  0.0524  0.0509
11721W        W26852   4.372  11.333  13.350  0.2450 -0.1461  0.2504
11722W        W26853   1.493   8.844   5.257 -0.1874 -0.0632 -0.0924
11723W        W26854   3.116  11.336   3.039 -0.0807 -0.1188 -0.1073
11724W        W26855   0.239   4.536   2.524  0.3379  0.1950 -0.0417
11725W        W26856  17.898   1.411   1.971 -0.0091  0.2311 -0.2309
11726W        W26857   2.224   8.248  14.696 -0.2115  0.0415 -0.3178
11727W        W26858  17.099  12.022  14.802  0.2682 -0.0333  0.0474
11728W        W26859   6.575  14.323   1.182 -0.1169  0.0184  0.1562
11729W        W26860   6.798   5.800   1.522 -0.1813  0.1973 -0.0027
11730W        W26861   2.282  16.311  14.574  0.1247  0.0427  0.2769
11731W        W26862  17.514  10.301   2.572  0.0900 -0.0192  0.0411
11732W        W26863   8.406   4.195   0.916  0.1866  0.0962 -0.2676
11733W        W26864   2.635  12.693  11.167 -0.0753 -0.2571  0.0598
11734W        W26865   8.485  10.926  12.188 -0.1642 -0.3888  0.2385
11735W        W26866   5.797   6.395   4.847  0.2216 -0.0701 -0.2457
11736W        W26867   0.630   7.250  12.548 -0.0372 -0.1197  0.1274
11737W        W26868  16.929   1.089   3.459  0.1219 -0.1984  0.0492
11738W        W26869  17.152   7.991  11.080  0.5150  0.0915  0.0233
11739W        W26870  16.820   2.532   5.949 -0.1151  0.3073 -0.1443
11740W        W26871  16.990   7.088   6.400  0.2284  0.2133  0.0041
11741W        W26872  13.734   0.656   3.837 -0.0781 -0.0179  0.0966
11742W        W26873  10.322  12.848  13.041 -0.0564 -0.0767  0.4216
11743W        W26874   8.250  16.320  14.567  0.0863 -0.0335  0.2208
11744W        W26875   6.983  12.014  11.065  0.1180 -0.0492  0.0750
11745W        W26876  12.480  13.308   4.625 -0.0355 -0.0267 -0.5284
11746W        W26877   6.189  10.115  13.134 -0.2444  0.1080 -0.1377
11747W        W26878  14.218   2.132   5.450  0.0537 -0.1713  0.0282
11748W        W26879   0.090  16.543  14.849  0.1641  0.1328 -0.0463
11749W        W26880  16.676   4.217   4.245 -0.4670  0.0668 -0.3011
11750W        W26881  14.055  11.897   1.074  0.2345 -0.1031 -0.3330
11751W        W26882  12.799   5.870   5.864  0.3775  0.0793  0.0944
11752W        W26883  16.360  13.526   2.551  0.2295  0.5465  0.0568
11753W        W26884  11.961  17.270  11.161  0.0157 -0.1765  0.1535
11754W        W26885   4.246  18.000   2.341 -0.0602  0.1108  0.0847
11755W        W26886  12.146   0.897   0.012 -0.1629 -0.2552 -0.3350
11756W        W26887  15.049   0.588   4.841 -0.3909 -0.1378 -0.0072
11757W        W26888   4.463  16.052  14.976  0.0985  0.0733  0.1757
11758W        W26889  14.970   8.822   5.724 -0.0268 -0.0317 -0.1226
11759W        W26890  11.375   9.706  10.843  0.0365  0.1050  0.0619
11760W        W26891   6.603   4.182  14.312 -0.0639 -0.0876 -0.0670
11761W        W26892  14.022   1.956  15.505  0.1342  0.2271 -0.0659
11762W        W26893  11.519  18.003  14.613  0.3286 -0.1904  0.2706
11763W        W26894  17.313   8.261  15.342 -0.1571  0.0983  0.1491
11764W        W26895  14.786   7.184   6.144 -0.0433 -0.0840  0.0897
11765W        W26896  14.247  12.798  15.884 -0.0505 -0.0049 -0.1821
11766W        W26897   2.334  15.291   2.152 -0.1303  0.0402  0.2649
11767W        W26898  11.617   7.375  11.727 -0.0187 -0.2091  0.0542
11768W        W26899  17.452  16.977  11.823  0.5083  0.0313 -0.0158
11769W        W26900  17.165  10.143   1.519  0.1960 -0.0881  0.0379
11770W        W26901  14.145   3.590   3.321 -0.1272  0.0265 -0.1025
11771W        W26902  15.457   9.860   2.288 -0.1996 -0.0851  0.1439
11772W        W26903   1.900   5.025  11.097 -0.0576 -0.0504 -0.2773
11773W        W26904   2.949  12.138   2.076 -0.0069  0.0631  0.2076
11774W        W26905  14.309   0.867   4.163 -0.3914 -0.1442 -0.0587
11775W        W26906  10.171   1.939   4.683  0.0306 -0.0369 -0.2319
11776W        W26907   0.536  12.379   1.026  0.2042  0.1200  0.2394
11777W        W26908   2.931   7.617  15.116 -0.1844  0.2629  0.0231
11778W        W26909  11.108  18.001   4.213 -0.1590 -0.0141 -0.1769
11779W        W26910  13.814   7.883  12.009 -0.2029 -0.0934 -0.0259
11780W        W26911   6.996  10.251  11.846  0.0137 -0.2373  0.1669
11781W        W26912  11.196   3.031  14.361  0.0951 -0.1941  0.1936
11782W        W26913   4.942  10.029  15.873 -0.0454 -0.0561  0.1358
11783W        W26914  16.187   7.302   5.292  0.0013  0.0151  0.0272
11784W        W26915   3.863   4.188   2.026  0.1943 -0.0897  0.0863
11785W        W26916   9.234   5.173   2.558 -0.0709 -0.0844  0.2122
11786W        W26917   3.353   1.569   4.192 -0.0531 -0.2165  0.1058
11787W        W26918  13.776   5.165  15.698 -0.1528  0.1344 -0.1305
11788W        W26919  13.904   1.232  14.266 -0.0691  0.1379 -0.0782
11789W        W26920  12.699  16.067   2.480  0.0415 -0.3962  0.1952
11790W        W26921  14.200   6.211   4.526 -0.0587 -0.1558 -0.2900
11791W        W26922   9.290   4.181  15.363  0.0288 -0.0741  0.1789
11792W        W26923  13.399  12.949  10.424  0.1921 -0.1578  0.0031
11793W        W26924   8.377  17.451  13.533 -0.2212  0.0194 -0.0041
11794W        W26925   7.069   7.018  15.839  0.0706  0.0664 -0.0198
11795W        W26926   2.341   4.163   0.283 -0.2578  0.2420  0.3540
11796W        W26927   7.504   5.396   0.536 -0.1388 -0.1287 -0.4639
11797W        W26928   3.554   4.024  12.382 -0.2071  0.2365  0.0203
11798W        W26929   1.411   3.574  13.360 -0.0580 -0.1082 -0.0334
11799W        W26930  11.954  17.788  11.110 -0.1480 -0.0026 -0.0618
11800W        W26931   5.325  14.241   4.942  0.4901  0.0694  0.0936
11801W        W26932  13.469   7.205   0.985  0.2727 -0.2288 -0.1728
11802W        W26933   0.049  13.894  14.433  0.1515  0.0809 -0.0412
11803W        W26934  13.940   0.425  11.883 -0.2514  0.0505 -0.0834
11804W        W26935   6.000   1.997  15.830 -0.0648 -0.1599  0.1083
11805W        W26936   2.084  12.690  11.160  0.2264  0.0162 -0.2863
11806W        W26937  17.825   3.045   1.524 -0.0385 -0.3061 -0.1312
11807W        W26938  12.825   4.125  14.539 -0.1082 -0.0850  0.2225
11808W        W26939   8.531  10.145   2.873  0.0054  0.2091 -0.0772
11809W        W26940  10.726   2.255   0.276  0.3311 -0.0328 -0.1876
11810W        W26941  16.075  11.105  15.847  0.1710  0.1660  0.0379
11811W        W26942   8.450   7.159   3.753 -0.1886  0.2124  0.1017
11812W        W26943  14.679   6.621  13.513  0.1105  0.1170  0.0743
11813W        W26944   5.016  14.740   3.049 -0.2323  0.0331 -0.0087
11814W        W26945   5.645   9.033  11.866 -0.0883  0.0015  0.1146
11815W        W26946   6.879  16.059  15.649  0.2477  0.1840 -0.0237
11816W        W26947  15.567  12.501  12.103  0.2132  0.1896 -0.0212
11817W        W26948   0.773   7.067   3.309  0.1708 -0.0257  0.0908
11818W        W26949  11.839   0.237   5.004 -0.1016 -0.0402  0.2577
11819W        W26950  10.530  13.215  12.774  0.0959 -0.3927 -0.0226
11820W        W26951  16.999   8.988   2.699 -0.1706 -0.2119  0.0766
11821W        W26952   6.052   3.111   1.551 -0.0578 -0.0472 -0.0983
11822W        W26953  16.781  11.617  13.476 -0.1541  0.2456 -0.0681
11823W        W26954  13.658   6.033  16.038  0.0085  0.0661 -0.0444
11824W        W26955  10.487   9.582   3.696 -0.0598 -0.1444  0.0076
11825W        W26956  11.259  14.695   0.151  0.1513 -0.0968 -0.2674
11826W        W26957   2.843   9.987   5.222  0.0643 -0.4758 -0.1000
11827W        W26958   6.073  12.368  16.123 -0.2476  0.3750  0.0020
11828W        W26959   9.388  15.142   2.437  0.0122 -0.2583 -0.2591
11829W        W26960   1.548  10.066  15.874  0.1660  0.0315  0.0809
11830W        W26961   4.499  12.769  11.434  0.0426  0.1357  0.1757
11831W        W26962   5.868  15.995   0.018  0.3347 -0.3653 -0.2185
11832W        W26963  16.830  12.537   1.335  0.1343  0.1432  0.1033
11833W        W26964  15.264  10.281   1.203 -0.0671 -0.0984 -0.1238
11834W        W26965   8.780   2.295  14.634 -0.5454 -0.0120 -0.2399
11835W        W26966  16.998   9.278  15.510  0.0794 -0.1482 -0.0751
11836W        W26967  13.537  15.552  15.304 -0.2919 -0.1576  0.0979
11837W        W26968  11.307  10.040  14.057 -0.1080  0.1332  0.1497
11838W        W26969   9.796   2.007  12.769 -0.1597 -0.5428 -0.1706
11839W        W26970   5.974   1.950   1.888  0.0604 -0.0554  0.4319
11840W        W26971  10.564   5.486   5.760  0.2413 -0.0384 -0.1675
11841W        W26972  17.736   1.496  12.934  0.2750  0.0558 -0.0600
11842W        W26973  17.405  10.693  12.046 -0.0507 -0.1778 -0.1522
11843W        W26974   8.950   8.675   3.596  0.0800  0.0243  0.3649
11844W        W26975  12.235   8.016  15.757 -0.0079  0.1289 -0.0918
11845W        W26976  10.408  16.333  12.592  0.3175 -0.0477 -0.1376
11846W        W26977  14.003   7.854   2.719  0.2119 -0.0764  0.0406
11847W        W26978   5.281   6.437   3.440 -0.1865 -0.4805  0.1111
11848W        W26979   5.928  15.935   5.226  0.0167 -0.0757 -0.1575
11849W        W26980   4.788  13.848  11.883  0.0767 -0.1995 -0.0323
11850W        W26981   7.612   1.056  13.973  0.0107  0.0698  0.1964
11851W        W26982   2.338  12.225   1.233  0.0407 -0.0956  0.1766
11852W        W26983   9.706   7.297  13.455  0.4394 -0.0578  0.0203
11853W        W26984   9.816  12.758   5.459 -0.2168  0.3065 -0.0427
11854W        W26985  17.280   0.117  13.749  0.0524  0.3349 -0.1551
11855W        W26986   7.019   7.267  14.335  0.3004 -0.1974  0.1497
11856W        W26987   3.868   3.740  11.937 -0.0706 -0.0245 -0.2042
11857W        W26988  13.252   1.723   3.479  0.0546  0.2339 -0.1792
11858W        W26989  12.460  12.652   3.748  0.3472 -0.3171 -0.2002
11859W        W26990   7.944  14.617  15.228 -0.0713 -0.0533  0.0103
11860W        W26991   3.254   7.177   4.063 -0.4440  0.0364  0.0497
11861W        W26992  15.868   8.277   2.311 -0.1526 -0.2006 -0.0963
11862W        W26993   0.740  11.118  13.094 -0.1489  0.1548 -0.1822
11863W        W26994  13.046   3.159  13.725 -0.1116  0.0040 -0.1589
11864W        W26995   4.513  14.712  11.987  0.0422  0.0859 -0.0133
11865W        W26996   6.555  17.197   4.677  0.1505 -0.0500 -0.3486
11866W        W26997  10.566   6.001  11.023  0.0943 -0.0060 -0.0527
11867W        W26998   0.348  17.150   0.811  0.0535 -0.0631  0.0312
11868W        W26999  11.229  15.421  14.919 -0.0054  0.0764  0.3782
11869W        W27000  11.210   6.452   0.810  0.5137 -0.1797  0.0010
11870W        W27001   0.042   6.088   2.772 -0.0748 -0.2255 -0.0214
11871W        W27002  14.246   2.743  13.571 -0.0954  0.1150  0.1251
11872W        W27003   7.023  17.939  14.918  0.0491  0.0351 -0.4244
11873W        W27004   3.085   3.692  11.737  0.0828 -0.2638 -0.2509
11874W        W27005   2.557   7.810   3.785 -0.3139  0.4396  0.0387
11875W        W27006  14.643   3.475  14.142 -0.0393 -0.2935 -0.0560
11876W        W27007   8.113  14.845  11.860 -0.0368 -0.0513  0.1289
11877W        W27008   4.714  15.966  12.215  0.0870  0.1311 -0.3562
11878W        W27009   2.167   8.853   9.992  0.0165 -0.1021 -0.0674
11879W        W27010   8.987   3.759   5.578 -0.1042 -0.1182 -0.0174
11880W        W27011   5.710   7.338  10.877 -0.1921  0.0304 -0.1275
11881W        W27012  17.668   5.815  13.860  0.0364 -0.2070  0.4176
11882W        W27013   2.553   6.659  15.455  0.1392  0.2852  0.0940
11883W        W27014  10.672   7.031   2.714  0.0630  0.1595  0.3847
11884W        W27015   1.011   7.795  15.077  0.1027 -0.0821 -0.1392
11885W        W27016   3.958  11.426   0.166  0.0204  0.0367  0.0105
11886W        W27017  17.196   7.751  15.576  0.0190 -0.4848  0.1326
11887W        W27018  14.687   2.677   3.331 -0.0379 -0.1170  0.0978
11888W        W27019  17.102   8.368   3.032 -0.0373  0.4110 -0.0713
11889W        W27020   8.526   9.324   2.489  0.1340  0.0099 -0.1715
11890W        W27021  14.010  11.734  15.801 -0.1744 -0.0231 -0.1278
11891W        W27022   0.545   5.671  13.520  0.0374 -0.1019 -0.1273
11892W        W27023   2.038   5.529  16.221 -0.0369  0.0783 -0.2547
11893W        W27024   5.005   0.129  13.460 -0.0412 -0.3064 -0.4804
11894W        W27025   1.854   1.689  12.027 -0.2612  0.1261 -0.5262
11895W        W27026   3.552   1.826   0.928  0.0495 -0.1452  0.3586
11896W        W27027  12.511   5.067   2.520 -0.0583  0.0193  0.2578
11897W        W27028  16.861   9.358   1.137  0.0165 -0.1915  0.0157
11898W        W27029   3.416  14.962   3.963 -0.0905 -0.0370 -0.2197
11899W        W27030  15.087   6.841  13.595  0.3380  0.0509 -0.1607
11900W        W27031   1.644   2.608   4.172 -0.0187 -0.3736 -0.0576
11901W        W27032   2.224  13.432  11.311  0.2935 -0.1540 -0.0805
11902W        W27033   8.056   6.413   5.317  0.0888 -0.1895 -0.1107
11903W        W27034   1.868  10.045  14.416 -0.0574  0.0213  0.0913
11904W        W27035   3.885   3.356   3.154 -0.3994  0.0869  0.1846
11905W        W27036   1.327   2.887  15.690  0.1674 -0.0161  0.1076
11906W        W27037  13.510  13.920   3.806 -0.0345 -0.4031  0.0539
11907W        W27038  11.635   4.373  15.153 -0.2558 -0.0677 -0.0354
11908W        W27039   5.369   2.118   1.849  0.0681  0.0613 -0.0387
11909W        W27040   8.604  13.620  15.066 -0.0348 -0.1440  0.2996
11910W        W27041   9.697  17.109   5.725  0.1807 -0.0203 -0.4200
11911W        W27042   8.528   5.212   4.926  0.2230  0.1272 -0.0795
11912W        W27043   0.066  10.091  15.227  0.0547  0.1140  0.1942
11913W        W27044  15.408  15.168  11.904  0.1782 -0.1095 -0.0082
11914W        W27045   4.282   5.387   5.991 -0.0752  0.1975  0.2006
11915W        W27046  17.363   7.592  11.564  0.1488  0.1234  0.1165
11916W        W27047  16.172   2.464  15.145  0.0429  0.0790 -0.0694
11917W        W27048   3.153   1.431   0.474  0.0557 -0.2209  0.0895
11918W        W27049   6.092   7.200  12.795  0.1341  0.1331  0.0233
11919W        W27050   2.656   8.669  11.365 -0.1100 -0.0411 -0.1126
11920W        W27051   3.949   5.332   5.142 -0.1931 -0.2538  0.1807
11921W        W27052   8.857   0.532  10.721 -0.0159 -0.2980 -0.0403
11922W        W27053  15.995   4.274   4.910 -0.2143  0.0277  0.1447
11923W        W27054   3.237   1.344  15.280 -0.1399  0.0327 -0.0242
11924W        W27055   8.989   8.280   4.987  0.0693  0.2648 -0.2083
11925W        W27056  16.001  17.267   3.445 -0.0034  0.1158  0.1227
11926W        W27057  12.175  10.281  16.045  0.0706  0.0500 -0.0566
11927W        W27058  15.878  10.859  13.888 -0.0370  0.1288  0.0912
11928W        W27059  13.953   1.485  11.041 -0.0454  0.1215  0.0398
11929W        W27060   0.433  11.136  15.062  0.1841  0.0633  0.2625
11930W        W27061  13.116  12.296   5.810  0.1389 -0.0447 -0.2974
11931W        W27062  13.353  16.877   1.349 -0.1408  0.1272 -0.1111
11932W        W27063   1.797  17.370  11.265  0.1730  0.0201 -0.0388
11933W        W27064  12.414   1.817   3.491  0.1837  0.1115  0.1858
11934W        W27065  17.382   1.983  13.527 -0.1547  0.0682 -0.2846
11935W        W27066   3.846  11.939  13.859  0.2108 -0.1675  0.1437
11936W        W27067   2.380   3.036   2.534 -0.1008 -0.1961 -0.0045
11937W        W27068  11.726   1.017  12.742  0.0505  0.1279 -0.0259
11938W        W27069   7.709  10.650  16.390  0.2462  0.2490 -0.2475
11939W        W27070  12.766   8.399   1.760 -0.1612  0.0355  0.2492
11940W        W27071  12.961  16.113   2.001  0.1902  0.0215  0.1788
11941W        W27072  15.246  16.782   0.629  0.0283  0.1202  0.3050
11942W        W27073   8.947   3.235  16.070 -0.0287  0.1789 -0.4923
11943W        W27074   4.093   4.147  16.092 -0.0264  0.1190 -0.0016
11944W        W27075  13.904   0.361  15.973  0.0550 -0.2708  0.0443
11945W        W27076  17.401  15.019  16.101 -0.2753  0.0377 -0.5615
11946W        W27077  14.139   7.564  12.819 -0.0531  0.0950 -0.1059
11947W        W27078  13.848   1.103  15.597 -0.1994  0.0206 -0.2572
11948W        W27079   9.357   4.100  13.522 -0.0655 -0.0968  0.2159
11949W        W27080  10.675  10.836   2.039 -0.0961  0.1423  0.0438
11950W        W27081   7.043  15.468  15.594  0.1641  0.0378  0.0279
11951W        W27082   4.508  16.434   1.153 -0.1473 -0.1504 -0.1323
11952W        W27083   1.753  14.701  14.078  0.0616 -0.0990  0.4322
11953W        W27084   0.327   1.077   3.824  0.1154 -0.0986  0.0032
11954W        W27085  16.257   5.254  13.746  0.1963 -0.1346 -0.4905
11955W        W27086  16.318  11.647  11.986 -0.2082  0.3629  0.0647
11956W        W27087   1.470  15.840   5.610 -0.1395  0.5181 -0.0717
11957W        W27088   8.629   5.425  11.036 -0.2449  0.0231 -0.0442
11958W        W27089   2.492  17.498   0.221 -0.1173 -0.4563  0.2540
11959W        W27090  10.811  16.723  15.103 -0.0441  0.0301  0.1310
11960W        W27091   0.969  15.245   3.946 -0.1308 -0.1225 -0.0202
11961W        W27092   5.090  16.779  13.649 -0.3767 -0.1575 -0.0226
11962W        W27093  15.456   0.549   1.334 -0.0344  0.0850 -0.3420
11963W        W27094   7.186  10.697   2.851  0.0608 -0.1232 -0.0363
11964W        W27095  13.857  15.882  11.206  0.3375  0.4264 -0.3441
11965W        W27096  16.932   3.870  14.645  0.0923 -0.1079  0.2679
11966W        W27097   3.100  15.216   3.223  0.0023  0.2226 -0.0114
11967W        W27098  10.490  15.001  13.192  0.0193 -0.2860  0.1653
11968W        W27099  14.697  13.838  15.020  0.0013 -0.0505 -0.2652
11969W        W27100  10.539  17.839   0.437  0.2730  0.0365  0.0495
11970W        W27101   9.237   1.156  15.442 -0.1011  0.0224 -0.0220
11971W        W27102   3.875  13.573  13.739 -0.3905  0.0146  0.0922
11972W        W27103   8.831   6.692  12.241  0.3088  0.1595 -0.0536
11973W        W27104   2.241   3.406   3.111 -0.1257 -0.0925  0.1415
11974W        W27105   2.177   4.298   4.740 -0.0989  0.2779  0.3108
11975W        W27106   5.815   0.312  11.580 -0.1119  0.1938 -0.0025
11976W        W27107  11.358   8.826   0.092 -0.0647 -0.0324 -0.2346
11977W        W27108  10.106  10.323   3.136 -0.1174 -0.0094  0.3293
11978W        W27109  17.315   4.871   0.294 -0.0005  0.2654 -0.0080
11979W        W27110   6.939   4.129   0.075 -0.2277  0.1552 -0.0358
11980W        W27111  14.067  15.726  13.753  0.0567  0.1967 -0.0233
11981W        W27112   4.972  14.313  15.621  0.0817 -0.1081 -0.0512
11982W        W27113  14.928  14.839  15.352 -0.0862 -0.1101 -0.1986
11983W        W27114  10.644  15.894   2.638  0.1852  0.0309  0.5039
11984W        W27115   4.791   7.305  13.350  0.0367 -0.2377  0.1388
11985W        W27116  14.878   8.139   1.404  0.1248 -0.0259  0.1602
11986W        W27117  16.432  12.659   0.934 -0.0157  0.1856 -0.1438
11987W        W27118   2.660  11.366  14.455  0.1585  0.0362 -0.1672
11988W        W27119  16.929   0.572   2.059 -0.0159  0.0363 -0.2200
11989W        W27120  17.702   2.064  15.554 -0.0826  0.3360 -0.1493
11990W        W27121  15.747   4.751  15.843 -0.0279 -0.3420 -0.1385
11991W        W27122  16.101  12.650  13.355  0.1264 -0.0827 -0.1390
11992W        W27123  12.340   3.154  13.872  0.3781  0.3380 -0.6509
11993W        W27124  17.438   1.143   2.454 -0.0930  0.1695 -0.1388
11994W        W27125  17.606   3.451  12.948 -0.0697 -0.0511  0.3336
11995W        W27126   1.768   0.431   5.028 -0.1345 -0.1511  0.0397
11996W        W27127   8.218   9.281  13.036  0.1076 -0.0202 -0.0443
11997W        W27128   7.323   2.977  14.517 -0.0643  0.0562 -0.1257
11998W        W27129  13.738  10.369  13.757  0.1382 -0.0050 -0.0276
11999W        W27130  11.648  12.199   4.067 -0.0389  0.5554  0.4160
12000W        W27131   4.835   9.269   5.157  0.3000 -0.1141  0.2112
12001W        W27132  17.564  15.001  14.584 -0.2491 -0.0882  0.0985
12002W        W27133  13.852  10.892  13.076  0.0000 -0.1894 -0.0109
12003W        W27134  15.417  14.307  10.988  0.1529 -0.1158 -0.4223
12004W        W27135  14.186   3.848  13.444  0.2081 -0.2183 -0.0813
12005W        W27136   6.245   5.062  10.416  0.1248 -0.1885  0.0686
12006W        W27137   5.872  12.701  11.164  0.0455 -0.1080  0.0679
12007W        W27138   3.450   3.435  14.456 -0.0930 -0.2105 -0.1845
12008W        W27139   5.803  17.604  14.431 -0.0911 -0.1808 -0.1333
12009W        W27140   9.958  17.018  12.024  0.0902 -0.0558 -0.0332
12010W        W27141  11.874   8.589   1.412 -0.0724 -0.1754 -0.0008
12011W        W27142   9.653   2.286   2.617  0.3802 -0.0425 -0.0690
12012W        W27143   9.808  11.810   0.224  0.1524 -0.1915 -0.0177
12013W        W27144  12.281   4.371   5.136  0.1944 -0.1412  0.3372
12014W        W27145   4.812   4.646   0.883  0.0982  0.0974 -0.1288
12015W        W27146   8.770  14.145  11.270  0.1425  0.0209  0.1328
12016W        W27147  12.165   8.077   4.338 -0.0750  0.3861 -0.1225
12017W        W27148   5.770  11.719   0.029  0.2851  0.1595  0.0035
12018W        W27149  11.872   8.849  13.739 -0.1434  0.0597 -0.0213
12019W        W27150   4.469   2.055   1.107 -0.0926  0.2196 -0.3609
12020W        W27151   4.829  15.736  13.609  0.3762  0.0366  0.0357
12021W        W27152  16.423  17.866  14.131 -0.0152 -0.0730 -0.1824
12022W        W27153  14.966  17.167  13.280 -0.0384 -0.0432  0.2510
12023W        W27154  17.746   3.021   0.608  0.0330  0.0192  0.3237
12024W        W27155   6.147   7.957  13.111 -0.0331  0.0971  0.0941
12025W        W27156   7.968  15.391  13.712  0.1157 -0.1287  0.2831
12026W        W27157  13.436   3.613   4.067 -0.0407 -0.0110  0.0258
12027W        W27158  17.606   9.026   0.986 -0.1980 -0.1068 -0.1804
12028W        W27159  11.938   8.125   1.187 -0.1411  0.0239 -0.0582
12029W        W27160   5.923   9.948   3.287  0.1130  0.1802  0.1146
12030W        W27161  10.474   5.398   3.321 -0.0421  0.2401 -0.2066
12031W        W27162  10.626  15.617  11.311 -0.2452  0.1109 -0.1271
12032W        W27163   9.372  12.976   5.565  0.0171 -0.3601  0.3149
12033W        W27164   0.732  13.140  16.166 -0.2555  0.0097 -0.0044
12034W        W27165   6.824   1.611   1.041 -0.5427 -0.2571  0.2251
12035W        W27166   1.348   9.708   1.961 -0.2708  0.1740  0.0510
12036W        W27167   0.225  17.943   4.508 -0.2583  0.0436 -0.0263
12037W        W27168   4.819   1.382  13.271 -0.1959 -0.3971 -0.2040
12038W        W27169  16.576   2.987  13.731 -0.1787  0.4009  0.1158
12039W        W27170  15.903   9.738  11.801  0.1959  0.1357  0.0022
12040W        W27171  15.180  15.095   3.363  0.0410 -0.0197 -0.0357
12041W        W27172   3.663  15.676   2.168  0.1788  0.2297 -0.2057
12042W        W27173   5.684   0.155  12.065  0.1862 -0.0545  0.2154
12043W        W27174   4.964  17.931  15.666  0.0118 -0.3877 -0.0990
12044W        W27175   2.684   2.175   3.821 -0.0771  0.0034 -0.0424
12045W        W27176   7.341  15.879  15.589 -0.2236 -0.0198 -0.0798
12046W        W27177  11.129   5.339   4.094  0.0916  0.0197 -0.2484
12047W        W27178   9.610   5.902  12.794 -0.3179  0.0992  0.2202
12048W        W27179   1.378   9.214  16.251  0.0319  0.0096 -0.2616
12049W        W27180  12.320  13.748   4.383  0.2378 -0.0793 -0.0232
12050W        W27181   0.960   3.023   3.422  0.0555 -0.0301  0.2366
12051W        W27182  15.920  14.250  14.035  0.0953 -0.1342 -0.3287
12052W        W27183   5.228  11.171   1.536  0.2623  0.1547  0.2069
12053W        W27184  12.922  13.430  11.940 -0.0806  0.2941 -0.2120
12054W        W27185  13.940   3.785   5.807 -0.0269  0.1007 -0.1419
12055W        W27186   8.553   3.532  16.311  0.0148 -0.2774  0.0117
12056W        W27187   5.448   5.334   5.434 -0.1126 -0.2957 -0.1979
12057W        W27188   2.519  12.677   3.661  0.0192  0.2320 -0.1289
12058W        W27189   6.775  13.201  13.434  0.1577 -0.3143 -0.0339
12059W        W27190  10.472   9.619  11.166 -0.0165  0.2374  0.0615
12060W        W27191   9.602   5.407  13.043  0.1772  0.3586 -0.1547
12061W        W27192   2.278   6.700  15.951 -0.0095 -0.0280  0.0321
12062W        W27193   6.898  17.924   2.789 -0.3202 -0.3087 -0.3203
12063W        W27194   7.163   1.302   0.747  0.0094 -0.3091  0.0017
12064W        W27195  16.823   1.554  15.924 -0.0154  0.1660 -0.0772
12065W        W27196   4.367   0.388   2.291  0.0893  0.1644 -0.0398
12066W        W27197  11.364  14.366   0.898 -0.2606 -0.1869  0.1347
12067W        W27198  17.763  14.178  15.108 -0.1042 -0.1977  0.1455
12068W        W27199   7.167  12.340  13.654 -0.0483  0.2953  0.0659
12069W        W27200  17.178  12.980   1.046  0.0328  0.0593  0.1798
12070W        W27201  12.071   3.564   0.342  0.0472  0.2909 -0.0943
12071W        W27202  14.505   1.660   4.232  0.1134  0.4926  0.3260
12072W        W27203  13.863   4.630  13.943  0.2177  0.0743 -0.2721
12073W        W27204  16.668  13.729   1.673 -0.0356 -0.2191 -0.1572
12074W        W27205   4.925  12.207   4.787  0.1894 -0.0524 -0.1258
12075W        W27206   1.032   8.226  15.963 -0.1050  0.0057 -0.0800
12076W        W27207   7.029   1.206  15.316 -0.0303 -0.0426 -0.0584
12077W        W27208  13.635  12.244  13.794  0.0814  0.0164 -0.0417
12078W        W27209   2.885  12.247   1.092  0.2520  0.0982 -0.0283
12079W        W27210   6.481   7.972   5.948 -0.0909 -0.0107 -0.1600
12080W        W27211  10.190   6.668  14.259 -0.0640 -0.2433  0.0544
12081W        W27212   6.350  14.226   3.980 -0.0285 -0.1474 -0.4331
12082W        W27213  17.210  10.181   3.271  0.0610  0.2679 -0.1366
12083W        W27214   1.429  14.084   5.763  0.2190 -0.2745  0.0299
12084W        W27215   5.356  12.504   4.642 -0.1311  0.2711  0.0297
12085W        W27216   2.763  12.926  13.725  0.2255 -0.0095 -0.1090
12086W        W27217   0.391  16.426   1.483 -0.0258 -0.0727  0.1139
12087W        W27218   0.607  10.572  14.248 -0.0860 -0.0775 -0.0632
12088W        W27219  15.972   1.326  15.707  0.0549 -0.2322  0.3420
12089W        W27220  16.818  12.315   2.112 -0.0444 -0.1147 -0.2477
12090W        W27221   0.157   7.561  13.706 -0.0879  0.0590 -0.0788
12091W        W27222   8.534  13.556   4.906 -0.0707 -0.1480 -0.1921
12092W        W27223   5.707   2.316   2.734  0.1412 -0.0181  0.5590
12093W        W27224  11.664  10.926  12.132  0.0573  0.3359 -0.0241
12094W        W27225   2.454   1.258   0.512  0.3645  0.2248  0.0864
12095W        W27226   4.830  10.879  10.861 -0.1724 -0.1304 -0.3206
12096W        W27227   2.101   4.481  15.998 -0.0955 -0.1589 -0.0193
12097W        W27228   0.199   6.534   0.677  0.3422  0.2383 -0.0576
12098W        W27229  11.068   2.138   5.827  0.0833  0.1481 -0.0158
12099W        W27230  16.891  11.727   5.482  0.1491 -0.0259 -0.0318
12100W        W27231   7.746  14.981  13.517  0.0883  0.2347 -0.2457
12101W        W27232   7.514  17.392  14.695 -0.4072 -0.1505 -0.0657
12102W        W27233   7.735  16.623   4.034 -0.0213  0.0460 -0.2676
12103W        W27234   3.478   0.697   3.398  0.0022  0.2395  0.1713
12104W        W27235   5.932  10.898  12.068  0.3385  0.1185  0.1185
12105W        W27236  11.307   3.551  10.601 -0.1651 -0.0609  0.1018
12106W        W27237   1.452   1.908  14.941  0.0762  0.3851 -0.0497
12107W        W27238  11.938  15.046   4.271 -0.2641  0.0808 -0.3089
12108W        W27239  14.741  11.158   0.133  0.2012  0.2543 -0.0295
12109W        W27240   4.966   9.299  10.432 -0.2195  0.0754  0.2384
12110W        W27241   8.996   6.642   0.480 -0.2505 -0.1420  0.2091
12111W        W27242   0.289  15.681  10.873 -0.3115 -0.1938 -0.0647
12112W        W27243   0.173  10.309  15.714  0.1544  0.1399  0.0637
12113W        W27244  14.054   0.748   1.885  0.0415 -0.0354 -0.0557
12114W        W27245  12.549   5.489   2.227  0.3603  0.2406  0.0330
12115W        W27246  15.507   1.005   2.350  0.0212  0.1016 -0.3722
12116W        W27247   2.619   4.956   2.211 -0.1516 -0.1776  0.2137
12117W        W27248  17.970   4.273  12.791 -0.1434  0.0368 -0.1181
12118W        W27249   1.597  17.323  16.190 -0.0606  0.4141 -0.0258
12119W        W27250  13.499   9.909   5.125  0.2814  0.1408 -0.0854
12120W        W27251  17.592  10.524   4.553  0.1354 -0.1428  0.1631
12121W        W27252  11.146  13.795   1.169  0.0415  0.0646  0.0456
12122W        W27253  13.988   9.075   1.580  0.2779 -0.1449 -0.1232
12123W        W27254  12.977  15.044  12.517 -0.3285  0.0865  0.0382
12124W        W27255   4.561   1.638   6.257  0.1109  0.3229  0.2214
12125W        W27256  11.747  15.237   0.660  0.1126  0.0681  0.0275
12126W        W27257   6.895   8.825   3.761 -0.0968 -0.1545  0.1933
12127W        W27258  10.014  16.725   2.868  0.0928  0.0555  0.0588
12128W        W27259   9.802  14.968   0.675 -0.1561  0.1436 -0.2356
12129W        W27260  10.129   6.144  11.149 -0.2531  0.0149  0.0541
12130W        W27261  10.450  12.224  13.770  0.3403 -0.1500  0.1729
12131W        W27262   7.009   6.989  12.289  0.0630  0.1276 -0.3319
12132W        W27263   4.110  16.723   4.998 -0.0006  0.4307  0.1331
12133W        W27264  13.191  11.543   0.041 -0.0048 -0.0634  0.1932
12134W        W27265  16.849   3.250   1.100 -0.0320  0.1217 -0.0279
12135W        W27266  13.871   6.985   5.639 -0.2287  0.0132 -0.2078
12136W        W27267  16.313   5.402  15.964  0.2467 -0.0047 -0.2970
12137W        W27268  13.202   9.465  15.164 -0.1926 -0.1982 -0.2353
12138W        W27269  13.458   8.043  10.796 -0.0160  0.1015 -0.3460
12139W        W27270  10.319  10.283   1.358 -0.3076  0.1416 -0.1516
12140W        W27271   8.806   2.228  11.177 -0.1007  0.0195  0.1644
12141W        W27272   1.815  13.529   2.669 -0.0602 -0.1139 -0.3596
12142W        W27273   6.884   9.166   3.044 -0.0955 -0.0567 -0.2960
12143W        W27274   1.254   1.356  12.289  0.0897  0.2288  0.2228
12144W        W27275   2.085   0.793   3.337 -0.3577  0.0586  0.0498
12145W        W27276   4.952   6.084   4.584 -0.2589  0.0645  0.0637
12146W        W27277  13.891   5.316   0.037  0.2863 -0.1535 -0.4198
12147W        W27278   4.017   6.785  13.854  0.2622 -0.0170 -0.2709
12148W        W27279   2.721  16.445   5.561 -0.0882 -0.0699 -0.3282
12149W        W27280  11.374   6.860  15.428 -0.0714 -0.1093  0.1348
12150W        W27281  15.288   8.415   3.816  0.2458  0.3502 -0.2778
12151W        W27282  15.167   4.138   0.590 -0.0289 -0.0689  0.0622
12152W        W27283  15.903  13.112   0.684 -0.0087  0.1581  0.0994
12153W        W27284   3.862  11.050  10.150  0.0269 -0.0291  0.1043
12154W        W27285   1.998   5.949   4.644 -0.2992  0.0107 -0.0799
12155W        W27286   2.181   2.890   2.969  0.1345  0.1792 -0.1211
12156W        W27287  13.803   0.590   5.249  0.0833 -0.1294 -0.0995
12157W        W27288  16.667   7.718  15.889  0.1918  0.3900 -0.0939
12158W        W27289  10.138   8.260  14.851 -0.0622 -0.0324  0.2111
12159W        W27290  12.689   7.045   3.956  0.2398 -0.0544  0.1271
12160W        W27291  14.482   7.127   2.811 -0.0569  0.1466 -0.1380
12161W        W27292   7.405  11.339  13.856  0.0710  0.2652  0.1551
12162W        W27293  16.771   9.041   6.335 -0.2827  0.0599  0.1637
12163W        W27294  16.573  16.321  11.820 -0.1897  0.0589 -0.0599
12164W        W27295   8.029   1.710   0.950  0.3087  0.0504 -0.1636
12165W        W27296   9.384  14.210  11.162  0.3382  0.0667 -0.0188
12166W        W27297  16.728   9.829  11.216 -0.0793  0.1387  0.2147
12167W        W27298  10.348  14.151   0.938  0.2967 -0.4091  0.0258
12168W        W27299  12.235   4.505  11.321 -0.0380  0.3922  0.0230
12169W        W27300   5.896   6.143  13.287  0.5024 -0.3991  0.1642
12170W        W27301   7.621  17.484  12.298  0.0616  0.1090  0.1733
12171W        W27302   7.265  16.344  15.589  0.0987 -0.0234 -0.0987
12172W        W27303   5.024   2.037  15.847 -0.0501  0.2393  0.1661
12173W        W27304   8.318  13.015  15.516 -0.2290  0.1660  0.0172
12174W        W27305   3.893  14.327  10.969  0.1450 -0.1448  0.1634
12175W        W27306  17.062   8.943  13.684  0.1808 -0.2755 -0.1774
12176W        W27307  11.133  17.715   4.639 -0.1985 -0.2326  0.3205
12177W        W27308  12.288   4.202   2.816  0.1151  0.0168  0.1775
12178W        W27309   6.116   2.403   4.064 -0.1440 -0.0985  0.1095
12179W        W27310  13.055  17.453  14.852  0.0497  0.2127  0.1578
12180W        W27311   0.332  15.198  12.378 -0.0965 -0.1114  0.0158
12181W        W27312  10.173  14.487  12.263  0.2596  0.0528  0.2424
12182W        W27313  14.398   4.003  13.008  0.2256  0.1785 -0.2228
12183W        W27314   4.234   0.671   2.805 -0.2276  0.0898 -0.0254
12184W        W27315  15.510  11.156  12.981  0.0643  0.3098 -0.1021
12185W        W27316  11.026  14.682   0.629 -0.1378  0.0327  0.3486
12186W        W27317   6.947  11.548  11.303 -0.1335  0.2263 -0.3135
12187W        W27318   7.104  10.023   0.965  0.0288 -0.2233 -0.0233
12188W        W27319  12.516   5.426   0.453  0.0067 -0.0019  0.3686
12189W        W27320  14.773   7.951   3.635 -0.1581  0.1194 -0.2367
12190W        W27321   7.988  11.306  15.882  0.0323  0.1342 -0.0504
12191W        W27322  10.899   7.484  12.629  0.3571  0.2063 -0.1072
12192W        W27323  16.381  11.224   0.979  0.1730  0.1423  0.4134
12193W        W27324   6.417  16.232  15.698 -0.1969  0.0323  0.0437
12194W        W27325  15.039   0.617   1.869  0.1953  0.1309 -0.1691
12195W        W27326  15.417   6.786  14.066  0.2213 -0.2702  0.1230
12196W        W27327   5.064   3.084  11.798  0.0476  0.4250 -0.1144
12197W        W27328  15.425  15.330  10.361  0.3294 -0.0117  0.3435
12198W        W27329  12.494  14.220   4.706  0.1565  0.1689  0.1010
12199W        W27330   9.823  14.322   5.520  0.0493 -0.0404  0.0463
12200W        W27331  16.846   1.095   1.777  0.1354  0.0829 -0.0967
12201W        W27332  14.540  17.684   5.050 -0.0341  0.0559 -0.1560
12202W        W27333   9.629   2.814  10.876 -0.0021 -0.2509  0.2153
12203W        W27334  12.199  17.666  13.288  0.1521 -0.0825  0.0758
12204W        W27335  14.525   6.193   5.504 -0.0466  0.1859  0.1413
12205W        W27336   2.577   9.396   3.950  0.1342 -0.1115 -0.1351
12206W        W27337   7.894   5.780   2.252  0.4756  0.0171  0.0239
12207W        W27338   0.735   0.182   3.697 -0.0644 -0.1816 -0.1770
12208W        W27339   8.220   2.843   3.061  0.0245  0.0438  0.0148
12209W        W27340  13.400   3.913  15.382  0.2584  0.1312 -0.3155
12210W        W27341   7.095  15.520  14.319 -0.1278  0.1099  0.2290
12211W        W27342  10.994  14.533  15.379 -0.0298 -0.3969  0.1172
12212W        W27343  17.914   4.606  14.149 -0.1382 -0.0123 -0.0851
12213W        W27344  15.754   3.893   3.901  0.0264  0.1734  0.0647
12214W        W27345   8.680  15.063  12.687  0.3417  0.0912  0.0307
12215W        W27346  13.236   3.358  14.211 -0.1935 -0.0610  0.1141
12216W        W27347  17.294  12.835   5.267  0.0519  0.0357 -0.1163
12217W        W27348   2.247  11.998  14.841 -0.1793 -0.3624  0.5908
12218W        W27349  10.292  15.927  10.554  0.2733  0.2043 -0.1593
12219W        W27350  16.404  11.991  13.484 -0.3100  0.2309 -0.1986
12220W        W27351  15.863   6.893   4.380  0.1739  0.0511 -0.0839
12221W        W27352   8.131   4.026  13.304 -0.2617 -0.0853  0.0098
12222W        W27353   2.125  17.589   4.064  0.0087  0.3459  0.1644
12223W        W27354   3.060  13.613   4.618  0.4928 -0.0154  0.1831
12224W        W27355   8.633  16.135  16.375 -0.1440 -0.1162 -0.0653
12225W        W27356  11.067  16.268   5.768 -0.0336 -0.2501 -0.3065
12226W        W27357  16.533   9.226   1.789  0.2088 -0.1235  0.2532
12227W        W27358   5.752  17.405  11.513  0.0783 -0.0149  0.0421
12228W        W27359  17.785  13.320   0.999 -0.4363 -0.0026  0.2109
12229W        W27360   8.149   4.272  14.986  0.0676  0.0378 -0.1382
12230W        W27361   2.905  13.629   3.931 -0.0809  0.3903  0.0237
12231W        W27362   7.296   5.847  13.110  0.0453  0.1790  0.2202
12232W        W27363  10.804  15.095   0.932 -0.0543  0.2035  0.1391
12233W        W27364  10.924   9.147   4.537  0.1466 -0.0911 -0.1393
12234W        W27365   3.616   6.717  11.454  0.2818 -0.0238 -0.2368
12235W        W27366   7.547   5.310   3.853 -0.1661  0.4523 -0.1398
12236W        W27367  13.329  16.725   4.848 -0.2131 -0.1424 -0.3025
12237W        W27368  12.017   9.883   1.847 -0.0569  0.1524  0.0488
12238W        W27369   9.792   6.887  12.359  0.4128  0.0042 -0.0125
12239W        W27370  14.355  17.287  11.333  0.4114  0.0057 -0.2806
12240W        W27371  17.850  12.282  14.837  0.0043  0.0551 -0.1336
12241W        W27372  13.480  12.525  16.324  0.2249  0.1256 -0.2921
12242W        W27373   3.246   7.761  12.944  0.1721  0.0853  0.1718
12243W        W27374   9.468   4.813   2.761  0.3037  0.0275  0.0367
12244W        W27375   5.264  10.168   0.629  0.0300 -0.2076 -0.0203
12245W        W27376   1.155   2.341  13.327  0.0568  0.1528  0.0874
12246W        W27377  16.651   9.807   5.723  0.0941  0.1025 -0.1000
12247W        W27378   1.925   8.230   3.918  0.0924  0.2110  0.2105
12248W        W27379   6.574   5.023   0.351 -0.3154  0.2552 -0.0152
12249W        W27380  14.502  11.660  12.161 -0.0609 -0.1172 -0.2818
12250W        W27381   0.055   5.760  13.608  0.1248  0.2712 -0.1932
12251W        W27382  15.053  11.972  12.621  0.0069 -0.1286 -0.0070
12252W        W27383   6.054  12.938  13.878  0.0100  0.0303 -0.0377
12253W        W27384   5.627   6.942  14.528 -0.1124 -0.0064 -0.0239
12254W        W27385   8.914   5.209  10.646  0.1291  0.0487  0.1759
12255W        W27386  17.156  14.811  13.955 -0.1628 -0.0252 -0.0308
12256W        W27387  13.863   4.003  11.390  0.0682  0.0767  0.0222
12257W        W27388   2.463  17.806   2.117 -0.1720 -0.2155  0.1814
12258W        W27389  13.725  11.478  12.177  0.1376 -0.2600 -0.3040
12259W        W27390  14.335   5.018  13.985  0.0633  0.0976 -0.2688
12260W        W27391  17.340  13.556   5.840 -0.1301 -0.1448  0.1881
12261W        W27392  12.681   1.752   4.495 -0.4010 -0.0563 -0.1489
12262W        W27393  14.592   6.908  14.419 -0.0764  0.2608  0.5021
12263W        W27394   9.046  13.676  15.911  0.0664 -0.2422  0.0327
12264W        W27395   2.707   8.052  13.759 -0.0682  0.0120 -0.0180
12265W        W27396   7.360  11.400   3.893  0.0922 -0.0830  0.2114
12266W        W27397  13.312  16.386   3.060  0.0489 -0.1265 -0.1146
12267W        W27398   7.333   9.940   0.481  0.0329  0.1122 -0.2483
12268W        W27399   0.524  11.547  15.456  0.3764  0.0898  0.0736
12269W        W27400   2.246  13.676  12.138  0.1930 -0.3368 -0.0954
12270W        W27401   2.635  17.023  13.882 -0.2426  0.1742  0.2432
12271W        W27402  11.032   0.694  12.304  0.0904 -0.4029  0.0189
12272W        W27403  12.785  14.635   6.492 -0.1221  0.2152 -0.0465
12273W        W27404   8.043   8.689   0.949  0.2773  0.2763 -0.1613
12274W        W27405  17.312   9.476   0.875  0.0896  0.0685 -0.0431
12275W        W27406   5.158   7.067  14.669  0.2227 -0.0149  0.1526
12276W        W27407  15.776   8.542   1.550  0.2725  0.1827 -0.0530
12277W        W27408   1.864  13.086   0.621  0.3418 -0.0598 -0.0137
12278W        W27409   4.612   4.622  14.077  0.1073 -0.0845  0.0314
12279W        W27410   3.775  12.465  13.919  0.2812  0.0593 -0.1643
12280W        W27411   0.975  12.325  11.543 -0.0298 -0.1124 -0.0728
12281W        W27412   9.117  14.942   4.158  0.1942  0.0186  0.1161
12282W        W27413   5.360  15.271  14.308 -0.1054 -0.3992  0.0105
12283W        W27414   3.516  10.339  15.277 -0.1122 -0.0741 -0.0906
12284W        W27415   8.401   5.480   5.598 -0.0203 -0.3267  0.1508
12285W        W27416   4.222  12.154   3.306 -0.2068 -0.1850  0.0406
12286W        W27417  17.274   2.719   5.350 -0.0090  0.1693 -0.3189
12287W        W27418  12.545  11.556  13.578 -0.3451  0.0251 -0.1327
12288W        W27419   1.541  13.075   0.037 -0.2367 -0.0409 -0.1486
12289W        W27420   7.239   8.533  15.269 -0.0267 -0.0070  0.2398
12290W        W27421   4.926  12.827   2.385  0.0581 -0.1977  0.1910
12291W        W27422   3.037  17.166  13.043 -0.1836  0.3708 -0.1984
12292W        W27423  18.027   2.443   3.546  0.4954 -0.1097 -0.2006
12293W        W27424  13.457  14.081  14.524 -0.0975  0.5485 -0.1157
12294W        W27425   9.311   3.445  14.042  0.0823 -0.1847  0.1377
12295W        W27426   5.784   1.571   2.285  0.0669  0.2726  0.1211
12296W        W27427  16.777  14.236   1.319 -0.0967  0.0290 -0.2651
12297W        W27428   0.139  17.830  15.476 -0.1779  0.2746 -0.0862
12298W        W27429   6.075   6.100  11.410 -0.0476 -0.0351 -0.0716
12299W        W27430  11.846  12.080  10.142  0.1781 -0.1593  0.0068
12300W        W27431  16.677   1.756   3.460  0.3365  0.2470 -0.0936
12301W        W27432   7.105  11.281  16.302 -0.0188 -0.0797 -0.2642
12302W        W27433  17.838  16.563   2.307  0.1412  0.1673 -0.2707
12303W        W27434   9.850  14.450  12.607  0.2114  0.4164  0.1622
12304W        W27435  17.518  12.751   3.236 -0.0779 -0.0149 -0.0545
12305W        W27436  15.524  17.265  15.112 -0.2378  0.0782 -0.2650
12306W        W27437   3.165   4.069  12.700  0.1185 -0.0891  0.1596
12307W        W27438   3.684  16.120  11.344 -0.3102  0.0241  0.0713
12308W        W27439   0.038   2.225  14.207 -0.1672 -0.0786 -0.1187
12309W        W27440   4.712   1.598   4.263  0.0320 -0.1723  0.1682
12310W        W27441   6.880   3.904  13.349  0.1139  0.1251  0.1783
12311W        W27442   9.204   9.437   1.718  0.2280 -0.1132 -0.1634
12312W        W27443   8.045   5.367   4.659  0.1529 -0.1385  0.1231
12313W        W27444   8.838   2.866  15.674 -0.0998  0.1744 -0.0305
12314W        W27445   8.457   8.203   1.894 -0.2344 -0.0433  0.1148
12315W        W27446  15.256  13.147   3.545 -0.2149 -0.1876 -0.1176
12316W        W27447  16.132   2.901  15.420  0.2472  0.2129 -0.0583
12317W        W27448  14.655   3.884   3.563 -0.0168 -0.0992 -0.0734
12318W        W27449  16.295   8.693   3.033 -0.1552  0.3621  0.1053
12319W        W27450   0.197  14.995  15.059 -0.0020 -0.1469 -0.3179
12320W        W27451  18.019  14.474   4.115  0.0147  0.0015 -0.0446
12321W        W27452   1.566   9.820  14.835  0.1687 -0.1516  0.3042
12322W        W27453  14.818  14.742   3.382 -0.1863 -0.1698 -0.1229
12323W        W27454  11.533  16.739  15.157 -0.2159 -0.0363 -0.1000
12324W        W27455   4.688  16.382  13.977 -0.0670  0.1865  0.0059
12325W        W27456  15.315  12.196  13.102 -0.0430  0.2705  0.1890
12326W        W27457  14.894  14.974   5.776 -0.1560  0.0357  0.0242
12327W        W27458   4.164   6.183   1.612 -0.4828  0.0222 -0.1384
12328W        W27459  15.078   5.448   0.210 -0.0100 -0.0477 -0.0558
12329W        W27460   0.641  11.425  15.960 -0.1113 -0.3776  0.0820
12330W        W27461   0.306  15.510   4.373  0.1026 -0.0884 -0.0928
12331W        W27462  15.619  12.223   0.728 -0.1310  0.1245  0.0268
12332W        W27463   8.681   7.456   1.869  0.0758  0.1068 -0.1332
12333W        W27464   8.973  13.084  13.804  0.2432  0.1193  0.2496
12334W        W27465  10.410   1.448   2.874  0.2808  0.0394  0.2783
12335W        W27466   1.378   8.341  14.216  0.3002  0.2400 -0.0933
12336W        W27467   7.469  12.333  13.247 -0.1260 -0.1999  0.3230
12337W        W27468   7.914  11.928  10.968 -0.0297 -0.3732  0.0729
12338W        W27469  11.446  15.495   0.327  0.0477 -0.1447 -0.2379
12339W        W27470   6.194   2.225   2.781 -0.0586 -0.0370 -0.0865
12340W        W27471  12.605  12.796   4.632 -0.1104 -0.0209 -0.2532
12341W        W27472  10.367  13.549   5.719 -0.0377 -0.1614  0.0162
12342W        W27473   2.512   3.001   1.079 -0.3419 -0.1142  0.2038
12343W        W27474  17.240  13.981  16.159 -0.0800  0.2271  0.2450
12344W        W27475   8.290  15.776   0.621  0.0321 -0.3486 -0.2230
12345W        W27476  11.924   1.743  11.489  0.1900  0.0776 -0.1595
12346W        W27477   1.985   7.235   1.379  0.1444  0.2463  0.0669
12347W        W27478  14.974  17.879   1.942  0.2939 -0.0378 -0.2136
12348W        W27479  14.183   6.470  13.582 -0.0503 -0.1178 -0.1302
12349W        W27480  17.137   9.512  16.426 -0.2060 -0.2325  0.2852
12350W        W27481  12.686   3.681  14.941  0.2110 -0.2820 -0.1582
12351W        W27482  12.845   8.512  14.216 -0.0171  0.1462  0.0598
12352W        W27483   1.812  14.096   5.199  0.2655 -0.1792 -0.1549
12353W        W27484   3.254  13.690  12.259 -0.0957 -0.0398  0.0551
12354W        W27485   8.954  11.592  15.517  0.2697 -0.0790 -0.0953
12355W        W27486   6.586   8.860  10.765 -0.0758  0.0695  0.2307
12356W        W27487  13.875  16.963   1.665  0.0916 -0.1577 -0.1237
12357W        W27488  11.659   9.647   4.462 -0.0891 -0.2574  0.1424
12358W        W27489  13.217   9.498  13.545  0.2867  0.0469  0.0911
12359W        W27490  12.287   7.991  11.203  0.2255  0.0233  0.0242
12360W        W27491  10.797  14.317   1.799  0.1325  0.2322  0.2627
12361W        W27492  16.785   4.849   3.249 -0.0608 -0.0905  0.0442
12362W        W27493   6.917   8.426   2.948 -0.1253  0.2167 -0.3383
12363W        W27494   7.061  17.363  15.500  0.0877 -0.0237 -0.0765
12364W        W27495   5.715   8.704  12.280 -0.1253  0.0241  0.0346
12365W        W27496   4.654   6.802   4.340 -0.1485  0.0935  0.1587
12366W        W27497  14.838  10.214   0.906 -0.0398  0.0932 -0.0060
12367W        W27498  11.628  10.464  14.340  0.1864  0.1063 -0.0870
12368W        W27499   4.218   6.569   5.091  0.0894 -0.2754 -0.3632
12369W        W27500  12.468   6.552   4.664 -0.4844 -0.0656  0.1269
12370W        W27501   4.842  15.208  12.971  0.1967 -0.0350 -0.1413
12371W        W27502   9.166  17.756   3.016  0.1272  0.1067 -0.1901
12372W        W27503   4.281   1.636   2.546 -0.0527  0.1178  0.0021
12373W        W27504  16.423   0.686  15.649 -0.1100  0.1753  0.3338
12374W        W27505   9.146   9.085  16.233 -0.1928  0.1466 -0.1793
12375W        W27506   8.564   3.685  11.501 -0.0056 -0.0735 -0.2468
12376W        W27507   0.455   3.664   0.192  0.3481  0.3102  0.0692
12377W        W27508   8.411  11.103   0.366  0.2980 -0.1593  0.0152
12378W        W27509   7.087   7.841  15.908 -0.0421 -0.1099  0.1226
12379W        W27510  14.970   3.167   0.743 -0.2975 -0.1376  0.0316
12380W        W27511   6.943   5.060   4.626  0.1950  0.1107  0.3298
12381W        W27512  15.527  10.211   0.348  0.0062  0.0827 -0.2365
12382W        W27513   7.024   4.055   0.974  0.0916  0.0748  0.0381
12383W        W27514   6.023  13.548   1.857  0.1700  0.0018 -0.1989
12384W        W27515  11.352   6.176  11.215 -0.0042 -0.2603  0.4249
12385W        W27516   1.631   5.246  16.022 -0.2601 -0.3318 -0.1227
12386W        W27517  10.820  16.460   4.597 -0.2810 -0.0014 -0.2905
12387W        W27518  13.250  16.958  15.534 -0.0019 -0.3048  0.4695
12388W        W27519  10.163   1.125   2.606 -0.0711  0.2862  0.2072
12389W        W27520   4.653   3.375   1.344 -0.0528  0.1679  0.1944
12390W        W27521  13.522   9.138   5.836  0.0525 -0.2701 -0.0124
12391W        W27522   7.153   5.786  12.244 -0.2711 -0.1317 -0.1305
12392W        W27523  13.443   3.006   2.741 -0.0384  0.1024 -0.2180
12393W        W27524  14.788   5.923   2.560 -0.0538 -0.0299  0.0806
12394W        W27525  17.772  12.423  12.359  0.0001 -0.3949  0.0122
12395W        W27526   8.690   7.758  15.016  0.2160  0.0637  0.3736
12396W        W27527   8.122  11.421   2.359 -0.1176 -0.0810 -0.0975
12397W        W27528   4.445  17.127   5.683  0.0910  0.0313  0.2254
12398W        W27529  14.501   9.619  14.594  0.1076 -0.3588 -0.3223
12399W        W27530  13.966   5.095  13.295  0.2317  0.0969  0.0051
12400W        W27531  15.471   5.760   0.389  0.0727 -0.1244  0.1062
12401W        W27532   9.463   9.808   1.416 -0.2219 -0.1623 -0.2606
12402W        W27533  11.249  13.650   2.887  0.2601  0.3368 -0.1214
12403W        W27534   7.531  10.741   1.350 -0.1646  0.0093  0.0882
12404W        W27535  10.736  10.015  11.471 -0.3202  0.1650 -0.0874
12405W        W27536  16.378   9.192   5.716 -0.1871 -0.4829  0.1280
12406W        W27537  15.566  11.678  11.483 -0.0644 -0.2103  0.0462
12407W        W27538   1.913   0.365   0.538 -0.0378  0.1715 -0.2407
12408W        W27539   8.887   6.086  15.920  0.4271  0.0420  0.0507
12409W        W27540  12.061  12.477   2.885 -0.0933 -0.1227  0.1663
12410W        W27541   7.958  10.329   3.752  0.0934  0.0232  0.2859
12411W        W27542   6.879   5.467   4.372 -0.1322  0.0120 -0.0172
12412W        W27543   5.721   6.929   1.033  0.1295  0.0888 -0.0998
12413W        W27544  12.576   4.209  14.974  0.0940 -0.0585 -0.3026
12414W        W27545  14.765  12.692   0.144  0.1453 -0.1512 -0.1257
12415W        W27546   0.422  17.529  15.161  0.4317  0.2344 -0.0604
12416W        W27547   3.211  14.462   4.292  0.1768  0.0497  0.1610
12417W        W27548   0.279   5.694  11.752 -0.1529 -0.0807 -0.0216
12418W        W27549  11.590   5.399  13.246 -0.0602  0.0679  0.0515
12419W        W27550  12.016   3.047  14.254  0.2862 -0.3908  0.1899
12420W        W27551   4.721  12.302   0.612  0.0387  0.1391  0.1466
12421W        W27552   9.124   2.377   3.506  0.1686 -0.2076 -0.5542
12422W        W27553   6.504  11.650   0.117 -0.1251 -0.3544  0.0974
12423W        W27554   1.678   8.044   0.256  0.2411 -0.2721  0.2258
12424W        W27555   4.733  15.628   2.291  0.0440 -0.0166 -0.3132
12425W        W27556  12.861  11.399  15.391 -0.0111 -0.1874 -0.0441
12426W        W27557   1.179   1.527  15.206 -0.0334 -0.1264 -0.0900
12427W        W27558  16.027   8.397   0.228  0.0362  0.0346  0.0355
12428W        W27559   4.943   3.561  12.441 -0.0826  0.0893 -0.3091
12429W        W27560   2.256   5.474   1.438  0.0959  0.2303 -0.0483
12430W        W27561  17.236  17.427  12.016 -0.2674 -0.0612  0.0565
12431W        W27562   1.199   0.231  13.535  0.2585  0.1543 -0.0995
12432W        W27563   7.073  16.154  12.385  0.2590  0.2169 -0.2255
12433W        W27564  10.188   9.896   4.716 -0.1434 -0.1785  0.1013
12434W        W27565  14.228  13.759  14.700  0.0623  0.2313  0.0108
12435W        W27566   9.790   5.689   1.213  0.0815 -0.3454 -0.1212
12436W        W27567  15.280  12.722   3.239  0.1148 -0.0009  0.2017
12437W        W27568  13.835   9.899   3.206  0.0289 -0.0591  0.1494
12438W        W27569  13.488  12.340  11.423 -0.0889  0.1710 -0.1677
12439W        W27570  13.759  14.135   0.990 -0.0558 -0.1621 -0.1431
12440W        W27571   6.672  16.566   0.986  0.1592  0.1382  0.1450
12441W        W27572   7.239  15.980  16.075 -0.0597  0.2044  0.2555
12442W        W27573   4.334  15.491  16.004 -0.1646  0.1687 -0.1847
12443W        W27574  10.498  12.116   1.665 -0.0266 -0.1705  0.1201
12444W        W27575   7.887  11.713   1.534 -0.4298  0.5952  0.1199
12445W        W27576   1.067   0.873  11.762 -0.3714  0.0233 -0.1176
12446W        W27577  14.942  12.636   1.767 -0.0165 -0.1068  0.2476
12447W        W27578   5.293  15.484  13.270 -0.0092  0.0854  0.2264
12448W        W27579  12.894   1.706   4.989  0.3768 -0.1841  0.1599
12449W        W27580   5.675  15.631   4.844  0.0945 -0.0045 -0.0790
12450W        W27581  16.618   1.299   4.424 -0.2018 -0.0157  0.1591
12451W        W27582   0.480   1.777  14.566  0.0992  0.1574 -0.0814
12452W        W27583   0.666   4.131  15.598 -0.2222 -0.0424 -0.1750
12453W        W27584   0.057   0.899   0.976 -0.0356  0.2116 -0.0929
12454W        W27585  10.830  13.615  14.500 -0.2488 -0.0976  0.2131
12455W        W27586  15.251   4.039  10.867  0.0496  0.0155  0.1841
12456W        W27587   2.465  11.880  13.968 -0.2293  0.3359 -0.0740
12457W        W27588   2.786   8.227   2.462  0.2235 -0.0628 -0.1702
12458W        W27589   2.719   8.929  12.071  0.0576 -0.1249 -0.1837
12459W        W27590  10.149  12.777   2.348 -0.4651  0.2084 -0.4230
12460W        W27591  17.041  13.692   2.477  0.0896  0.0274 -0.4064
12461W        W27592  15.679  13.011   3.935  0.2381  0.0999  0.3570
12462W        W27593  13.119   8.592   0.234  0.0036 -0.0780 -0.0380
12463W        W27594  13.633  11.373   4.674 -0.0126  0.3239 -0.3164
12464W        W27595   2.955   5.816   4.801 -0.1488 -0.0281  0.1984
12465W        W27596  16.595   6.687   3.285 -0.1709 -0.3517 -0.0993
12466W        W27597   3.134  11.544   3.602 -0.0269  0.0051 -0.1960
12467W        W27598   4.203  14.670   2.252  0.0155 -0.3406  0.3750
12468W        W27599   0.803  10.987  14.667  0.0988  0.0627  0.1758
12469W        W27600  13.101  10.038   4.796 -0.2019 -0.1691  0.3353
12470W        W27601   1.242  16.370  12.823 -0.1640 -0.1464  0.5261
12471W        W27602   8.325  14.966   2.057  0.0334 -0.0424 -0.0746
12472W        W27603  15.741  11.911  14.789  0.0660 -0.0276 -0.1127
12473W        W27604   3.311   5.379   4.689  0.1394  0.1167 -0.0651
12474W        W27605  16.649   9.957  14.411 -0.0626 -0.0126 -0.1381
12475W        W27606   9.297  11.446  14.582 -0.0446 -0.0821  0.0055
12476W        W27607   6.809   8.825  15.914  0.1753  0.3125 -0.1664
12477W        W27608  17.386  16.402   3.493 -0.0709  0.1058 -0.0313
12478W        W27609   0.330   3.494   5.377  0.0641  0.0940  0.3209
12479W        W27610  14.442  13.398   5.080 -0.1989 -0.0845  0.0954
12480W        W27611   2.004  15.525  11.869  0.1442  0.4495  0.1204
12481W        W27612   3.074  15.408   1.203  0.2458 -0.0187  0.1236
12482W        W27613   8.190   9.888  15.755 -0.0816  0.1126 -0.0992
12483W        W27614   0.996   9.596  14.042  0.0793 -0.0908 -0.0305
12484W        W27615  10.819  12.095   0.889 -0.1975 -0.0292 -0.0346
12485W        W27616   4.793   0.421  14.008 -0.0237  0.2017 -0.2365
12486W        W27617   4.368   1.444   5.396 -0.2745  0.1547  0.0915
12487W        W27618   7.647   7.728   4.120  0.0126  0.2118  0.2164
12488W        W27619   1.393   3.260   2.608 -0.3789  0.0691  0.2212
12489W        W27620   0.596   4.635  14.553 -0.0003 -0.0443 -0.2615
12490W        W27621   7.602  10.795   2.565 -0.1742 -0.1024 -0.1263
12491W        W27622   9.767   1.326  12.244 -0.3316  0.0157  0.1916
12492W        W27623  10.751   6.365   5.137  0.1708  0.0995  0.0993
12493W        W27624   9.004   1.608  11.731 -0.1115  0.2498 -0.0519
12494W        W27625   4.632  12.134  14.386  0.2554  0.6011 -0.2657
12495W        W27626   4.537   2.758  11.440  0.1044 -0.0896 -0.0464
12496W        W27627   4.047  16.995  13.565 -0.0455 -0.0667 -0.2111
12497W        W27628  11.836  16.615  15.526 -0.1483 -0.0349 -0.2586
12498W        W27629  16.830  16.841  12.588 -0.1303  0.3052  0.1539
12499W        W27630   5.551  15.463   5.294  0.2316 -0.0455 -0.0650
12500W        W27631   7.276  17.652   5.124 -0.1386  0.0665  0.0242
12501W        W27632   6.493   6.012   1.898 -0.3976  0.2419  0.1789
12502W        W27633   7.887   4.756  14.032 -0.1012 -0.0258  0.1928
12503W        W27634  14.271   1.741   2.306  0.0807 -0.0542 -0.0582
12504W        W27635  16.872  13.155  12.680 -0.1907 -0.0915  0.4558
12505W        W27636   9.671   7.963  11.260  0.1284  0.0075  0.2290
12506W        W27637  16.688  17.243  11.126  0.1285  0.0861 -0.0535
12507W        W27638   7.824   8.335  11.562 -0.1505 -0.0098 -0.2144
12508W        W27639   2.536   0.245   1.181 -0.1964  0.0372  0.3832
12509W        W27640  13.802   2.398   3.845 -0.0051 -0.1796  0.2000
12510W        W27641   0.601  11.079  15.574  0.1206 -0.0208 -0.2574
12511W        W27642   5.883   5.475  14.105 -0.1038  0.3395 -0.0884
12512W        W27643   7.124   6.569  15.710 -0.0022  0.0646  0.3370
12513W        W27644   4.647  17.105   2.629 -0.4251  0.0776  0.2965
12514W        W27645   6.812  16.435  11.247 -0.1447 -0.1579 -0.0599
12515W        W27646   5.152   3.571   0.884  0.0973 -0.1567  0.0374
12516W        W27647   8.261   1.967   2.739 -0.4443  0.2492 -0.4387
12517W        W27648   3.691  12.241  14.413  0.4025  0.1867 -0.2523
12518W        W27649  11.931   9.529  12.693  0.3998 -0.3258  0.2983
12519W        W27650   9.596  13.819  11.732 -0.2369  0.1816  0.2479
12520W        W27651   1.147   7.522  15.756 -0.0008 -0.0579  0.1391
12521W        W27652  10.132   6.903   1.191 -0.1883 -0.0860 -0.2110
12522W        W27653  10.109   8.221   4.247  0.0479  0.0328  0.2718
12523W        W27654  17.311   0.833   5.289  0.1995 -0.1015  0.3011
12524W        W27655   5.275  10.472  13.610 -0.2148 -0.0575  0.0844
12525W        W27656   4.439   5.750   3.528  0.3425  0.1217  0.2384
12526W        W27657  11.494  14.730  16.142  0.0423  0.1594 -0.0683
12527W        W27658  15.516  12.731   0.684  0.0548 -0.0414 -0.5054
12528W        W27659  17.210  11.684  11.085 -0.0796  0.2537  0.0645
12529W        W27660   6.362   2.463  13.648  0.2068  0.1454  0.0493
12530W        W27661   7.344   2.366  12.277  0.1243  0.1036  0.1742
12531W        W27662  15.651  12.441   4.834 -0.1768  0.1785 -0.0651
12532W        W27663  11.400   7.015   4.042  0.2025  0.1864 -0.1649
12533W        W27664  12.979  10.460  15.617  0.0839  0.0867  0.1503
12534W        W27665   7.824   4.764   2.341 -0.0514  0.2839  0.0526
12535W        W27666  10.836   0.204  11.434  0.0428  0.1077  0.1253
12536W        W27667  16.620   0.668  16.171 -0.2660  0.2833 -0.3541
12537W        W27668  12.863   0.585  13.753 -0.0121 -0.0986 -0.1165
12538W        W27669   2.177   2.997  10.872 -0.0694 -0.0724  0.2040
12539W        W27670  15.085   7.363  11.728  0.0517  0.0653 -0.0211
12540W        W27671  13.099   3.514  13.273 -0.0535 -0.1183  0.1853
12541W        W27672  12.013  11.343   1.882  0.3381  0.5378 -0.1178
12542W        W27673  16.485   6.988   1.686  0.0909 -0.1641 -0.0239
12543W        W27674   4.786  17.129   3.141 -0.1195  0.2090 -0.0715
12544W        W27675   2.216   0.239   0.202 -0.1621 -0.2698 -0.0175
12545W        W27676  15.253   1.345  14.558  0.5082 -0.0511  0.0439
12546W        W27677  10.842   0.611   0.062 -0.1975  0.0155  0.1515
12547W        W27678   5.563  17.699   2.042  0.1801 -0.1047 -0.2409
12548W        W27679  12.889  13.272   3.716 -0.0269  0.3684 -0.0003
12549W        W27680   3.117   8.987   1.037 -0.1334  0.3714 -0.1938
12550W        W27681   5.237   7.336   5.525 -0.1323  0.2615  0.2142
12551W        W27682   0.178   2.238  12.568 -0.3402  0.5793  0.0891
12552W        W27683  10.275   5.740   0.425  0.0620  0.3335 -0.1827
12553W        W27684  11.986  15.626  14.185  0.1112  0.2512 -0.0558
12554W        W27685   8.220   6.342  11.118 -0.0160 -0.0548  0.1141
12555W        W27686   9.944  14.757  13.061 -0.0825 -0.1307  0.3589
12556W        W27687   1.795   5.137   4.904 -0.2578  0.0755 -0.0832
12557W        W27688  16.979   0.090  15.275  0.0451 -0.1792  0.3126
12558W        W27689  11.497   4.428  16.425  0.0330  0.3822 -0.1290
12559W        W27690   5.043   2.083   5.683  0.3269 -0.1914 -0.0635
12560W        W27691  17.739   7.524   3.945 -0.0685 -0.0345 -0.1343
12561W        W27692  11.385  13.300   3.845  0.0211 -0.2318  0.3616
12562W        W27693  15.578  11.866   1.105  0.1137 -0.1857  0.1681
12563W        W27694   2.833   3.014   0.252 -0.0938 -0.1323 -0.1333
12564W        W27695   5.733   2.093   0.950  0.1853 -0.0259  0.3219
12565W        W27696  12.408   4.875   3.742  0.1314 -0.1622  0.1381
12566W        W27697   2.646  16.329  13.731 -0.0193  0.0789  0.1735
12567W        W27698   6.689   9.287   3.826 -0.0061 -0.1736 -0.2412
12568W        W27699   3.534   5.166  14.436  0.1269  0.1161 -0.0694
12569W        W27700   3.227  17.586   4.757 -0.0929 -0.1344 -0.0944
12570W        W27701  12.589  17.490  12.987 -0.0392  0.2105 -0.2795
12571W        W27702   5.074   6.112  10.979 -0.2805 -0.2373 -0.1846
12572W        W27703   4.207   2.938  12.237  0.2175  0.0186  0.2324
12573W        W27704   3.463   0.072   4.804 -0.2247  0.0600  0.4540
12574W        W27705   9.228   5.705  15.482 -0.0913  0.0868  0.1668
12575W        W27706   7.688   1.919   3.325  0.0492  0.0583  0.1023
12576W        W27707   2.902  11.793   3.197  0.3169 -0.1345  0.4482
12577W        W27708   2.146  15.576  15.338  0.2081 -0.2065  0.0075
12578W        W27709  16.593  12.958   1.359 -0.3437  0.1386  0.0583
12579W        W27710  11.446   1.288   0.166  0.2933 -0.0728  0.2942
12580W        W27711  15.147   6.593   1.353  0.4092  0.0460  0.1529
12581W        W27712   9.460   7.823   0.516 -0.0400 -0.0542  0.0251
12582W        W27713   5.962   8.427   3.973 -0.0338 -0.1542 -0.2829
12583W        W27714  10.783   2.256  11.234 -0.1174 -0.0531  0.0919
12584W        W27715   6.406  13.396  13.759  0.2705 -0.0857 -0.1029
12585W        W27716   6.549  12.045  12.327 -0.0428  0.0252 -0.0789
12586W        W27717  10.696   8.537   5.465 -0.2650 -0.1045 -0.0334
12587W        W27718   3.186   4.013  12.081  0.2944 -0.1621 -0.1473
12588W        W27719   4.924  17.027  14.111 -0.1218  0.2286  0.2234
12589W        W27720  15.888  12.970   2.117 -0.0418 -0.1054 -0.2965
12590W        W27721   9.320  11.083   2.429 -0.1858 -0.2025  0.0380
12591W        W27722  13.418   6.364   0.782  0.0183 -0.0896 -0.2112
12592W        W27723   6.701   8.800   2.264 -0.0484  0.0556  0.0462
12593W        W27724  18.044  10.829  13.763  0.1235  0.3182 -0.0208
12594W        W27725   5.169  13.212  11.266  0.1936  0.1370 -0.0531
12595W        W27726  10.854  15.809  14.997  0.0761 -0.2269  0.0817
12596W        W27727  17.288   7.091   0.007 -0.2405  0.0219 -0.2205
12597W        W27728   0.007   8.418   5.278  0.3293 -0.0945  0.1667
12598W        W27729   8.825  15.208   5.082  0.0615  0.0696 -0.2019
12599W        W27730   4.690  11.769   5.181 -0.1109 -0.0503 -0.2115
12600W        W27731   2.881  17.338  16.345 -0.0253 -0.0530 -0.1197
12601W        W27732  10.170   6.097  12.919 -0.1023 -0.0419 -0.2032
12602W        W27733   7.858   6.583  10.823  0.1196  0.1029  0.1830
12603W        W27734   5.335  16.023   1.165 -0.1216 -0.1033 -0.1812
12604W        W27735  10.724  16.082   3.126  0.1452  0.0921 -0.2182
12605W        W27736   6.631   2.689  13.995  0.4120  0.2439 -0.1574
12606W        W27737   7.121   9.609  12.348 -0.0252  0.1162 -0.2916
12607W        W27738  10.786   9.418  13.998  0.3767 -0.1915 -0.0064
12608W        W27739  13.735  13.529  15.545  0.1035  0.1035 -0.1605
12609W        W27740  16.959  12.905   2.103  0.0114  0.2187  0.3732
12610W        W27741   5.101  14.030  15.180 -0.1519 -0.0924 -0.1967
12611W        W27742  10.062   6.953   3.918 -0.0672  0.1217 -0.0027
12612W        W27743   9.241   8.290   5.406 -0.2977  0.2255 -0.1366
12613W        W27744  14.366   2.433   3.718  0.1354  0.2144  0.2513
12614W        W27745  16.819   7.535  11.799 -0.1900  0.1248  0.1048
12615W        W27746  13.380   1.931  13.410 -0.0351  0.0119  0.2829
12616W        W27747   7.145  10.692  16.217 -0.0908  0.1628  0.1290
12617W        W27748   1.399  16.589   1.317  0.0033 -0.1016 -0.1397
12618W        W27749  10.168   6.977  11.007 -0.2554 -0.0050  0.1964
12619W        W27750   6.831   1.005   2.784  0.4187 -0.0542 -0.0788
12620W        W27751   7.847  13.905   1.166 -0.1814 -0.2962 -0.1559
12621W        W27752  17.283   8.538  11.464  0.0664  0.1387 -0.2742
12622W        W27753  17.078   1.960   1.102 -0.1456 -0.1036  0.1176
12623W        W27754  13.273   3.394   2.356 -0.1107 -0.0215 -0.2837
12624W        W27755  15.059  11.981  16.003 -0.1630  0.0324 -0.2023
12625W        W27756   4.312   2.473  12.455 -0.2741 -0.1229  0.0933
12626W        W27757   8.968  17.302   0.570 -0.1100  0.1259  0.2587
12627W        W27758   6.293   5.839  13.453 -0.0104  0.2623 -0.0372
12628W        W27759   9.054  10.012   0.284 -0.2611 -0.1503 -0.0693
12629W        W27760   4.973   8.100   0.754 -0.0823 -0.0085  0.2333
12630W        W27761  11.513  10.818  12.699 -0.0063 -0.0668 -0.0356
12631W        W27762   1.324  16.203   5.228  0.2743  0.0139 -0.0977
12632W        W27763  10.024  12.732  12.679 -0.1792 -0.3207 -0.1290
12633W        W27764   6.541   1.675   0.037  0.0881 -0.3347 -0.1756
12634W        W27765  16.559   2.276  11.709 -0.0012 -0.0117  0.2811
12635W        W27766   0.523   6.138  14.461  0.1799  0.0535  0.4675
12636W        W27767   0.427   6.497  14.778 -0.1415  0.1877  0.0196
12637W        W27768   7.459   0.186  12.765  0.1118 -0.1151 -0.1203
12638W        W27769   0.208   2.668  15.623 -0.1614  0.3782 -0.2568
12639W        W27770   1.406   4.601  15.482  0.2081  0.3001  0.2332
12640W        W27771   8.165  10.575   5.706  0.0101  0.0355  0.1315
12641W        W27772  10.867   3.213   2.825 -0.0155  0.0950 -0.1543
12642W        W27773  13.371  10.391   0.497 -0.4635 -0.0695  0.2106
12643W        W27774   5.120   2.588   4.108  0.0490  0.1891 -0.0868
12644W        W27775  11.980   6.457   0.103 -0.1128  0.0641  0.0041
12645W        W27776   2.277  16.860  14.671  0.0703 -0.0492 -0.3778
12646W        W27777   4.047  10.500   0.180  0.2671 -0.3270 -0.2032
12647W        W27778   9.435   0.764  10.675  0.0266 -0.1663 -0.0026
12648W        W27779   7.168   5.465   4.914  0.0488 -0.1961 -0.2186
12649W        W27780  17.934   8.851  13.118  0.0112  0.2466  0.1944
12650W        W27781   2.064   1.644   4.338 -0.0504  0.2432 -0.0813
12651W        W27782  17.254  12.249  12.487 -0.0776 -0.4131  0.1033
12652W        W27783   2.854  15.897  15.218 -0.2155  0.0743  0.2316
12653W        W27784   1.371  11.054  15.921  0.0471  0.0925  0.1487
12654W        W27785  15.978   6.496  13.389  0.2962  0.1322  0.1924
12655W        W27786   1.376   2.045  15.411 -0.0592 -0.1061 -0.0214
12656W        W27787  16.526   2.456   5.019  0.5037 -0.0164  0.1936
12657W        W27788   6.714  12.605  14.135 -0.0949 -0.3370  0.2115
12658W        W27789   6.811   0.348  16.279  0.0816 -0.0371  0.0218
12659W        W27790  12.342  11.839  16.421  0.1553 -0.0002 -0.0446
12660W        W27791   9.807  15.135  15.185 -0.0230  0.0219 -0.1184
12661W        W27792  11.457  11.067   1.737 -0.4958 -0.0833 -0.2177
12662W        W27793   1.400   8.813  10.796 -0.0487 -0.0313  0.1714
12663W        W27794  16.623  15.064  15.022 -0.3138  0.2280 -0.1713
12664W        W27795  14.667  15.182   3.526  0.0034  0.0075 -0.0980
12665W        W27796  14.846  11.458  11.881 -0.2036 -0.1284 -0.3289
12666W        W27797   8.375   0.872   0.049  0.0295  0.0379  0.5158
12667W        W27798   4.694  17.769   0.185  0.4238 -0.0376 -0.0806
12668W        W27799   0.918   1.457   5.494  0.0551 -0.2312  0.2145
12669W        W27800   2.707  18.049   2.489 -0.2050  0.1360  0.1922
12670W        W27801  13.670   9.398  10.956 -0.3933  0.2070 -0.1045
12671W        W27802   5.207   8.216  16.239  0.2025  0.0093  0.4572
12672W        W27803  11.518   2.619   3.369  0.3466  0.2952 -0.0890
12673W        W27804  16.516  11.910  15.533 -0.1386  0.1052  0.0714
12674W        W27805   2.589   5.305  12.269  0.0424 -0.2055 -0.2526
12675W        W27806   4.007   1.065   0.085  0.0651 -0.1447  0.4958
12676W        W27807  16.223  11.247   2.761  0.1656  0.0942 -0.0283
12677W        W27808   0.452  15.233   9.910  0.2585  0.1406 -0.2721
12678W        W27809   1.123  17.988   3.930  0.1648  0.1479  0.0621
12679W        W27810   2.005  11.889  11.350 -0.0971  0.0794  0.2298
12680W        W27811  15.669   2.118   0.982  0.2467  0.1075 -0.1746
12681W        W27812   9.286  12.443   4.125  0.2501  0.2671 -0.2742
12682W        W27813   5.204   1.328  15.129 -0.2281 -0.1530 -0.1861
12683W        W27814   8.944   0.857   5.623 -0.0038 -0.1456 -0.0448
12684W        W27815  15.437   1.678   4.150 -0.1316  0.0471  0.0197
12685W        W27816   2.895   6.512  15.889 -0.1832 -0.0249  0.1845
12686W        W27817  11.244   7.519   0.909 -0.3635 -0.2324  0.1467
12687W        W27818  11.584   6.171  13.773 -0.0277  0.0387 -0.0717
12688W        W27819   6.521   3.662   1.635  0.0942  0.3873 -0.0717
12689W        W27820  16.795   6.426   5.300 -0.2949 -0.4632  0.3374
12690W        W27821   1.986   9.010  15.224  0.0357 -0.0759  0.0168
12691W        W27822  17.549  13.827  14.700  0.1292  0.2729  0.2871
12692W        W27823   1.080   4.419  15.856  0.0660 -0.0834 -0.0424
12693W        W27824  15.016   6.517  11.931 -0.3149 -0.1146 -0.0949
12694W        W27825   8.243   6.606   3.765  0.0336 -0.1708  0.0052
12695W        W27826  12.346   4.315   0.596  0.0649  0.2053  0.1000
12696W        W27827   2.714   3.792   0.336 -0.0123 -0.0985  0.0502
12697W        W27828   0.826   8.876  12.744  0.1357  0.2903 -0.0579
12698W        W27829   9.873  11.913   3.732 -0.0149 -0.2278 -0.1434
12699W        W27830  14.634   4.658   6.444  0.0952  0.2456  0.0721
12700W        W27831   4.307   5.627   1.660 -0.1180 -0.0684 -0.2692
12701W        W27832   0.385   9.269   3.037 -0.4248  0.0604  0.1909
12702W        W27833  11.907   6.908   4.139  0.0022 -0.2085 -0.1149
12703W        W27834  12.364   2.216   1.870  0.1044 -0.1902 -0.0368
12704W        W27835   7.378  14.752  11.377 -0.0569  0.0892 -0.2947
12705W        W27836   4.686  16.850   1.454  0.2254 -0.0970  0.1529
12706W        W27837   1.180   6.759   4.184  0.1819  0.0522 -0.0828
12707W        W27838  11.054  14.648  12.075 -0.1753  0.2380  0.0201
12708W        W27839  14.735   6.260   1.330  0.1193  0.0030 -0.4263
12709W        W27840   3.602   3.669   3.524 -0.2946  0.0513  0.2551
12710W        W27841  10.608  11.427   0.743 -0.0294  0.0270 -0.4274
12711W        W27842   2.589   5.033   3.792  0.1007  0.3272 -0.2819
12712W        W27843  12.358   3.964  13.905  0.2072 -0.0071  0.2377
12713W        W27844  15.478  14.892   3.956 -0.0997 -0.3397  0.2766
12714W        W27845  12.897  14.586   1.720 -0.0094  0.2858 -0.3141
12715W        W27846   5.729   6.480  14.297  0.0481  0.0534  0.4238
12716W        W27847   2.283  16.671  13.736 -0.0868 -0.1267  0.2291
12717W        W27848   0.874   6.557   2.584 -0.3553 -0.4175 -0.1762
12718W        W27849  16.547   7.992  15.055  0.3463  0.3204 -0.1552
12719W        W27850  13.614   8.717   4.219  0.0135  0.1369  0.2429
12720W        W27851   9.234  10.423  15.321 -0.1772 -0.1523 -0.0880
12721W        W27852  16.976   6.406  15.703  0.0177  0.1010  0.0536
12722W        W27853  16.937   9.988  12.601  0.0235 -0.2849 -0.0348
12723W        W27854   2.197   6.688   0.757 -0.1148 -0.1686  0.0860
12724W        W27855   0.802  11.737  11.260 -0.0734  0.0224  0.0502
12725W        W27856   0.824  14.695   3.383  0.2687 -0.1035  0.2211
12726W        W27857  16.754   5.258   4.020 -0.2811 -0.1145  0.2565
12727W        W27858   4.183  12.262  14.218  0.0595 -0.1413  0.1350
12728W        W27859  12.897  10.272  14.045  0.0480 -0.1930  0.0797
12729W        W27860  15.012   7.944   4.096  0.0994  0.0484 -0.2407
12730W        W27861  15.959   5.131   2.967  0.0048  0.2294 -0.3228
12731W        W27862   4.439  14.163  11.068 -0.1513  0.0304  0.1879
12732W        W27863  17.839   0.019   4.245  0.0403 -0.4123 -0.0391
12733W        W27864   9.466   9.324  15.843  0.0957  0.1053  0.2576
12734W        W27865  11.676  15.677  15.697  0.1285  0.0379  0.0353
12735W        W27866   0.917  16.007   4.003 -0.1685 -0.0564 -0.1850
12736W        W27867   6.630  11.716  14.247  0.0725 -0.2001  0.0791
12737W        W27868  17.474   8.464  12.469  0.3727 -0.0301  0.2208
12738W        W27869  14.759   4.820  11.987  0.0338 -0.1884 -0.5143
12739W        W27870   1.839  16.643  14.553 -0.0644 -0.1192 -0.3265
12740W        W27871  17.453  13.353   4.906  0.0932 -0.0333  0.0334
12741W        W27872  13.442  14.416   5.591  0.2433  0.2738  0.0803
12742W        W27873  11.978  15.222   3.795 -0.1498  0.0689  0.1245
12743W        W27874   2.845  16.461  11.551  0.3007 -0.2243 -0.1486
12744W        W27875  17.500  11.212   4.136 -0.1033  0.2223 -0.2975
12745W        W27876  15.082  16.000  15.695 -0.0103 -0.3530  0.0232
12746W        W27877   4.970   9.590  12.736  0.0907 -0.1362 -0.4864
12747W        W27878  14.233  16.770  12.652 -0.0334 -0.3262 -0.1778
12748W        W27879  11.513  17.894  12.130  0.2908  0.0212 -0.2007
12749W        W27880  12.726  11.992   5.993  0.2216 -0.1281 -0.1658
12750W        W27881   0.716  10.935  11.576 -0.4500  0.0944 -0.2334
12751W        W27882  17.311  12.490   2.308  0.0678  0.1338 -0.1019
12752W        W27883  14.621  10.398  16.213 -0.0454 -0.1926 -0.0759
12753W        W27884  15.903  12.609   1.003 -0.0467  0.0621  0.0854
12754W        W27885   1.275  17.317  10.427 -0.1430  0.1471 -0.0516
12755W        W27886  10.732   0.194  12.892 -0.1619 -0.2600  0.4762
12756W        W27887   4.534  15.908   4.920 -0.0696  0.2146  0.0706
12757W        W27888   3.539   1.214  11.721  0.3781 -0.0606 -0.2384
12758W        W27889  15.268  16.181   3.204 -0.2836  0.0240  0.1324
12759W        W27890   2.128   8.554  11.283 -0.3362  0.0998 -0.2286
12760W        W27891  10.344  10.637   5.618  0.3866 -0.1473 -0.1046
12761W        W27892  17.321   7.784   1.968 -0.1014 -0.1018 -0.3865
12762W        W27893  15.849   8.652  13.461  0.0687  0.1135 -0.0572
12763W        W27894   9.554  13.703  15.112  0.1878 -0.0329 -0.3891
12764W        W27895   2.435  12.136   5.056  0.2172 -0.3088 -0.0431
12765W        W27896   9.452   9.716   3.110 -0.0480 -0.0211 -0.0389
12766W        W27897   9.561   7.483   3.344 -0.0695 -0.1750  0.0625
12767W        W27898  12.802  16.572  15.540  0.5066 -0.2111  0.1727
12768W        W27899  10.639  13.447  13.238 -0.0970  0.0836  0.1492
12769W        W27900  15.179  15.256  13.422 -0.2030  0.2548  0.0027
12770W        W27901  15.279  14.544  15.033 -0.1186  0.0046 -0.1821
12771W        W27902   7.284  11.767   0.728 -0.1504 -0.0983  0.1797
12772W        W27903  14.910   2.751   5.142  0.0422 -0.3471  0.2288
12773W        W27904   1.827  12.246  16.302  0.0883 -0.1262 -0.1744
12774W        W27905   5.212   4.924  15.525 -0.2394  0.2206  0.2338
12775W        W27906  13.587  15.288  13.265 -0.1352  0.1105  0.0564
12776W        W27907   5.212   5.945   0.275  0.0371  0.2845  0.0284
12777W        W27908  11.310   4.320  15.569 -0.0628  0.1865  0.1944
12778W        W27909  15.502   7.854   4.000  0.1509  0.0465  0.2670
12779W        W27910  16.359  15.241   4.825 -0.1106  0.3693  0.3615
12780W        W27911  15.542   8.647  11.343 -0.1041  0.4170 -0.6143
12781W        W27912   1.210  15.206  15.350  0.1522 -0.1303  0.2496
12782W        W27913   5.826  14.708  11.979 -0.1456 -0.2986  0.1023
12783W        W27914   0.442  12.745  14.579 -0.0327  0.1369 -0.0395
12784W        W27915  17.425  16.617  14.343 -0.2344  0.3494 -0.1778
12785W        W27916   0.269  16.808  11.614 -0.1268 -0.2888  0.1283
12786W        W27917   3.465  12.965   2.982 -0.0512  0.3080 -0.5191
12787W        W27918   7.707  16.827   2.883 -0.0932  0.0599 -0.0579
12788W        W27919   8.267  17.501   5.248 -0.0161  0.2641  0.1867
12789W        W27920   4.998   4.236   1.246  0.3728  0.5657 -0.2260
12790W        W27921   4.449   1.662  12.423 -0.1034 -0.0811  0.2563
12791W        W27922  10.065  14.979  14.462  0.1784 -0.1571  0.1074
12792W        W27923   3.046   1.917  14.647  0.0761 -0.0462 -0.2410
12793W        W27924  11.990   2.500   1.729 -0.1626  0.1000 -0.1787
12794W        W27925  13.919  12.916  14.447 -0.2108 -0.0038  0.0120
12795W        W27926   4.610  11.903   4.482  0.0330 -0.0983 -0.1118
12796W        W27927   4.767   8.719  13.724 -0.0021 -0.1577  0.3861
12797W        W27928  17.474   0.368   1.397 -0.1386  0.1470 -0.0716
12798W        W27929   3.227   6.151  14.189 -0.1780 -0.1437 -0.1517
12799W        W27930   7.196  16.784   0.817  0.1483 -0.0138 -0.4241
12800W        W27931   0.471   2.451   4.659 -0.4784 -0.0344 -0.0583
12801W        W27932   1.180   6.571  12.497 -0.0684  0.0428  0.4330
12802W        W27933  16.375  14.118  15.352 -0.0331 -0.0906  0.0477
12803W        W27934  11.817  10.056   0.871  0.0725 -0.0396 -0.0278
12804W        W27935   4.393  14.131   4.595 -0.0143  0.1973 -0.4156
12805W        W27936   5.217  12.210   2.587  0.0313 -0.1032 -0.0569
12806W        W27937  17.852  11.844   0.568  0.1645  0.0523 -0.0158
12807W        W27938  12.772   2.638   4.492  0.0517 -0.0771 -0.2054
12808W        W27939  13.590   4.720   1.922  0.3059 -0.1359  0.0651
12809W        W27940   4.835  10.517  11.263  0.5320  0.0410  0.0791
12810W        W27941   4.866  14.281   4.657  0.2479 -0.1778 -0.2099
12811W        W27942   5.485  17.993  11.616  0.2213 -0.2607 -0.1071
12812W        W27943  16.598   6.553   0.255 -0.1195  0.3453 -0.0455
12813W        W27944   1.141  14.852   0.286  0.1533  0.0909  0.0656
12814W        W27945  18.092  13.631  11.227  0.0638  0.0384 -0.1343
12815W        W27946   2.387   4.411  11.159  0.1664  0.0291 -0.0864
12816W        W27947  15.019   7.591  14.683 -0.0776  0.4488 -0.0803
12817W        W27948   7.812   9.690  14.672 -0.3749 -0.0159  0.1546
12818W        W27949   3.277   7.014  15.964  0.0752 -0.0195 -0.0609
12819W        W27950  12.123   7.990  14.475  0.1249 -0.2436 -0.0505
12820W        W27951  16.951   4.149   6.651  0.0159 -0.0132 -0.2190
12821W        W27952   4.201  16.231   4.883 -0.2437  0.2863  0.3422
12822W        W27953  12.414  12.887  15.583 -0.0040  0.2003 -0.1329
12823W        W27954  17.249   5.957  11.853  0.0738 -0.1460  0.0592
12824W        W27955   5.802  13.992  12.481 -0.1082 -0.1716  0.2678
12825W        W27956  10.541   8.006  15.502  0.1201  0.1516  0.1824
12826W        W27957   8.127  12.312   3.215 -0.1470 -0.0587 -0.0262
12827W        W27958   9.103   3.697   4.658  0.1720  0.0256  0.1050
12828W        W27959  17.925   9.234  11.463 -0.2164 -0.0324 -0.1866
12829W        W27960   1.430  17.671   1.445  0.0168  0.2293  0.0981
12830W        W27961  11.457   3.378   2.690 -0.0287 -0.1666  0.0879
12831W        W27962  17.579  17.743  14.955  0.0688  0.1544 -0.0135
12832W        W27963  13.962   3.272  15.604  0.0921  0.2476  0.2811
12833W        W27964  14.483  13.268   2.251 -0.0060  0.2307 -0.0675
12834W        W27965  15.383   0.560  13.920 -0.3186 -0.1432  0.1380
12835W        W27966  13.987  17.134   5.822  0.1016 -0.1170 -0.3646
12836W        W27967  12.909   0.028  11.314  0.1003  0.3445 -0.2916
12837W        W27968  13.217  16.763  12.894  0.1989  0.2604  0.2172
12838W        W27969  13.280   6.172   2.444  0.0787  0.1207 -0.1861
12839W        W27970   7.392   6.217   0.767  0.1864  0.0971  0.4373
12840W        W27971  14.423  10.514  14.392 -0.4585 -0.0991 -0.2937
12841W        W27972   4.830   6.327  12.400 -0.2095  0.1384 -0.2706
12842W        W27973   7.888  10.571   2.261 -0.2061 -0.1211  0.1560
12843W        W27974  11.968   3.576   2.593  0.3216  0.1050  0.0850
12844W        W27975  15.631   9.516  16.077  0.1316 -0.4468  0.0605
12845W        W27976   3.696   4.943  12.216 -0.1350  0.1236  0.2487
12846W        W27977  17.128  10.301  11.825  0.2507  0.1332  0.2996
12847W        W27978  13.393  16.186  11.338  0.2640 -0.3163 -0.0205
12848W        W27979  15.085   7.565   3.743 -0.0567 -0.3349 -0.1377
12849W        W27980   3.092   1.131   5.026 -0.2434 -0.2710  0.3421
12850W        W27981   5.835   4.640  15.528  0.1115 -0.0797  0.1031
12851W        W27982   3.286  17.655  14.348  0.1161 -0.0959 -0.1137
12852W        W27983   3.785  12.520  14.831  0.2715  0.1117 -0.2664
12853W        W27984  18.004  15.256  12.154 -0.1768  0.2152  0.1705
12854W        W27985   3.096   8.688  10.619  0.0398 -0.1054 -0.0823
12855W        W27986  14.348   9.808  11.106  0.0324  0.0379  0.1652
12856W        W27987   3.831  17.083  14.143 -0.0783 -0.1067 -0.2667
12857W        W27988   8.401   6.526  14.468 -0.2119  0.0747 -0.2214
12858W        W27989   3.689   1.444  11.339  0.2768  0.4002  0.1174
12859W        W27990   8.792  12.534   1.172 -0.0571  0.2663 -0.1746
12860W        W27991   3.319  16.316   0.377  0.0950  0.1480  0.2118
12861W        W27992   0.807   0.932   3.113  0.4707  0.0760  0.0100
12862W        W27993  14.086   0.610  10.390 -0.2555 -0.2909 -0.1118
12863W        W27994   4.186  13.675  13.374  0.3643  0.0507  0.0784
12864W        W27995   9.719  13.327   4.194 -0.0473 -0.1208  0.3206
12865W        W27996  16.894   2.834  12.463  0.0264  0.3169 -0.2694
12866W        W27997  11.457   9.254   2.334 -0.3027 -0.4771  0.0175
12867W        W27998  10.534  10.665  12.110 -0.0497  0.0214 -0.0907
12868W        W27999   1.370  17.397  15.757 -0.1526  0.0319 -0.1621
12869W        W28000  12.486   1.420   4.892  0.0795  0.2122 -0.0345
12870W        W28001  11.582  15.432   3.992  0.1889 -0.3783  0.0799
12871W        W28002   5.869   3.894   1.245 -0.0374  0.0119  0.2484
12872W        W28003  12.756  13.352   5.045 -0.0189 -0.1296  0.5351
12873W        W28004   7.316   0.360  12.278 -0.0383 -0.0630 -0.1900
12874W        W28005  11.905  11.651  11.589  0.1611  0.1632 -0.1676
12875W        W28006   7.023   7.595   5.132 -0.2374  0.0950  0.2189
12876W        W28007  13.485  15.070   3.251  0.1997  0.3799 -0.0304
12877W        W28008  12.250   2.565  11.999  0.0442  0.6047 -0.0033
12878W        W28009  13.070  11.574   0.918  0.1000 -0.1631 -0.1187
12879W        W28010   5.618   5.430   4.898 -0.3781  0.0778 -0.5773
12880W        W28011  15.020  17.283   0.622 -0.1924 -0.3225  0.1248
12881W        W28012  15.254  16.021  13.081 -0.0214  0.4111 -0.1675
12882W        W28013   9.822   3.565  12.053 -0.1987  0.0747 -0.1373
12883W        W28014  10.894   7.501   1.673 -0.0778 -0.0824 -0.0398
12884W        W28015  16.247   7.963   4.421  0.0087 -0.0481 -0.2109
12885W        W28016   3.948  14.680   2.881  0.1270  0.1004  0.1088
12886W        W28017   1.057   3.662  11.076 -0.1852 -0.2560 -0.3130
12887W        W28018   8.918   9.123   1.300 -0.0144 -0.2255 -0.0462
12888W        W28019   6.007  10.477   0.954 -0.2430 -0.4636  0.0870
12889W        W28020   1.890  13.671  15.811  0.0755  0.3190  0.4668
12890W        W28021  16.024  14.601  12.537  0.2240  0.1563 -0.1272
12891W        W28022   2.821   9.330  15.895  0.1717 -0.2286 -0.2620
12892W        W28023  13.884   7.271  15.389 -0.3393  0.1840  0.3447
12893W        W28024  14.860  12.374  12.819 -0.1520 -0.3584  0.4140
12894W        W28025  11.913   6.352  13.230  0.0998  0.1694 -0.0958
12895W        W28026   2.976   9.259   4.178 -0.1416  0.4149 -0.2840
12896W        W28027   2.209   4.729   3.591  0.0261  0.1412 -0.2563
12897W        W28028  10.608   3.600  11.488  0.3425 -0.0474  0.1274
12898W        W28029  15.987  14.734   0.651  0.0180  0.0801  0.0361
12899W        W28030   5.179  17.277   3.902  0.1670 -0.2249  0.1063
12900W        W28031  18.037   1.913  12.953  0.2486  0.0301 -0.1184
12901W        W28032  14.981  11.351   1.230 -0.2694 -0.0018 -0.1620
12902W        W28033  12.419  11.445  14.104 -0.0880 -0.0140 -0.3594
12903W        W28034   6.992   4.232  11.444  0.0747  0.1774 -0.2572
12904W        W28035  15.302   6.703   0.789 -0.1053  0.5733  0.0267
12905W        W28036   5.472  10.509   4.052  0.0472 -0.4592  0.0309
12906W        W28037  12.581   0.827   0.236 -0.0685 -0.0112  0.2487
12907W        W28038   8.058  16.952   1.742 -0.1511 -0.0100 -0.0283
12908W        W28039  13.481   4.368  14.173 -0.1688  0.0202 -0.0218
12909W        W28040  11.181   7.535  15.444 -0.0636  0.2218 -0.1492
12910W        W28041   8.424   1.932  10.918  0.0182  0.1477  0.0505
12911W        W28042  17.810  10.086   4.397 -0.4105  0.3799 -0.0387
12912W        W28043   9.243   9.812  11.190 -0.3334  0.0495  0.1753
12913W        W28044   7.578  15.546  15.839 -0.0208  0.1527  0.0408
12914W        W28045  15.748   3.782   2.190 -0.0215 -0.1565  0.2482
12915W        W28046   8.608  17.158  13.218  0.0666  0.1271  0.0819
12916W        W28047  12.924  16.386  11.633 -0.1431  0.0092  0.1050
12917W        W28048   5.946  11.182  13.472 -0.1143  0.0619  0.4295
12918W        W28049   7.641   2.992   4.864  0.0737  0.1472  0.2040
12919W        W28050   3.831  10.354  15.673 -0.2835 -0.1584  0.2774
12920W        W28051   7.797   7.210  13.567  0.1626 -0.2088  0.0419
12921W        W28052   4.817   6.601  13.358  0.2238 -0.2067 -0.2076
12922W        W28053  12.117  13.319   3.159  0.3428  0.0629 -0.2812
12923W        W28054  12.465   2.746   2.984 -0.0232 -0.2219  0.0626
12924W        W28055  13.995   3.666  16.145 -0.0588 -0.4554  0.1526
12925W        W28056  14.924   0.179  15.659  0.3084  0.0539 -0.1616
12926W        W28057   4.064   8.259   0.511 -0.1297 -0.2280 -0.0446
12927W        W28058   7.074   8.405  13.384 -0.3340  0.2640  0.1478
12928W        W28059   3.209   5.100  10.926  0.0314  0.0027 -0.2447
12929W        W28060   9.315  15.408  11.570  0.0072 -0.2470  0.1775
12930W        W28061  14.854  12.366   2.196  0.0341  0.0130  0.1515
12931W        W28062   4.151   6.059  15.438  0.0352 -0.1414  0.3335
12932W        W28063  12.374  10.981   1.599 -0.1091 -0.0056 -0.1169
12933W        W28064   3.763  12.879  15.204 -0.0637  0.1029  0.0794
12934W        W28065   7.643   2.810   0.524  0.3137  0.1324  0.1624
12935W        W28066   2.504   7.481  11.144  0.1209 -0.0026 -0.1789
12936W        W28067   2.863  17.300  15.780 -0.0692 -0.0847 -0.0048
12937W        W28068  15.475   2.777   3.324  0.2387  0.3002 -0.3032
12938W        W28069   6.504   8.417  13.173 -0.1974 -0.1436 -0.0854
12939W        W28070  12.313  14.966  15.808 -0.0780  0.1965 -0.2790
12940W        W28071   0.133   7.571  15.842 -0.4075  0.4835 -0.0298
12941W        W28072   3.309  13.333  11.058  0.1087 -0.0080 -0.0971
12942W        W28073  12.983   6.011   0.548  0.2195 -0.0110  0.1957
12943W        W28074   6.922   3.724  14.184 -0.0363  0.4303 -0.1805
12944W        W28075   7.896  13.230  10.986 -0.0362 -0.2115 -0.1864
12945W        W28076   2.450   5.848  16.167  0.0446 -0.0690  0.0153
12946W        W28077   2.235  15.184  13.550  0.0686  0.1744 -0.0895
12947W        W28078  15.502   0.576   4.609  0.3274  0.2134  0.2308
12948W        W28079  15.752   3.541   0.814 -0.0725 -0.2839  0.4283
12949W        W28080  16.649   9.644  11.719  0.1384 -0.1052 -0.0885
12950W        W28081   6.925  14.383   3.844  0.3344  0.1081  0.2493
12951W        W28082  11.629  17.855  13.153  0.1115 -0.0152 -0.0737
12952W        W28083   3.282   2.286  15.561 -0.0147 -0.0127 -0.2520
12953W        W28084  11.478  11.553   1.626 -0.0624 -0.1793  0.0523
12954W        W28085  15.892  14.377  13.007 -0.0329 -0.0207  0.1363
12955W        W28086   9.509   1.202   4.541 -0.1434  0.1090 -0.1241
12956W        W28087   7.098   7.631  11.558  0.0828  0.1046 -0.1119
12957W        W28088   4.265   5.633   4.575 -0.0250  0.1144 -0.1690
12958W        W28089  11.893  13.390  15.498  0.1685  0.0812  0.2696
12959W        W28090  13.499   8.677   2.001 -0.2699 -0.1022  0.3576
12960W        W28091   4.374   7.227   1.571 -0.0785  0.0746  0.2605
12961W        W28092   2.957  10.866  15.030 -0.0504  0.4970 -0.2541
12962W        W28093   1.508   4.265   4.186 -0.2226 -0.2127  0.3894
12963W        W28094   4.283  14.474   1.416 -0.0491  0.0032 -0.1423
12964W        W28095   2.913   3.420   0.671  0.1277 -0.1143  0.0167
12965W        W28096  12.899   0.339  12.828 -0.2425  0.1987 -0.3164
12966W        W28097   4.298   8.547  13.967  0.0787 -0.0240  0.0329
12967W        W28098   1.473  12.382  11.620 -0.0223 -0.1385  0.0613
12968W        W28099  15.673   8.409   1.097 -0.3924 -0.2752 -0.2116
12969W        W28100   5.509   1.111   2.333 -0.0686  0.0695 -0.0835
12970W        W28101   3.519   3.276  16.241  0.0449  0.3901 -0.0555
12971W        W28102  12.975   7.565   2.745 -0.1470  0.0707 -0.1367
12972W        W28103  12.816   7.786   4.915 -0.0850 -0.2187 -0.1429
12973W        W28104   1.606  11.283  14.669  0.0591 -0.1405 -0.0542
12974W        W28105   7.491  10.304   5.471  0.2535 -0.0763  0.0000
12975W        W28106   0.964   7.933   1.372  0.1232 -0.4782  0.4204
12976W        W28107   0.736   3.827  13.903  0.1857 -0.0223  0.0482
12977W        W28108   4.232   9.808   0.729  0.0413  0.3685 -0.0923
12978W        W28109  15.140  16.809   4.063  0.0299 -0.2077  0.1225
12979W        W28110  12.107  12.159   0.743  0.0671  0.0784 -0.0017
12980W        W28111  14.347  12.154   0.769  0.0112 -0.2532  0.2576
12981W        W28112  17.029   3.041   5.082  0.1940  0.1807  0.2721
12982W        W28113   6.658   3.328  11.524 -0.0432  0.2065  0.2260
12983W        W28114   1.357  16.847   3.008  0.1738  0.0214  0.0027
12984W        W28115   8.465  16.288   3.182  0.1214 -0.1076  0.3695
12985W        W28116  14.502  11.488   0.373  0.0994  0.1127 -0.1512
12986W        W28117   4.995   0.545  13.169  0.3295  0.0574  0.0476
12987W        W28118   3.050  13.908   0.113  0.1814  0.2513 -0.0573
12988W        W28119   2.357   9.528  15.873  0.1690  0.0822 -0.0459
12989W        W28120   0.307  16.446  16.294  0.0216 -0.2375  0.1383
12990W        W28121  16.777   4.768   3.733  0.0380  0.2546  0.1207
12991W        W28122  13.394  11.073  16.114 -0.1159  0.2484 -0.0210
12992W        W28123   6.995   9.830  12.740  0.0186 -0.1868  0.0656
12993W        W28124   1.119  14.652   5.136 -0.1842 -0.0913  0.4946
12994W        W28125  11.359   7.399  14.952 -0.5473 -0.2482  0.0398
12995W        W28126   9.565  14.061  12.783  0.1166  0.0158 -0.3351
12996W        W28127   8.278   6.497  15.011  0.1976 -0.1017 -0.1753
12997W        W28128  10.089   3.106   4.503 -0.0617 -0.1531 -0.0710
12998W        W28129  17.589  11.193   2.445 -0.1557  0.1127  0.2483
12999W        W28130   9.205  16.112   1.481 -0.1028 -0.0670  0.0876
13000W        W28131   3.186  14.813  13.424  0.1924 -0.1679 -0.1616
13001W        W28132  12.212   5.002  10.203  0.1925 -0.1348 -0.1943
13002W        W28133  15.982   7.993  14.322  0.0198  0.2145 -0.1238
13003W        W28134   5.111   9.092   4.734  0.1753  0.0013  0.0105
13004W        W28135   2.882   6.954  16.333  0.0205  0.3003  0.4045
13005W        W28136  16.273   3.233  14.076 -0.1910 -0.2009  0.0965
13006W        W28137   1.987   5.094   1.928 -0.2565 -0.0504 -0.2294
13007W        W28138   9.630   1.026  15.134  0.0913 -0.0144 -0.3006
13008W        W28139  13.786   7.554   3.889  0.1975  0.1308 -0.2253
13009W        W28140   0.956   2.488   1.577 -0.0241 -0.0648  0.0904
13010W        W28141  16.562  13.826   1.042 -0.1831 -0.3453 -0.2807
13011W        W28142  14.959   0.513   2.963  0.0355 -0.0833 -0.0164
13012W        W28143  11.567   7.600   2.297 -0.0523 -0.3709  0.1760
13013W        W28144  14.401   0.027   3.270  0.0437 -0.1314 -0.1657
13014W        W28145  15.289   7.202  13.878 -0.1997 -0.4765  0.1779
13015W        W28146  10.156   6.419   3.931 -0.0567  0.1912 -0.1158
13016W        W28147   9.511  13.970   0.254  0.0330 -0.0169 -0.1723
13017W        W28148   6.333  17.273  15.267  0.0675 -0.0567 -0.0547
13018W        W28149   9.992  13.040   0.496 -0.3850  0.0695  0.1594
13019W        W28150  16.526  17.836   4.660  0.1202 -0.1960  0.0878
13020W        W28151  13.935   7.544  12.350  0.0632  0.0620 -0.1378
13021W        W28152   7.201   4.672  13.077 -0.2020  0.0068  0.1986
13022W        W28153  10.652  12.472   2.735  0.0949  0.0640  0.0680
13023W        W28154   0.031   3.061  15.369  0.0987  0.0874 -0.0551
13024W        W28155   6.608  12.539   1.922  0.4352 -0.0139 -0.2359
13025W        W28156  17.958   3.574   0.731  0.1138 -0.4422 -0.2819
13026W        W28157  16.343  16.359  15.270 -0.2116  0.0489 -0.2404
13027W        W28158   0.863  17.644  14.963  0.0370 -0.1694  0.0220
13028W        W28159   7.824   5.077   2.742 -0.0582  0.3201  0.2805
13029W        W28160   9.342   0.313  10.539  0.0655  0.0507 -0.0184
13030W        W28161   4.376   2.860   0.685  0.1447 -0.2005 -0.1813
13031W        W28162  11.328   9.233  12.987 -0.0160  0.0936 -0.0101
13032W        W28163   2.728  12.454  13.414  0.1648  0.1492 -0.1537
13033W        W28164   6.254   9.028   1.307  0.0005  0.1249 -0.2738
13034W        W28165   3.418  10.966  12.279  0.1913  0.1129  0.1373
13035W        W28166  11.496   2.686  10.947 -0.0128  0.0151  0.1071
13036W        W28167  14.765   9.007  12.673 -0.1213  0.1532 -0.0574
13037W        W28168  12.066   1.848  13.199 -0.0259  0.1588 -0.3810
13038W        W28169  17.851  10.442  14.016 -0.1158  0.0686 -0.2053
13039W        W28170   5.059  10.026  13.390  0.3965  0.1358  0.2315
13040W        W28171   9.455   8.047   1.886  0.0017  0.1902 -0.2408
13041W        W28172  17.538   7.816   4.285 -0.3321  0.0386  0.0907
13042W        W28173   6.819  12.637  15.568 -0.0439 -0.0608 -0.0543
13043W        W28174  13.976  16.281  13.892  0.2337 -0.2075  0.3621
13044W        W28175   5.814  16.673   2.696  0.0346  0.3114 -0.0971
13045W        W28176   4.345  13.418  14.122  0.2035  0.1004  0.0310
13046W        W28177  16.230   7.702   4.919  0.1620  0.0126 -0.0317
13047W        W28178  16.690  10.329   1.345 -0.0472 -0.2241  0.0767
13048W        W28179  11.482   8.857   3.032  0.0114  0.0854 -0.0374
13049W        W28180  16.524   4.470  16.185  0.2645 -0.1062 -0.1152
13050W        W28181   8.210   8.533  14.806  0.2276 -0.2260  0.1388
13051W        W28182  13.501  16.684   2.403  0.0075 -0.1681 -0.2184
13052W        W28183   4.683  13.154  11.190 -0.1422 -0.0230  0.1318
13053W        W28184   9.752   8.016   1.466 -0.0614 -0.1190 -0.0091
13054W        W28185   4.203   2.480   1.076 -0.0436  0.1422  0.5220
13055W        W28186  15.947  17.841   0.505 -0.0206 -0.1901  0.0592
13056W        W28187   0.102   2.665   4.405  0.0129  0.3419 -0.0145
13057W        W28188   9.782   0.984  14.031 -0.3862 -0.1349  0.2802
13058W        W28189   8.116  12.499  16.322 -0.2333 -0.2082  0.1166
13059W        W28190  12.572  10.151  14.689  0.0769  0.2717  0.4181
13060W        W28191  11.210  15.388   0.811  0.0444  0.0320 -0.0282
13061W        W28192   3.956   9.922   3.551  0.2699  0.1491 -0.0492
13062W        W28193  13.010   9.657  11.921 -0.1686  0.0003  0.1088
13063W        W28194   6.818  13.331   3.968  0.0729  0.1251  0.2006
13064W        W28195   5.466  15.568  14.764 -0.2405  0.0580  0.0856
13065W        W28196   6.569   5.873  15.387 -0.1960  0.2219 -0.0825
13066W        W28197   6.245   0.662   3.423  0.2163  0.0824 -0.0831
13067W        W28198   0.455   4.144   0.100  0.0240  0.0358 -0.0076
13068W        W28199   5.936   8.903  15.991  0.0723  0.3794 -0.2977
13069W        W28200  15.421   4.252   0.049 -0.3487  0.1463 -0.0683
13070W        W28201   0.207   0.824  12.839 -0.1367  0.1904 -0.0917
13071W        W28202  16.138   3.159  11.444  0.0106  0.2211  0.1147
13072W        W28203  16.994  17.096  15.276 -0.0225 -0.3068  0.0201
13073W        W28204   6.514   5.874   4.524  0.1734 -0.1576 -0.0366
13074W        W28205   9.690  14.898   0.073 -0.0531 -0.0725 -0.1020
13075W        W28206   5.648   2.864   1.232 -0.0235 -0.1732 -0.3870
13076W        W28207   8.358   3.930   1.468 -0.5080 -0.2257 -0.0502
13077W        W28208   1.943  11.010  13.267 -0.2700  0.2183 -0.1896
13078W        W28209  12.358   3.677   2.987 -0.1742 -0.0375 -0.3995
13079W        W28210   5.993   3.703   5.980  0.1569  0.4288  0.1242
13080W        W28211   7.025   5.789   1.977  0.3392 -0.0582  0.1621
13081W        W28212   9.872  16.193  10.983 -0.4392 -0.0527  0.3695
13082W        W28213   4.410   0.565   3.627  0.1504  0.0981  0.1668
13083W        W28214   2.988   8.322   2.936 -0.0820  0.1112  0.0288
13084W        W28215   6.663   2.745  11.516  0.0667 -0.1067 -0.0745
13085W        W28216   0.000  12.161   5.029 -0.0141  0.0844  0.2502
13086W        W28217  14.372   8.792   0.902 -0.1649  0.0089 -0.2135
13087W        W28218  16.424  14.915  15.946  0.0514  0.0506  0.0933
13088W        W28219   9.814   3.184  11.243 -0.1391  0.0312  0.1269
13089W        W28220  13.411  12.415   1.684 -0.1170 -0.0546  0.3014
13090W        W28221  13.116   1.702   0.338  0.0941  0.1879  0.1812
13091W        W28222  11.072   9.329  12.501  0.0624  0.0852  0.1377
13092W        W28223  16.210  10.354   0.551 -0.2219  0.1751  0.1230
13093W        W28224   0.299   7.038  14.521 -0.0700  0.0241  0.2701
13094W        W28225  10.862  15.901  11.884 -0.2255 -0.1031  0.0034
13095W        W28226   8.313   9.483  12.624 -0.0789  0.0080  0.2234
13096W        W28227   7.461  14.985   0.208 -0.1771  0.1463 -0.0028
13097W        W28228  15.416  14.198  13.930  0.0075 -0.0034 -0.3009
13098W        W28229   0.173   9.288  15.375  0.0744 -0.0855  0.0029
13099W        W28230   4.183   0.916   2.345  0.0217 -0.0560  0.0087
13100W        W28231  17.163  13.860   3.874 -0.2206 -0.1691  0.0986
13101W        W28232  15.920   9.403  15.609 -0.2500 -0.1236  0.0900
13102W        W28233  15.258  15.554  12.932 -0.0885 -0.5282  0.0840
13103W        W28234  17.774   9.180  14.384 -0.0769 -0.3343 -0.0311
13104W        W28235  12.562   7.288  16.335 -0.0234 -0.0055  0.0772
13105W        W28236  16.039  16.315   3.814  0.1948  0.2887 -0.4517
13106W        W28237  17.640   5.603   3.057  0.0030  0.2233 -0.2174
13107W        W28238   7.524   7.627   5.074 -0.0059 -0.0157 -0.1045
13108W        W28239   0.568   8.150   5.808  0.0619  0.0207 -0.1399
13109W        W28240   0.607  12.860   6.134  0.2021  0.0556  0.1122
13110W        W28241   2.712  10.089  15.105 -0.1963  0.3226 -0.2260
13111W        W28242  13.703   8.693  14.839 -0.1549 -0.2171 -0.0217
13112W        W28243   6.993  16.812  14.764  0.0813  0.0011  0.2863
13113W        W28244   3.393   5.078   4.290 -0.1288 -0.1259  0.1177
13114W        W28245   0.017   9.241  12.697  0.0301 -0.2233 -0.1025
13115W        W28246  16.015  15.858  15.346 -0.1961  0.2479  0.0632
13116W        W28247   8.031  13.075   2.822 -0.2764  0.0010  0.0833
13117W        W28248   8.351  15.920  12.475  0.0239  0.0297 -0.1502
13118W        W28249  12.804  16.927   0.468  0.3848 -0.0806  0.2892
13119W        W28250   1.227   5.872   0.145 -0.1898 -0.0161 -0.0277
13120W        W28251  16.737  11.604  16.311  0.0871  0.0055  0.0347
13121W        W28252  13.063   2.605  12.927 -0.3656 -0.0711  0.4203
13122W        W28253   7.505   6.503  14.201 -0.1636  0.1809 -0.0799
13123W        W28254   6.958   2.367   0.259  0.0399  0.2682 -0.2244
13124W        W28255   2.673   9.676   1.662  0.3013 -0.0621  0.0801
13125W        W28256   0.419   5.566   5.835  0.2431  0.0735 -0.0571
13126W        W28257  15.391   1.517   2.853  0.1494  0.1822  0.1494
13127W        W28258   5.290   8.720  14.264  0.1325  0.0631 -0.2918
13128W        W28259   7.176   6.509   2.821  0.1246  0.0629 -0.0142
13129W        W28260  17.727   2.728  15.448  0.3150  0.0193 -0.0727
13130W        W28261  11.037   6.144   4.573  0.0187 -0.1516 -0.0102
13131W        W28262  15.591  16.517  14.208 -0.2045 -0.0029  0.2295
13132W        W28263   3.134  11.541  10.356 -0.2782  0.1663  0.0728
13133W        W28264   1.980   1.747   3.319  0.0996 -0.1130  0.0946
13134W        W28265  10.866   3.255   1.911 -0.0210  0.1731  0.0601
13135W        W28266  15.205   9.848  11.773  0.2491  0.0501 -0.1606
13136W        W28267  10.063   3.577  14.809  0.1688  0.0902 -0.0611
13137W        W28268  10.279  11.032  14.051 -0.0871  0.1975 -0.2613
13138W        W28269   9.971   9.580   5.748  0.2716  0.2170  0.0424
13139W        W28270   8.358  14.492   0.496  0.0757  0.2360  0.1680
13140W        W28271  10.969   1.956   2.291 -0.2820  0.2911  0.0151
13141W        W28272   8.891  14.784   3.154  0.2152  0.0185  0.2272
13142W        W28273  10.180  12.227   0.236 -0.2306  0.1703 -0.1632
13143W        W28274   0.934  10.082   0.673 -0.0939 -0.3902  0.0321
13144W        W28275   1.905   3.722   3.346  0.2631 -0.0120  0.2141
13145W        W28276   2.417   6.217  15.815  0.0153 -0.3432 -0.0377
13146W        W28277   2.476  11.838   2.291  0.1089 -0.0828  0.1201
13147W        W28278   3.430  12.766  11.786 -0.0997 -0.4854 -0.5186
13148W        W28279  10.726   6.891  13.407  0.0269  0.0098  0.1812
13149W        W28280   4.322   3.283  11.835  0.1069  0.0974 -0.0079
13150W        W28281  15.406   8.495  15.690  0.1324  0.0411  0.1855
13151W        W28282   8.667   0.712  13.130  0.2232 -0.0626  0.0976
13152W        W28283  13.539   9.291  13.139  0.1280 -0.0716  0.3235
13153W        W28284   7.179  10.320  14.877 -0.0816  0.0607 -0.0593
13154W        W28285  17.618  10.449  11.678 -0.0578  0.1235 -0.0523
13155W        W28286  18.029   7.832  12.593  0.1192 -0.0300  0.0256
13156W        W28287   5.378   3.365  15.535  0.3027 -0.0942  0.2201
13157W        W28288   1.027   0.145  11.077 -0.0438 -0.0255  0.0565
13158W        W28289  14.142   5.635   0.995 -0.0764 -0.0577  0.0624
13159W        W28290  15.217  12.272  11.790  0.1227 -0.1261  0.0261
13160W        W28291  17.928   4.150   0.889  0.0148 -0.2252 -0.3243
13161W        W28292   3.905  17.153   3.171  0.2800 -0.4416  0.1304
13162W        W28293  10.619   0.986   0.309 -0.1233 -0.0227  0.0836
13163W        W28294   9.553  15.986   0.114  0.3297 -0.1365  0.3241
13164W        W28295  16.368  14.813   2.773  0.0406  0.3489  0.2576
13165W        W28296   7.178  11.555   5.592 -0.2110  0.0436 -0.1335
13166W        W28297   4.116   9.280   1.416  0.1211  0.1580 -0.2084
13167W        W28298   6.323  14.657   2.502  0.2963  0.0026 -0.0486
13168W        W28299   3.818  16.614  14.028  0.0650  0.0157  0.5413
13169W        W28300  11.473  13.022   1.335  0.0834 -0.0219  0.1296
13170W        W28301   7.110   2.701  14.120 -0.0545  0.3235  0.3231
13171W        W28302  16.098   2.144  15.969 -0.0892 -0.2226  0.2402
13172W        W28303   5.237   2.527   2.724  0.0794  0.1670  0.1713
13173W        W28304   5.091   3.408   3.850 -0.0723  0.2673 -0.0461
13174W        W28305   6.980   2.191   4.951 -0.0021  0.1575 -0.1748
13175W        W28306  13.271   9.251  10.599  0.5032 -0.0197  0.3640
13176W        W28307  15.283   2.585  15.545  0.2292  0.0821 -0.0253
13177W        W28308   8.400  10.729  16.409 -0.1670 -0.0164 -0.1828
13178W        W28309  14.353  13.424  11.634 -0.2070 -0.1519 -0.1658
13179W        W28310   6.431   8.053  10.035  0.0647 -0.0651  0.2521
13180W        W28311  14.243  12.585   3.558 -0.4304 -0.0475  0.0360
13181W        W28312   0.923   2.744  13.447 -0.2182 -0.0935  0.0720
13182W        W28313   9.899  15.519  10.800 -0.0927  0.0749 -0.0697
13183W        W28314   4.204  13.025  15.516 -0.1071 -0.2051  0.0670
13184W        W28315  16.203   6.493  14.712  0.2197 -0.0053 -0.0306
13185W        W28316   8.211  15.062  14.891 -0.0960  0.0185  0.1254
13186W        W28317  17.847  17.590   3.231 -0.4492 -0.3332  0.1087
13187W        W28318   9.884  15.714   5.804  0.1058  0.0761  0.0620
13188W        W28319  17.832   0.747  12.644 -0.0191  0.1725 -0.2006
13189W        W28320   8.427  17.270   5.665 -0.1340 -0.0292  0.2446
13190W        W28321   9.884   6.333  15.473 -0.0243 -0.0489  0.0884
13191W        W28322   5.064   8.265   2.870  0.0172 -0.1640  0.1551
13192W        W28323  15.674   6.730  11.506 -0.1116 -0.0206  0.3060
13193W        W28324   4.599   0.658  16.054  0.1379 -0.1455  0.3022
13194W        W28325   2.332   4.785   5.129  0.3553 -0.0374  0.2126
13195W        W28326  10.570   4.035   2.482  0.3015  0.4224 -0.2971
13196W        W28327  10.651   3.981   3.834 -0.2704  0.0264 -0.1204
13197W        W28328   8.006   3.554   2.577 -0.0989 -0.0355  0.1807
13198W        W28329   1.440  11.823  13.223 -0.0779  0.0202  0.0145
13199W        W28330   1.877  15.144   1.505 -0.0339  0.0901  0.3000
13200W        W28331  10.743  12.749   0.826  0.0767 -0.0746  0.0551
13201W        W28332  14.150  15.796  15.978 -0.0828  0.3529 -0.3198
13202W        W28333  13.514  14.183  12.681 -0.0972  0.2146 -0.2920
13203W        W28334  15.463   4.238   2.063 -0.0786  0.2334 -0.0428
13204W        W28335   1.741  10.494  13.488  0.0743 -0.6506 -0.0142
13205W        W28336  11.535   0.802  13.999  0.1423  0.2517 -0.4789
13206W        W28337  14.731   0.981   2.290  0.2031  0.0863 -0.2171
13207W        W28338  16.598   1.835   1.180 -0.0415 -0.1345 -0.2063
13208W        W28339  14.908   2.528   2.096 -0.2884 -0.0249  0.0659
13209W        W28340   9.670   5.978  14.162 -0.2613 -0.4034 -0.0354
13210W        W28341   8.220  15.551  15.772 -0.1891 -0.1360 -0.1073
13211W        W28342  16.716   8.312   1.532  0.0191 -0.0088 -0.1771
13212W        W28343  16.950   7.149   0.787  0.1133  0.0743 -0.0294
13213W        W28344  16.265   9.844  12.775 -0.1628  0.0548 -0.1498
13214W        W28345   5.196  13.932  16.357 -0.1087  0.0302  0.0828
13215W        W28346  15.075  13.269   4.507  0.2649  0.0734  0.1912
13216W        W28347   4.238   6.767  16.128 -0.0419 -0.1310 -0.2189
13217W        W28348  14.573   3.111  13.358  0.1847  0.1907 -0.1635
13218W        W28349   9.751  15.419   0.420 -0.0420 -0.2565  0.0411
13219W        W28350  17.449   4.955  16.211  0.0264 -0.3132  0.2298
13220W        W28351  11.107  15.681   4.362  0.2702  0.0834  0.3515
13221W        W28352   7.440   2.198   4.715  0.3826  0.1559 -0.0867
13222W        W28353  13.256   4.266   0.405  0.0738 -0.3568 -0.3177
13223W        W28354   5.488   8.859   3.544  0.0613  0.3012  0.0456
13224W        W28355   6.987   0.881  14.778 -0.1688 -0.3740 -0.0844
13225W        W28356   9.907   7.386   2.956  0.0067  0.2814  0.0877
13226W        W28357   8.184   9.232  10.560  0.1306 -0.0885  0.3590
13227W        W28358   8.423   7.497   9.948 -0.1518 -0.0752  0.2075
13228W        W28359   0.648   3.254   5.064 -0.2587 -0.1908 -0.0153
13229W        W28360  14.037  12.534  10.752 -0.1940  0.0427  0.2238
13230W        W28361   4.713   2.400   0.732  0.0134 -0.0429 -0.4557
13231W        W28362  17.155  12.081   1.426 -0.0614  0.2012 -0.0909
13232W        W28363  15.227  14.343   5.341 -0.0103  0.1919  0.1098
13233W        W28364   0.677   7.618   2.137  0.0481  0.0283  0.1462
13234W        W28365  11.130   0.142   1.395 -0.0345  0.0757 -0.2684
13235W        W28366  15.938   5.261  11.919 -0.3955 -0.3374  0.0339
13236W        W28367   8.635  15.503  12.375  0.0011  0.0179  0.1171
13237W        W28368  13.529   7.976   3.638 -0.2126  0.0639 -0.1556
13238W        W28369  18.002   5.292   1.997 -0.1272 -0.1022 -0.0546
13239W        W28370   0.820  13.720  14.466 -0.1148  0.1728 -0.1694
13240W        W28371   9.328   9.166   2.640 -0.1845  0.0984 -0.0318
13241W        W28372   3.421   3.605  13.262 -0.0641  0.2308  0.0635
13242W        W28373   2.363  14.325  13.474  0.3583  0.0126  0.1325
13243W        W28374  13.433   3.893   3.635 -0.3221 -0.0060 -0.3541
13244W        W28375   7.664   0.574   3.605 -0.0064 -0.3017 -0.0816
13245W        W28376  11.016   8.608  14.292  0.4030  0.0162 -0.3294
13246W        W28377   0.785   6.876   5.153  0.3156  0.0054 -0.2495
13247W        W28378   0.176  15.471  12.948  0.2366 -0.4969 -0.2568
13248W        W28379  12.958   6.220   1.550  0.2064  0.0489 -0.3932
13249W        W28380   8.278   7.119   0.753 -0.1332 -0.3127  0.1830
13250W        W28381  12.322  14.735  11.996  0.1274  0.1922 -0.0177
13251W        W28382   6.609   3.602  12.213 -0.0394 -0.0009  0.0798
13252W        W28383  17.723   9.337   2.450 -0.3574  0.0687 -0.0519
13253W        W28384   9.080  15.011  12.380 -0.1626  0.1661 -0.0165
13254W        W28385  11.350   2.204  11.277  0.2808  0.0605 -0.0426
13255W        W28386  12.125  14.227  13.659  0.0138 -0.2323  0.1738
13256W        W28387  12.252   3.600  11.814 -0.0956 -0.0494 -0.0516
13257W        W28388   3.196  10.342   4.736 -0.0795  0.1418  0.4371
13258W        W28389   0.026   4.649   4.969 -0.2655 -0.0426 -0.0483
13259W        W28390  12.089  15.439  14.888  0.0141  0.2575  0.3300
13260W        W28391   1.103   7.492   2.265  0.1978 -0.0362  0.2452
13261W        W28392  12.687  13.050   6.829 -0.3223  0.1450 -0.1296
13262W        W28393   5.471   8.936  15.023 -0.2137  0.0185 -0.1134
13263W        W28394   1.542   2.773   3.473 -0.0371 -0.0384  0.0269
13264W        W28395  15.813  15.943  14.472 -0.1025  0.0760  0.0996
13265W        W28396   6.796   4.147   2.463  0.0480 -0.1482 -0.1507
13266W        W28397  15.345   3.590  12.066  0.0451 -0.0896  0.0227
13267W        W28398  16.401  12.706   4.737 -0.2282  0.0164 -0.2530
13268W        W28399  16.879   8.280  15.920 -0.1133 -0.2295 -0.0416
13269W        W28400   6.898  15.221  13.800 -0.0799  0.2646  0.2196
13270W        W28401   6.517   2.189   0.120 -0.0625 -0.1268 -0.2451
13271W        W28402  11.641  17.509  16.392 -0.1706 -0.0297  0.5274
13272W        W28403  15.334   9.737  14.327 -0.0510 -0.0503  0.2532
13273W        W28404   7.635  16.058   2.975  0.0553 -0.2888  0.0420
13274W        W28405  13.971  17.960  12.076 -0.0652  0.1142 -0.0754
13275W        W28406   9.385  13.561  15.554 -0.4527  0.1472 -0.2107
13276W        W28407   8.895   8.202  13.152  0.0082 -0.0576  0.5334
13277W        W28408   2.507  17.626   4.385  0.2758 -0.0081 -0.1082
13278W        W28409  10.268  16.554  14.845 -0.0790 -0.0275  0.1464
13279W        W28410  13.664  17.705   1.547 -0.1199 -0.0470  0.0139
13280W        W28411   3.050   0.626   5.325  0.1700  0.1036 -0.0934
13281W        W28412  13.453  12.279  12.784  0.0681  0.0228 -0.2259
13282W        W28413   2.792  12.805  15.192  0.2093  0.3525 -0.0713
13283W        W28414   3.781   6.454   4.279 -0.0208  0.2902 -0.4074
13284W        W28415   7.376  15.495  10.388 -0.0525 -0.0501  0.0397
13285W        W28416   1.761  15.537   4.845  0.0412 -0.0995  0.1993
13286W        W28417   6.019   3.370  13.646 -0.0272  0.1138 -0.2557
13287W        W28418   9.823   0.757   4.596 -0.0238  0.1556  0.2038
13288W        W28419   4.764  14.652  13.527 -0.1484  0.2639  0.1074
13289W        W28420   9.384   3.028  15.883 -0.1060 -0.1891  0.0235
13290W        W28421  14.919  16.236   2.826 -0.0312  0.1049 -0.0466
13291W        W28422   2.424  16.184  10.627 -0.1389  0.0036 -0.2893
13292W        W28423  12.041   5.113   4.645  0.0133  0.3291  0.1422
13293W        W28424   1.280  14.803   2.493 -0.1212  0.2787  0.0731
13294W        W28425  13.425   9.190   2.063  0.0424  0.0075  0.2797
13295W        W28426   3.391  12.798  14.773 -0.0177  0.2286  0.1782
13296W        W28427  10.919  16.605   1.631 -0.0625  0.1773 -0.1986
13297W        W28428  11.858   9.084   1.187 -0.1927 -0.3226 -0.0133
13298W        W28429   3.045  14.092   3.965 -0.2728 -0.1053  0.4232
13299W        W28430   6.649   8.507  12.580 -0.0464  0.2459  0.1739
13300W        W28431   9.731   6.520  15.889  0.2773  0.3011 -0.0874
13301W        W28432  14.256  10.996  11.349 -0.0161 -0.0214  0.3407
13302W        W28433  13.612   0.929   1.088  0.0073  0.0119  0.4597
13303W        W28434  16.363  13.159  11.479 -0.2748  0.1653  0.1801
13304W        W28435  11.982   9.363   2.035 -0.0611 -0.1410  0.1586
13305W        W28436  13.753   4.539   4.364  0.0799  0.3719 -0.2221
13306W        W28437  13.407  17.740  14.473  0.1204  0.2055  0.0435
13307W        W28438   8.182  17.963   1.839  0.0777 -0.4399  0.1855
13308W        W28439  14.515  13.698  13.393 -0.1433  0.1783  0.0779
13309W        W28440   5.554  14.822  15.047 -0.2279 -0.0783 -0.0954
13310W        W28441  14.562  14.481   2.950 -0.0811  0.1351  0.2551
13311W        W28442   5.999   4.698  14.128 -0.2234 -0.1886 -0.0433
13312W        W28443   2.525   8.498   2.860 -0.0532 -0.1076  0.1923
13313W        W28444   4.575  16.407   5.071 -0.0175  0.3386 -0.3514
13314W        W28445   5.430  11.423  13.453 -0.1431 -0.1994 -0.1339
13315W        W28446   8.772   0.641  16.269 -0.1249 -0.3049 -0.1171
13316W        W28447  17.733  16.145   0.191 -0.1414 -0.0010 -0.0628
13317W        W28448   5.954   9.293   2.686  0.3799  0.2733 -0.2388
13318W        W28449  17.588   1.544  13.707  0.2075  0.1664 -0.3413
13319W        W28450  14.481  12.593  15.441 -0.0649 -0.0377 -0.1220
13320W        W28451   2.160   8.774   5.801 -0.0441 -0.2479  0.1982
13321W        W28452   0.918  16.327  13.874  0.1064  0.0213  0.1602
13322W        W28453  13.988   9.773   6.573  0.1194  0.1821  0.1756
13323W        W28454   5.562  13.951   5.430  0.1640  0.2031 -0.0215
13324W        W28455  11.474  13.365  13.831  0.3721 -0.2241  0.1900
13325W        W28456  13.215  13.942  13.628 -0.0745  0.0871 -0.2507
13326W        W28457  12.767   5.287   5.590 -0.2857  0.3069 -0.0451
13327W        W28458   1.931   3.172   0.088 -0.2187  0.1025 -0.1182
13328W        W28459   5.961   2.622   2.990 -0.0673 -0.0899  0.2588
13329W        W28460  10.991  12.806   1.294  0.2136 -0.3613 -0.2223
13330W        W28461  16.963  15.223   2.687 -0.0897 -0.2078  0.0583
13331W        W28462  17.732   4.482  13.206  0.0576 -0.0002 -0.0211
13332W        W28463   7.104   3.546  15.217  0.2419 -0.1200 -0.3018
13333W        W28464   0.482   7.523   0.671  0.0613  0.0545 -0.3257
13334W        W28465  17.289   6.516  11.417  0.3688  0.0777  0.0083
13335W        W28466  17.522   7.882   2.489 -0.3143  0.1791  0.0046
13336W        W28467   3.637  13.608   2.186  0.0087  0.3651  0.1291
13337W        W28468  15.386   9.704   4.834 -0.0816 -0.1003  0.2094
13338W        W28469   7.420   3.076   5.334 -0.1098 -0.2958 -0.1837
13339W        W28470  15.713  16.308   0.105  0.3686 -0.0757  0.2978
13340W        W28471   6.356   0.153  15.306 -0.1072  0.1431 -0.0400
13341W        W28472   4.563   2.381  15.062  0.0893 -0.1056 -0.0486
13342W        W28473   1.802  12.257  11.142 -0.0118  0.0765 -0.1379
13343W        W28474   4.208   9.064  15.116 -0.1149 -0.0416  0.0320
13344W        W28475   7.849   0.139   0.946 -0.0983 -0.1380  0.0665
13345W        W28476   2.257   4.903   5.689  0.0399  0.3028 -0.0379
13346W        W28477  14.535  15.415   5.225 -0.0146  0.1925  0.0347
13347W        W28478   9.826  12.048   0.619  0.1013  0.0548 -0.2431
13348W        W28479  13.502   1.146   2.891 -0.1861  0.1242  0.0226
13349W        W28480   8.965  17.836   1.431  0.3981  0.1224  0.2489
13350W        W28481   2.974  11.437   5.959 -0.2418 -0.0024 -0.0090
13351W        W28482  13.055   7.155  12.164  0.0534  0.2060  0.1665
13352W        W28483   9.538   9.346  12.120 -0.0567  0.1804 -0.1049
13353W        W28484  12.633  10.555  14.412  0.1924  0.1728  0.0594
13354W        W28485   8.367   9.594   2.053  0.0538  0.0372  0.1948
13355W        W28486  11.421   1.407  12.556  0.1644 -0.1525 -0.0277
13356W        W28487   3.913   2.520  14.196  0.3164  0.1012 -0.0187
13357W        W28488   3.259   0.214  15.626  0.0592 -0.0878  0.1084
13358W        W28489   2.932  14.618  14.929 -0.0346 -0.0439  0.3088
13359W        W28490   9.190  12.009  15.455  0.1074 -0.1467  0.0125
13360W        W28491  14.760  12.974  13.645  0.0092 -0.1119 -0.2628
13361W        W28492   1.677   4.813   3.978  0.2379 -0.2356 -0.0075
13362W        W28493  13.659   6.483  15.128  0.2671  0.1600  0.0537
13363W        W28494   7.156   7.122   5.622  0.2237  0.1312  0.4116
13364W        W28495  16.342   6.443  15.238  0.6045  0.0063  0.0931
13365W        W28496   4.742   5.276  15.995  0.4067  0.2055  0.2217
13366W        W28497   7.786   9.517   1.550  0.1235  0.1913 -0.2555
13367W        W28498  10.150   4.418   1.630 -0.2186 -0.1074 -0.2007
13368W        W28499   9.764  15.898   0.703 -0.1390 -0.1164 -0.4222
13369W        W28500  10.591  12.711  12.568 -0.4811  0.0861  0.3642
13370W        W28501   3.645  11.249   2.892 -0.0945  0.1118  0.0742
13371W        W28502   2.186   8.625  12.570  0.0636  0.0235 -0.1785
13372W        W28503   3.428   3.205   4.395 -0.0045 -0.2284  0.0618
13373W        W28504   9.225   0.731  13.834 -0.1670 -0.0139  0.2818
13374W        W28505   9.164   4.822  14.099  0.2206 -0.2817 -0.1082
13375W        W28506   4.889  10.491  12.686 -0.1485 -0.0558 -0.0844
13376W        W28507   0.897  16.363  11.696  0.0277  0.1163  0.2303
13377W        W28508   7.034  17.885  13.915 -0.1222 -0.2806  0.2493
13378W        W28509   5.039   2.808   3.300  0.0003  0.1875  0.2655
13379W        W28510   6.765   1.749  14.235 -0.2431  0.1582 -0.1233
13380W        W28511   8.127  11.690  11.989  0.0700 -0.0670  0.1100
13381W        W28512   3.349   9.288   1.893 -0.1762 -0.0768  0.0045
13382W        W28513  17.423  12.262  13.443  0.3443  0.0870 -0.1254
13383W        W28514   2.585  14.236  11.098 -0.3670  0.1965  0.4188
13384W        W28515  15.221  16.361   0.315  0.2977  0.0628 -0.2677
13385W        W28516   4.633  16.613  13.531 -0.0111  0.0588 -0.0624
13386W        W28517   7.010  15.592  13.412 -0.0161 -0.0953 -0.3153
13387W        W28518  10.488  11.884   0.595  0.1824  0.0312  0.0279
13388W        W28519   5.980  14.698  11.522 -0.1137  0.0219 -0.1553
13389W        W28520   8.576  11.158  16.282 -0.2653 -0.0975  0.1743
13390W        W28521  13.461  10.909  15.621 -0.3222  0.1459  0.0032
13391W        W28522   3.005   5.030   2.553 -0.1317  0.0535 -0.5282
13392W        W28523   9.623  15.248   4.743 -0.0536  0.0316  0.1424
13393W        W28524   9.540  18.018   2.296 -0.0812 -0.1939 -0.0520
13394W        W28525   2.726  11.832  15.461  0.1171  0.2798 -0.1183
13395W        W28526   8.683   3.204  11.443  0.0710  0.0508 -0.1656
13396W        W28527  10.543   1.685   5.421  0.1592  0.0223  0.0541
13397W        W28528   0.194   2.900   0.630  0.1569 -0.4786  0.2842
13398W        W28529   2.658  17.745  15.456 -0.1049  0.0972 -0.1602
13399W        W28530  13.736  11.491   1.128 -0.0301 -0.4124 -0.2298
13400W        W28531  17.310  10.468  15.551 -0.3131 -0.0457  0.2278
13401W        W28532  12.094   7.428  14.495 -0.0234 -0.2916  0.0395
13402W        W28533   5.092   8.611  10.281  0.1620 -0.2981 -0.1894
13403W        W28534  10.720   9.749   2.454  0.0061 -0.1596  0.1365
13404W        W28535   6.447   0.985   2.528  0.0263 -0.2598  0.1575
13405W        W28536   7.710  15.612  10.797 -0.2390  0.2359  0.0078
13406W        W28537  17.468   0.888   1.442  0.1360  0.2296 -0.0986
13407W        W28538  15.866  17.133  16.408  0.2562 -0.4108  0.1277
13408W        W28539   5.044  13.836   2.305 -0.0774 -0.2691 -0.0100
13409W        W28540   4.561   7.028  12.413 -0.0425 -0.2078  0.1688
13410W        W28541   4.840   4.463  12.904  0.1003 -0.1874  0.3247
13411W        W28542  14.816   4.720  11.357 -0.1239  0.1632 -0.3435
13412W        W28543   6.908  16.480  12.732 -0.1209  0.2312  0.0093
13413W        W28544   0.729   1.115   2.055  0.2676  0.2829 -0.0644
13414W        W28545  12.414   9.307   4.215  0.0864  0.2184 -0.2226
13415W        W28546   8.678  17.414   2.344  0.2444 -0.0626 -0.0127
13416W        W28547  13.483   2.422  15.296  0.0368  0.1118 -0.1667
13417W        W28548  11.616  13.167  16.044 -0.0640  0.3002  0.1921
13418W        W28549  11.302  14.912   1.107  0.1526 -0.0734  0.2914
13419W        W28550   1.353  15.367   5.825 -0.0610  0.1108 -0.3377
13420W        W28551   4.788   2.882   1.546 -0.3533  0.4416 -0.2947
13421W        W28552   6.706  10.948   2.845 -0.0667 -0.0430  0.2607
13422W        W28553   6.809   5.101   5.117 -0.1795  0.1452  0.1642
13423W        W28554   8.046   1.810  11.393 -0.2748  0.1930 -0.4116
13424W        W28555  12.104   3.149   2.848  0.2468 -0.2090 -0.1141
13425W        W28556   5.294   3.599  14.874 -0.0753 -0.3133 -0.2255
13426W        W28557   6.725   7.739  14.591  0.0810  0.1178  0.0749
13427W        W28558   8.126   6.792   5.792  0.1085 -0.0187 -0.0712
13428W        W28559   3.367   2.867  15.873  0.0576 -0.4776  0.0221
13429W        W28560  11.584  10.087   5.162 -0.2999  0.1340 -0.0172
13430W        W28561  16.199  11.730   1.213  0.0498  0.1734 -0.3415
13431W        W28562   9.192   4.802  12.305 -0.0724  0.0917  0.3595
13432W        W28563   4.609   7.910  12.392  0.0604 -0.3483  0.1783
13433W        W28564  16.552   4.104  14.423  0.4154 -0.4311  0.1523
13434W        W28565  16.277   0.343   3.600 -0.0109  0.0793 -0.2295
13435W        W28566  13.835   6.621   1.489  0.0212 -0.1948  0.1277
13436W        W28567  11.658  16.730  11.245  0.2885 -0.0168 -0.0677
13437W        W28568  13.579   7.246  10.240 -0.1845 -0.0682  0.0570
13438W        W28569  17.475   2.466   0.384  0.0040 -0.2521  0.0599
13439W        W28570   5.607  17.230  15.889  0.0814 -0.0300  0.3998
13440W        W28571  11.713  14.440   0.016  0.2047 -0.4544  0.1100
13441W        W28572   0.859  13.680   1.866  0.3372 -0.1193  0.0868
13442W        W28573   3.105  13.558  10.316 -0.1652  0.1430  0.1540
13443W        W28574   4.600   5.310   5.304  0.0046  0.0241 -0.0607
13444W        W28575   0.914   7.978  15.549  0.0401 -0.1663  0.0389
13445W        W28576  17.185   2.337   4.477  0.0806  0.0343  0.2613
13446W        W28577  14.484   0.756  13.942  0.1374  0.1014 -0.0864
13447W        W28578   9.954   0.564   0.646 -0.1335  0.3804  0.0692
13448W        W28579   4.918  14.806  15.642  0.0514  0.1252 -0.2621
13449W        W28580   0.775   5.836  11.821  0.0461  0.1099  0.1803
13450W        W28581  11.695  14.480  14.874 -0.2084  0.1154 -0.3010
13451W        W28582   0.221   3.594  14.431 -0.0536  0.2353  0.1003
13452W        W28583  16.680  12.602   0.292 -0.1935 -0.0726 -0.1660
13453W        W28584   9.927  15.303   5.238  0.1299  0.2233  0.1498
13454W        W28585  16.238   8.609   2.541  0.1152  0.1604 -0.1118
13455W        W28586  13.661   7.645   1.272  0.2394 -0.1346  0.0406
13456W        W28587   7.791  15.666   3.534  0.1184  0.2836  0.0454
13457W        W28588  18.033   4.642  16.163  0.2428  0.0507 -0.1235
13458W        W28589  12.049  12.470  12.172  0.0167  0.2798 -0.2145
13459W        W28590   9.927  12.186   5.466 -0.1402 -0.2654 -0.3363
13460W        W28591  17.204  16.873   1.667  0.0677 -0.0213 -0.1125
13461W        W28592  10.254  10.687   5.095  0.5274  0.3536  0.1595
13462W        W28593  14.663   1.684  11.971 -0.1372 -0.0321 -0.0240
13463W        W28594   7.820  11.924  14.668 -0.2465 -0.2769  0.2289
13464W        W28595   9.937   0.559   4.128 -0.1485 -0.0434 -0.2951
13465W        W28596   9.689  11.008  11.698  0.2591 -0.1579 -0.0804
13466W        W28597  13.861   0.185  12.476 -0.2014 -0.0871  0.0576
13467W        W28598  15.851   3.574   3.554 -0.1270  0.1721 -0.1410
13468W        W28599  12.760   2.181   0.752  0.2805 -0.1874  0.1843
13469W        W28600  12.449  13.412  15.643  0.1036  0.1451 -0.0538
13470W        W28601   6.698   9.881   2.554  0.0543  0.0183 -0.0123
13471W        W28602  10.802   1.691   5.912 -0.0493  0.1344  0.0190
13472W        W28603  14.293   7.360  15.054 -0.1718 -0.2075 -0.3628
13473W        W28604   9.344  16.631  13.043 -0.1935  0.1594 -0.0355
13474W        W28605  16.278   4.526   4.517 -0.1726  0.1110  0.1090
13475W        W28606   8.040  15.862  11.540 -0.0658 -0.3609 -0.0506
13476W        W28607  15.198   3.365   0.264  0.0059 -0.1214 -0.2663
13477W        W28608   0.532  16.923  15.583 -0.1654 -0.0107 -0.1133
13478W        W28609   3.396   9.133  11.825  0.3794 -0.0585 -0.2548
13479W        W28610   9.630   3.425  11.624  0.1207  0.2213 -0.1209
13480W        W28611  10.146   7.492  11.267  0.1997 -0.1049  0.4376
13481W        W28612   1.064  11.352  15.611 -0.1688  0.2429  0.1597
13482W        W28613  14.563  15.145  14.435 -0.2405  0.0487  0.1055
13483W        W28614  11.217   9.095   0.493 -0.0033  0.0809  0.2085
13484W        W28615   3.394  18.016  13.354  0.1903  0.1580 -0.1766
13485W        W28616  10.953   2.972  13.270  0.1787 -0.1694 -0.2911
13486W        W28617   7.899  13.001   1.940 -0.4493  0.1562 -0.1840
13487W        W28618  15.140   0.162  12.248 -0.4012  0.0148  0.1228
13488W        W28619   9.070   4.106  11.411  0.0878  0.1046 -0.3205
13489W        W28620   9.173   2.081  16.224 -0.0078  0.2103 -0.0482
13490W        W28621  11.746  10.335   3.736 -0.1508 -0.0201 -0.3130
13491W        W28622   1.673  12.799   4.253  0.2386 -0.0687 -0.1904
13492W        W28623   3.500  13.486   1.738  0.1792  0.4054  0.0303
13493W        W28624   8.134   8.874  15.774 -0.3063  0.0851 -0.0589
13494W        W28625  11.407  12.414   5.471  0.2036  0.0879  0.3268
13495W        W28626   2.220  12.566  14.491 -0.0228 -0.0829 -0.1195
13496W        W28627  15.662   4.977  13.763 -0.1841  0.0504  0.4032
13497W        W28628  12.618   3.123   3.767 -0.1771 -0.0540 -0.3521
13498W        W28629   3.276   8.189   2.485  0.1591  0.0793  0.0078
13499W        W28630   5.192   7.641   1.167  0.2104  0.0255 -0.1482
13500W        W28631   7.623  12.674  13.847 -0.0149  0.1177  0.1013
13501W        W28632  12.494  15.817   1.878  0.0001  0.2463  0.0657
13502W        W28633  12.428   4.275   4.360 -0.0833 -0.0205 -0.0018
13503W        W28634   0.880   7.006  14.545  0.1776  0.0681 -0.0732
13504W        W28635  16.327   7.976  10.455 -0.0156  0.3187  0.0985
13505W        W28636  11.973   1.141  14.411  0.1152 -0.2134  0.1294
13506W        W28637  12.938  13.291  15.949  0.0941  0.0193 -0.3173
13507W        W28638  15.920  10.975   4.521 -0.1366 -0.0155  0.2086
13508W        W28639  11.266  10.908  14.061 -0.1992 -0.3416 -0.0250
13509W        W28640   6.539  10.845   5.404 -0.0578  0.1726 -0.0961
13510W        W28641   3.650   0.291  15.166 -0.1655 -0.2092 -0.2746
13511W        W28642  15.007   7.606   2.833 -0.2199  0.0862 -0.0289
13512W        W28643   8.968  15.695   3.452 -0.0222 -0.1545 -0.1246
13513W        W28644  13.001  13.677  12.953  0.1918 -0.1247 -0.1761
13514W        W28645   1.601   0.636  10.783  0.2492  0.1168 -0.0557
13515W        W28646   3.609  12.351  12.708  0.0894  0.0447  0.0402
13516W        W28647  13.820   7.113   0.704 -0.0362  0.3033  0.1057
13517W        W28648   1.286   6.278  14.632 -0.2880  0.0245 -0.1754
13518W        W28649  14.350  12.829  14.940 -0.0253  0.2157  0.0170
13519W        W28650   4.992  15.797  14.893  0.2558  0.2035  0.0019
13520W        W28651   8.525   9.496   0.048  0.0820  0.1410  0.1563
13521W        W28652   5.579   1.193  14.663  0.2538  0.0216 -0.1049
13522W        W28653   8.722   7.127   0.445 -0.2775  0.3452  0.2472
13523W        W28654  17.324  13.386   1.296  0.0943 -0.3454 -0.1925
13524W        W28655  10.559  12.793  15.838 -0.2340  0.0229  0.0294
13525W        W28656   8.696   5.221   1.884  0.4040 -0.1794  0.3241
13526W        W28657   4.778  14.311   3.213 -0.0395  0.1477 -0.0359
13527W        W28658   9.008   9.190   0.792  0.2368  0.1607  0.1983
13528W        W28659   7.421   0.065  13.660 -0.3807 -0.0762 -0.0255
13529W        W28660   1.139  15.622   3.681  0.0904 -0.0070  0.1011
13530W        W28661   9.490  16.313   0.466 -0.0134 -0.2830 -0.0155
13531W        W28662   0.131  16.251   2.871 -0.1140  0.2905 -0.1140
13532W        W28663  14.132  15.369   5.500  0.0379  0.0038 -0.0250
13533W        W28664  14.032  10.313   3.705  0.3436 -0.3659 -0.1436
13534W        W28665   3.736   6.033  16.088  0.2546  0.1449  0.0172
13535W        W28666   7.487   8.287  12.986  0.1445  0.0184  0.0693
13536W        W28667   7.533  13.666  13.797  0.0858  0.1018 -0.2379
13537W        W28668  16.067   7.102   1.208 -0.0255 -0.1301  0.1927
13538W        W28669   6.197  11.124  14.335  0.3266 -0.0947 -0.1141
13539W        W28670  17.705  12.695   2.754  0.0405  0.1097 -0.4976
13540W        W28671   5.382   8.045  10.324 -0.0028  0.0536  0.0630
13541W        W28672   9.249  15.963   0.780 -0.0900 -0.0845  0.0437
13542W        W28673   1.521   6.954   5.501 -0.1506 -0.1343 -0.3222
13543W        W28674  14.873   9.810  14.285 -0.0020  0.0314  0.2058
13544W        W28675   5.210   1.541   4.426  0.1679 -0.0180 -0.0573
13545W        W28676   8.545  14.686  15.957  0.3318  0.1492 -0.0599
13546W        W28677  14.432   7.443   1.892  0.0666  0.0828  0.1138
13547W        W28678   1.463  17.201  13.676  0.0542  0.2049 -0.2126
13548W        W28679   5.889  16.533   3.327  0.2356  0.1934 -0.3872
13549W        W28680   5.245  12.514  13.458 -0.1565 -0.0350 -0.0218
13550W        W28681   4.865  14.264   5.350 -0.0763  0.2132 -0.1877
13551W        W28682   6.743   6.165  12.612  0.1681  0.2614 -0.0799
13552W        W28683  16.268  10.890   0.518 -0.2560  0.3317 -0.0263
13553W        W28684  17.990   6.895  14.324 -0.1999  0.2134  0.2569
13554W        W28685  10.901   0.813  12.810  0.1766  0.0921  0.1941
13555W        W28686  14.080   8.354  11.947 -0.1088 -0.1425  0.0003
13556W        W28687  10.097  15.119   2.204 -0.3317  0.1376  0.1708
13557W        W28688  17.622   8.747  15.519 -0.1065 -0.0374  0.0064
13558W        W28689   6.848  16.879   4.397  0.2016 -0.0404 -0.1742
13559W        W28690   1.776   2.688  15.867 -0.1756  0.0900  0.3424
13560W        W28691  12.665   8.004   6.241 -0.2296  0.2768  0.3647
13561W        W28692   2.510   9.954   4.744  0.0489  0.0556 -0.0894
13562W        W28693  12.485  15.002  13.185 -0.1790  0.1153 -0.3470
13563W        W28694   5.481  11.083   1.154 -0.1548  0.2982  0.0769
13564W        W28695   5.174   9.093  15.911  0.1068  0.0229  0.0141
13565W        W28696   1.193   3.558   4.190  0.1666 -0.1592  0.2655
13566W        W28697   5.346   0.406  13.736  0.0691  0.0550  0.0629
13567W        W28698   0.618  16.476   1.986  0.1483  0.0912 -0.1835
13568W        W28699   3.808  12.719  10.872  0.1071 -0.0637  0.2171
13569W        W28700   3.971   7.605  11.777 -0.1043  0.2120 -0.0020
13570W        W28701   9.064  13.177   0.537 -0.0983 -0.1285 -0.1500
13571W        W28702  11.831   4.870   0.007 -0.1838 -0.0522  0.0439
13572W        W28703  10.985  11.331  11.680  0.1832  0.1400 -0.0661
13573W        W28704  14.393   6.548   4.184 -0.4918  0.0501 -0.0909
13574W        W28705   7.338   7.338  13.226 -0.2173 -0.1138  0.3003
13575W        W28706  14.432   0.587   0.359 -0.2531 -0.2094  0.2079
13576W        W28707  12.587  13.837  12.763  0.1014 -0.2439 -0.0156
13577W        W28708  10.781   3.507   0.747 -0.2189  0.1282  0.2912
13578W        W28709  10.754  10.374  10.661  0.0195  0.1483 -0.0081
13579W        W28710   1.231   8.639  12.330 -0.1491  0.0775 -0.1850
13580W        W28711  17.859  16.265  14.575  0.1570 -0.0102  0.2981
13581W        W28712   3.107   4.433   3.706 -0.1493 -0.3687 -0.0913
13582W        W28713  12.337  16.546   1.564  0.1181  0.1286  0.1895
13583W        W28714   9.342   3.714  12.169 -0.0704  0.0236  0.2205
13584W        W28715   9.846   3.367  15.286 -0.3427  0.0943 -0.0767
13585W        W28716   5.112  10.956  15.793 -0.0164  0.0595 -0.2719
13586W        W28717   2.893  17.144   0.744  0.1819  0.0954 -0.4691
13587W        W28718   2.576   7.888   2.839  0.3623  0.0012  0.1057
13588W        W28719   6.662  11.622   2.044  0.1576 -0.2032 -0.1242
13589W        W28720  10.640  14.454   2.448 -0.0197  0.1160  0.1476
13590W        W28721  13.211  13.610   0.714 -0.0269  0.0579  0.0801
13591W        W28722   6.197   2.030  13.380 -0.2117 -0.2495 -0.2215
13592W        W28723   6.236  13.860  12.036 -0.0724  0.0464 -0.1300
13593W        W28724   2.479  10.668  15.553 -0.3267 -0.2037  0.3249
13594W        W28725  18.016   9.027   6.425 -0.2800  0.0605 -0.2873
13595W        W28726   3.272   1.694  11.688 -0.1964 -0.4631 -0.0778
13596W        W28727   4.315   3.713  13.359  0.1187  0.0038  0.2397
13597W        W28728  16.364  10.834  14.624 -0.0387 -0.0439 -0.1003
13598W        W28729   4.835   7.480   2.480  0.1814  0.1431  0.2256
13599W        W28730   1.081   2.862  11.943  0.0633  0.0927  0.0600
13600W        W28731  13.044  13.225   3.200 -0.2573 -0.0216  0.1116
13601W        W28732  12.339   9.822  11.987 -0.1064  0.3922 -0.0178
13602W        W28733   5.738  14.362   1.785 -0.2268  0.0355  0.0267
13603W        W28734   6.648   4.822   2.952  0.0112 -0.0950 -0.2106
13604W        W28735   9.109   3.017  10.763  0.0949 -0.1251  0.0644
13605W        W28736  17.800  12.559   4.351  0.0832  0.0837 -0.1950
13606W        W28737  14.210   3.846  11.802 -0.0787  0.3581  0.0442
13607W        W28738   2.967  14.084  14.844  0.2777 -0.0111 -0.0322
13608W        W28739   6.994   9.284  14.382 -0.0219 -0.1580  0.2285
13609W        W28740   5.053  11.428  14.240  0.0221  0.1494  0.0649
13610W        W28741   4.184   1.841   2.102 -0.1989 -0.2454  0.3385
13611W        W28742   8.731  14.460   5.899 -0.0696 -0.2286 -0.2408
13612W        W28743  16.868   5.051   2.571  0.1284 -0.0656  0.2869
13613W        W28744   3.710  16.803  11.976 -0.0184 -0.1643  0.1378
13614W        W28745   7.010  17.105  16.081  0.1545 -0.5257  0.5432
13615W        W28746   6.904  11.976  16.391  0.0458 -0.0923  0.1342
13616W        W28747   8.104   6.159   1.929  0.1533  0.0430 -0.1922
13617W        W28748   8.357  11.786  12.478 -0.1633  0.3273  0.0712
13618W        W28749  12.651  16.631   3.638 -0.0909  0.0889  0.1477
13619W        W28750   5.189  14.304  11.334 -0.2013 -0.1039  0.1469
13620W        W28751  11.361   1.446  15.164 -0.2948 -0.0931 -0.2727
13621W        W28752   9.977   7.481   3.728  0.2881 -0.2181 -0.1939
13622W        W28753  11.848   7.021  15.267  0.1636  0.0176  0.0597
13623W        W28754   9.891   5.121  13.770 -0.0451 -0.1690 -0.0163
13624W        W28755   4.631   2.881  14.947 -0.0687  0.1441  0.1344
13625W        W28756   7.114   5.407  13.736  0.3235 -0.0394  0.1371
13626W        W28757  12.113  11.070  14.365 -0.0154 -0.1226 -0.0589
13627W        W28758  14.528   7.562   6.502  0.1146  0.0283  0.0654
13628W        W28759   0.493  14.258   5.535  0.0217 -0.0542  0.2174
13629W        W28760  11.896  12.707   5.292 -0.1148 -0.4034  0.1227
13630W        W28761  14.194  17.308   5.040  0.0300  0.0379 -0.1123
13631W        W28762   5.703  15.930   3.872  0.1239 -0.0328 -0.1227
13632W        W28763   3.575   8.784   0.135  0.0742  0.0334  0.0325
13633W        W28764  13.791   8.863  12.789  0.1205 -0.1739  0.0547
13634W        W28765   8.820  12.344  10.878  0.0463 -0.1674 -0.0184
13635W        W28766  13.486  10.828  14.536 -0.1845 -0.0304  0.0586
13636W        W28767   0.279  16.001   1.677  0.1592 -0.0018 -0.3134
13637W        W28768   5.173   9.150  11.007  0.2661  0.2205  0.1471
13638W        W28769   6.595   7.051   1.860 -0.0037 -0.1638  0.0516
13639W        W28770   9.912  15.804  14.946  0.0183  0.2320 -0.1949
13640W        W28771  11.034  13.096  15.298 -0.0007  0.0963 -0.2429
13641W        W28772  15.690  11.345   4.195  0.1420 -0.0891 -0.1252
13642W        W28773  13.512   5.890   2.831  0.0439 -0.0718  0.1654
13643W        W28774  16.250  10.440   1.587 -0.0222  0.0695 -0.2030
13644W        W28775   9.207  10.547   4.869 -0.0153  0.1162  0.1601
13645W        W28776   0.226   8.024  11.678 -0.2148  0.1059 -0.0239
13646W        W28777   3.274   9.201   0.249 -0.2689 -0.1646  0.0005
13647W        W28778   8.836   4.806   2.682  0.1698 -0.2374 -0.2428
13648W        W28779   2.630  15.525   3.520  0.1567  0.1986  0.2026
13649W        W28780   2.718   4.637  11.492 -0.1047 -0.2025  0.3312
13650W        W28781  14.652   1.211  13.667  0.0704 -0.1021  0.2548
13651W        W28782   7.912  17.603   2.126  0.0117 -0.3393 -0.1285
13652W        W28783   2.576   8.529  14.949 -0.3662 -0.1488 -0.0662
13653W        W28784  17.324   6.349  16.273  0.3573  0.0558 -0.0618
13654W        W28785   4.823   9.726  14.692 -0.0358  0.0615 -0.2091
13655W        W28786  11.200   9.328  16.336 -0.2166 -0.5599 -0.0834
13656W        W28787   9.318   3.933  14.023  0.1671  0.2323  0.0540
13657W        W28788   2.286   2.645  15.706 -0.0117 -0.0194  0.0557
13658W        W28789   9.848  14.422  14.448 -0.1152 -0.1302 -0.1929
13659W        W28790  14.229   7.922  13.989 -0.0852 -0.3388 -0.2384
13660W        W28791  14.886   6.813   2.800  0.1442 -0.0423 -0.4630
13661W        W28792  15.144   0.269   4.420  0.0023 -0.3086  0.1254
13662W        W28793  15.219   8.585   1.600 -0.0847  0.0545 -0.0491
13663W        W28794  15.604  11.463   3.516  0.0043  0.2650  0.2503
13664W        W28795  13.498   6.092   6.562 -0.1012 -0.2877  0.0211
13665W        W28796   8.445   9.423  11.244  0.0319 -0.1672  0.2546
13666W        W28797   0.036  12.530  16.254  0.3563 -0.1059  0.1719
13667W        W28798  13.564   4.702   3.802 -0.1935 -0.1834 -0.0242
13668W        W28799  12.384  10.549   2.493 -0.2711 -0.0672  0.0837
13669W        W28800   2.945  14.317   2.920 -0.0575  0.0608  0.1785
13670W        W28801  11.608  15.974  11.688 -0.3137  0.2880  0.0891
13671W        W28802   4.538  15.858  14.457  0.0402  0.0963 -0.2359
13672W        W28803   4.707   3.810  14.777  0.0670 -0.1746  0.1251
13673W        W28804   4.631   3.530   3.853  0.1487 -0.1575  0.1121
13674W        W28805   6.293  13.885   1.615 -0.0820  0.2798 -0.1871
13675W        W28806   4.962   8.947  13.251  0.1785  0.2064 -0.2117
13676W        W28807   7.367  16.942   5.860  0.2780  0.0083  0.0436
13677W        W28808  11.579   9.641   1.910 -0.1010  0.5667  0.1955
13678W        W28809   5.519  17.195   2.061 -0.0436 -0.0419 -0.3218
13679W        W28810   1.464   1.234  12.897 -0.0904 -0.1921  0.0917
13680W        W28811   4.991   6.962   2.447  0.1816 -0.1592  0.4262
13681W        W28812  13.471   5.674   2.267 -0.3316  0.0811  0.0054
13682W        W28813   6.900  11.738  14.683  0.0305  0.1565  0.0351
13683W        W28814  11.893  15.972  12.302  0.1881  0.5687  0.0833
13684W        W28815   9.120  14.151   0.718 -0.2453  0.0545  0.0580
13685W        W28816   9.051   0.190   0.456 -0.2008 -0.4019 -0.2346
13686W        W28817  12.916  10.505   4.886  0.0650 -0.3031  0.1809
13687W        W28818  11.877  13.048  14.695  0.1351  0.1911  0.1690
13688W        W28819   6.638   9.515   4.895 -0.0600 -0.0239  0.3338
13689W        W28820  12.216   1.242  12.891  0.2144  0.0915  0.2049
13690W        W28821   7.088   1.396   5.131  0.0947 -0.1332  0.0432
13691W        W28822   8.964   1.341   0.561 -0.0389  0.3038  0.0369
13692W        W28823   0.183   4.164   5.924  0.1093 -0.0590  0.2281
13693W        W28824  14.256  11.918   3.906 -0.1358  0.0044 -0.0639
13694W        W28825   9.941   1.226   4.766  0.1679 -0.0326 -0.3008
13695W        W28826  11.404  11.233  15.820 -0.1373 -0.4271  0.0116
13696W        W28827  12.343   6.880  12.588 -0.0626 -0.4362  0.0584
13697W        W28828  12.929   8.490  13.714  0.1920  0.0355  0.1460
13698W        W28829   6.603   3.078  14.667 -0.1354  0.1081  0.0923
13699W        W28830   5.979  13.708   5.336  0.2123 -0.0175  0.0336
13700W        W28831   2.230  11.423   2.978  0.2821 -0.2427  0.3294
13701W        W28832  12.057  11.120  14.847  0.1850 -0.1633  0.0476
13702W        W28833   9.361  14.673  11.900  0.2976  0.0628  0.1509
13703W        W28834  12.919  17.903  14.712 -0.1706 -0.0004  0.2574
13704W        W28835   3.039  10.357  12.839  0.0839 -0.2408 -0.3336
13705W        W28836   2.841   5.192  14.450  0.2061 -0.0996 -0.0930
13706W        W28837  13.693   7.990  15.933  0.1844 -0.0668  0.1937
13707W        W28838   3.859  13.248  14.127  0.1726 -0.3445  0.1541
13708W        W28839  16.164  14.284   0.546  0.2682  0.1521 -0.0104
13709W        W28840  11.076  17.657   0.730 -0.4015  0.1945 -0.1358
13710W        W28841  14.393   5.876   3.065  0.1864 -0.0092 -0.0664
13711W        W28842  11.735   5.229  14.788  0.0028 -0.0718 -0.1272
13712W        W28843   5.501   7.342   3.627  0.0496  0.4006 -0.2290
13713W        W28844   2.125  10.736  13.650 -0.0620  0.2336  0.0761
13714W        W28845   6.057  15.040   3.774 -0.0356  0.2333  0.2734
13715W        W28846  14.784   1.811  15.452  0.2772  0.2052 -0.1640
13716W        W28847   7.007  12.190  14.916 -0.2488  0.0165 -0.1055
13717W        W28848   9.710  16.709   1.339  0.0735  0.0859 -0.1119
13718W        W28849  15.416   8.792  13.318 -0.0197  0.1203 -0.0800
13719W        W28850   3.450  15.119  13.883 -0.0284  0.1019  0.2392
13720W        W28851  11.839  11.536   3.652 -0.0786 -0.1502 -0.1286
13721W        W28852  13.085   4.909   1.926 -0.1292 -0.2703  0.0763
13722W        W28853  14.234   8.456  11.165 -0.1939  0.2562  0.2631
13723W        W28854   9.032   2.052  11.598 -0.0020  0.0447 -0.3973
13724W        W28855  15.114  11.201  12.630 -0.2397 -0.0050 -0.2134
13725W        W28856   9.631   1.936  13.273 -0.1908 -0.0989  0.0003
13726W        W28857  17.664  15.525  12.439 -0.0604  0.0245  0.0677
13727W        W28858  12.981  11.194   5.507 -0.2438 -0.0205  0.1834
13728W        W28859  15.498  14.052   2.835 -0.0381 -0.1464  0.1333
13729W        W28860  17.144  17.159  16.373 -0.5363  0.1713 -0.3737
13730W        W28861  11.932  10.422   0.018 -0.0883  0.0213 -0.2333
13731W        W28862   0.948  14.321  10.975 -0.0636  0.0636  0.1363
13732W        W28863   6.080  13.444  12.789 -0.0172  0.0146  0.3961
13733W        W28864   2.760   8.556  12.654  0.0595 -0.2433  0.1170
13734W        W28865   7.571   7.305   3.801  0.1250  0.1245  0.1008
13735W        W28866   3.360  14.788  15.215  0.0762 -0.0384  0.0374
13736W        W28867  12.117  13.560  14.013 -0.2643 -0.0427 -0.1192
13737W        W28868  14.307  16.575  15.559 -0.2522 -0.0445  0.2896
13738W        W28869  12.369   6.707   4.230  0.0120 -0.1152  0.0313
13739W        W28870  12.275  15.523   5.485  0.3352 -0.2023  0.0530
13740W        W28871  17.313  14.114  13.965  0.0764  0.3564  0.2817
13741W        W28872  14.871   1.483  16.355  0.2586  0.0444 -0.0043
13742W        W28873  17.721   2.282   4.656 -0.0974  0.0281  0.1234
13743W        W28874   1.696   9.341   0.640 -0.4609  0.0595 -0.1002
13744W        W28875  17.914   0.754   2.608 -0.1080  0.3166  0.2646
13745W        W28876  16.295  17.451  10.892 -0.0061  0.0776  0.1732
13746W        W28877  12.553  15.958  11.238  0.3640 -0.1101  0.1734
13747W        W28878   9.127   3.613   0.474  0.1558 -0.0336 -0.0809
13748W        W28879   9.249  12.297  15.032 -0.0706  0.2980  0.3437
13749W        W28880  14.405   5.184   0.598  0.0385 -0.2099 -0.1788
13750W        W28881  17.642   7.249  11.927  0.0518 -0.3131  0.1335
13751W        W28882   4.380   1.386   2.071 -0.4221  0.2317 -0.0576
13752W        W28883   4.656  15.871  15.860  0.1649 -0.1903  0.1196
13753W        W28884  16.960   4.659   5.809 -0.1390 -0.3025 -0.3380
13754W        W28885  10.492   9.005   1.334 -0.0863 -0.0193 -0.0533
13755W        W28886  12.558  12.406   5.611 -0.0753 -0.2570  0.1212
13756W        W28887   0.374  13.767  14.769  0.0821  0.0469 -0.0834
13757W        W28888  14.026   8.590   1.842  0.0545  0.1267  0.3636
13758W        W28889   7.788  14.980   1.032 -0.0244 -0.2354  0.2605
13759W        W28890  14.043  15.811  11.700  0.2300 -0.0127  0.0020
13760W        W28891  17.954   0.045  14.873  0.0524  0.0382  0.1936
13761W        W28892   0.742   9.138  10.065  0.1422  0.0049 -0.0854
13762W        W28893   1.301   9.881   4.907  0.0237 -0.1705 -0.1276
13763W        W28894  11.621  14.054   2.540 -0.1219 -0.0968  0.1303
13764W        W28895  13.823  13.101   2.859  0.1598 -0.2604  0.1377
13765W        W28896  13.932  17.252   1.293  0.0910 -0.2137  0.2213
13766W        W28897  15.655  17.677  15.352  0.2318 -0.0424 -0.1153
13767W        W28898  12.597   0.554  12.425  0.0868  0.0788  0.2318
13768W        W28899  15.684  11.797   0.505  0.0192  0.0995  0.1125
13769W        W28900   2.538   3.039   5.292 -0.0939 -0.2135 -0.4091
13770W        W28901   8.637   2.312  11.829  0.0788 -0.1201 -0.3020
13771W        W28902  16.422  11.802   3.398  0.0752  0.2600 -0.1132
13772W        W28903  17.243  10.470   5.466  0.3275  0.2600  0.0715
13773W        W28904   3.934  12.980  14.619  0.0350 -0.3215  0.2482
13774W        W28905  15.173   5.102   1.607  0.2125  0.0022  0.0875
13775W        W28906  10.258  16.213   0.732  0.1652  0.2414 -0.1146
13776W        W28907   8.633   6.762   4.709 -0.2270 -0.4003  0.1668
13777W        W28908   4.971   1.355   0.878 -0.0359 -0.1589  0.0777
13778W        W28909  10.240   6.030  10.594  0.1167 -0.1420 -0.1508
13779W        W28910   5.930  13.924  10.844 -0.1606 -0.0287  0.4172
13780W        W28911   8.278  17.616   2.501  0.0801  0.1340  0.1558
13781W        W28912   2.263   5.810  14.954 -0.2762  0.3563 -0.0042
13782W        W28913  13.985   0.596  13.777  0.4530 -0.0638  0.1900
13783W        W28914  15.327  11.665   2.668  0.2011  0.0513 -0.0149
13784W        W28915  13.844   0.214   4.353 -0.1749  0.1851  0.0111
13785W        W28916   0.982   8.121  11.483 -0.0984  0.3101  0.0189
13786W        W28917   5.284   4.336  12.459  0.1904  0.1521  0.0728
13787W        W28918   1.583  12.108   0.319  0.2883 -0.2505 -0.1785
13788W        W28919   1.185   7.667   6.072  0.2075  0.0511 -0.3857
13789W        W28920  12.181   2.834   2.466 -0.2466 -0.1508 -0.0308
13790W        W28921   0.222   0.841   1.426  0.0988  0.0341  0.0000
13791W        W28922  16.786  11.269   0.608  0.0946  0.0378  0.0884
13792W        W28923   3.418  17.272  13.997 -0.0493 -0.0447  0.1002
13793W        W28924   6.546  10.716  13.864 -0.1754  0.1767 -0.0388
13794W        W28925  11.065  10.898   3.244 -0.0880 -0.3062  0.2675
13795W        W28926  16.902  12.737   5.632  0.0518  0.1033 -0.3319
13796W        W28927  16.661   2.392  16.218 -0.0417 -0.0472 -0.2560
13797W        W28928   3.596  12.930  13.694 -0.2642 -0.0611 -0.2371
13798W        W28929  14.408  11.368  13.766  0.0793  0.0484 -0.0646
13799W        W28930  16.661  12.259  14.605  0.1721 -0.1823  0.0392
13800W        W28931   7.661   2.427  16.423 -0.1690  0.0492  0.2854
13801W        W28932   1.881   6.033  13.576  0.0127  0.0569  0.0191
13802W        W28933   2.608   5.223  15.667  0.2766  0.0252  0.1170
13803W        W28934  17.615  13.762   4.220  0.0104  0.3650 -0.1791
13804W        W28935   2.402   6.924   4.274 -0.2750  0.0489 -0.0922
13805W        W28936   2.068  10.196   0.450  0.1055  0.1379 -0.3023
13806W        W28937   5.806   6.471  14.810 -0.0240 -0.1490  0.0583
13807W        W28938  15.438   1.140  13.237 -0.1009  0.0114 -0.2180
13808W        W28939   0.653   8.832  14.667  0.0469  0.0438  0.4148
13809W        W28940  13.287   1.947  15.461 -0.1644 -0.0216 -0.1155
13810W        W28941   0.486  10.792   5.656  0.4406  0.0819  0.0693
13811W        W28942   9.822   8.208   5.450 -0.0277 -0.2928  0.0842
13812W        W28943   6.933   7.932   9.961 -0.3179 -0.1002  0.0805
13813W        W28944  15.231   1.590  11.983 -0.1628 -0.0093 -0.1152
13814W        W28945  10.043  11.528   2.923 -0.0998  0.0785 -0.2939
13815W        W28946   9.425  16.459   2.237 -0.0301  0.0831 -0.2724
13816W        W28947  12.939  10.935   3.095  0.1215  0.1893  0.2352
13817W        W28948  12.267  14.625   1.528 -0.1750  0.1944  0.0655
13818W        W28949  14.205  17.280  14.698 -0.0641  0.0277 -0.3290
13819W        W28950   7.651  12.899  11.963 -0.1000 -0.1599 -0.0055
13820W        W28951  10.358  15.807   1.670 -0.0098 -0.1400  0.2386
13821W        W28952   0.433   7.009  12.939  0.0826 -0.2887  0.1430
13822W        W28953   4.598  10.631   0.832 -0.3502 -0.0934  0.1649
13823W        W28954   7.241   3.104  15.481  0.2410  0.4047 -0.0255
13824W        W28955  11.795  14.699  14.378  0.0195 -0.0088  0.0209
13825W        W28956   9.127  16.977   3.347 -0.2987 -0.3580  0.2093
13826W        W28957   1.879  18.102  14.636  0.4023  0.1380 -0.3503
13827W        W28958   5.763  16.364  10.250  0.1392 -0.3010  0.0840
13828W        W28959   4.328   5.191   4.766 -0.0825  0.2113 -0.1378
13829W        W28960   9.534   8.358   5.882 -0.2979 -0.0395  0.1844
13830W        W28961   4.253   7.473  14.841 -0.1615  0.1243 -0.1145
13831W        W28962  14.146  17.991   0.873 -0.1088 -0.0926 -0.0020
13832W        W28963   0.309  15.300  16.246 -0.1519 -0.0207  0.1246
13833W        W28964  17.549   0.442   5.549 -0.0359 -0.1528 -0.0044
13834W        W28965  17.570  11.855  14.760 -0.0067  0.1317 -0.2829
13835W        W28966   1.456  14.175   4.276 -0.0706 -0.0713 -0.0130
13836W        W28967   7.822   2.594   2.168 -0.0499 -0.2179 -0.0449
13837W        W28968  15.235   6.325  13.828 -0.1810  0.2458 -0.0640
13838W        W28969   3.232  14.421  11.587 -0.1534  0.0977 -0.2013
13839W        W28970   0.661  17.497   3.014 -0.0359  0.0851 -0.0940
13840W        W28971  17.052   2.324   5.573 -0.0820  0.1498 -0.1568
13841W        W28972  14.936   9.575  15.661  0.0582  0.0371  0.0651
13842W        W28973   1.843   0.892   2.203  0.2797  0.0231 -0.1133
13843W        W28974   3.484  15.513   1.689  0.1211 -0.4665 -0.1567
13844W        W28975  10.141   1.566   0.656 -0.1586  0.0043  0.0773
13845W        W28976  10.098   3.437   0.694 -0.1055 -0.1609  0.1707
13846W        W28977  11.740   3.510  13.523 -0.0759  0.2306  0.2045
13847W        W28978   6.082  15.432   5.346 -0.0759  0.1937 -0.0065
13848W        W28979   1.570   8.746   4.781 -0.0495 -0.2039 -0.1539
13849W        W28980  10.932   5.921  12.893 -0.1539  0.2225  0.1261
13850W        W28981  15.381   8.105  12.880 -0.0333 -0.0587 -0.0800
13851W        W28982   1.020  16.190   0.234  0.3939 -0.2138 -0.5034
13852W        W28983  12.421   3.703  11.297  0.3042  0.1217 -0.1488
13853W        W28984  11.438   4.993   2.640  0.1753 -0.2354  0.0369
13854W        W28985  11.007   3.363   4.500  0.2605  0.1970  0.0092
13855W        W28986   1.199  13.892   0.461 -0.1778 -0.2400 -0.1840
13856W        W28987  15.160  17.277   3.891  0.1402 -0.1069  0.1252
13857W        W28988  11.878  16.225   5.248 -0.3492 -0.0868 -0.0436
13858W        W28989  13.557  18.100  15.802  0.0761 -0.0235 -0.2020
13859W        W28990   3.499   8.807  15.779  0.1076  0.5272  0.0999
13860W        W28991  12.388   3.216   4.569  0.2119  0.2591 -0.1379
13861W        W28992  17.775   7.240   0.179 -0.0228  0.0411  0.1131
13862W        W28993  10.973  15.646   0.214 -0.2788 -0.1107 -0.1238
13863W        W28994   8.248  14.171  12.029 -0.0961  0.0587  0.2444
13864W        W28995   8.961   0.825   0.585 -0.2407 -0.0235  0.0008
13865W        W28996  17.341  16.560  11.021 -0.0182 -0.0561 -0.4223
13866W        W28997   8.177  14.733  15.672 -0.1464 -0.1548 -0.1673
13867W        W28998   3.752   5.808  12.943  0.2555  0.0373  0.1373
13868W        W28999   8.895   8.505   2.769 -0.1873 -0.3187 -0.2918
13869W        W29000   6.045   0.515   4.125 -0.2441 -0.0780  0.2334
13870W        W29001   5.880   4.102   0.708 -0.1426 -0.2474  0.3331
13871W        W29002   3.340  11.825  16.016  0.0472  0.0880 -0.2738
13872W        W29003  14.109   8.232  15.769 -0.0358 -0.0961 -0.0294
13873W        W29004   6.746  10.227  12.670  0.0951 -0.2192  0.1740
13874W        W29005   7.571   8.803  12.729  0.2013 -0.2457  0.0190
13875W        W29006   0.550  15.219   5.599 -0.0654 -0.1560 -0.0991
13876W        W29007   2.394  13.764  15.264 -0.0567 -0.0685  0.1987
13877W        W29008   3.203   8.134   4.403 -0.0150 -0.0340  0.0558
13878W        W29009   9.149  15.580   1.265 -0.2827 -0.1396  0.1083
13879W        W29010  16.816   3.390   2.360 -0.0073 -0.2430  0.3145
13880W        W29011  14.312   7.333  14.188  0.0316  0.1342  0.0868
13881W        W29012   1.546   9.434   3.698 -0.2933 -0.0456 -0.1559
13882W        W29013   0.811  12.592   3.976 -0.0470  0.2268 -0.2479
13883W        W29014  15.147  15.651   3.404  0.2462 -0.2359  0.1499
13884W        W29015  11.161   0.436  13.091 -0.3719 -0.0265 -0.2368
13885W        W29016  12.638   4.001   4.872 -0.1311 -0.0120  0.1238
13886W        W29017  10.474  12.956  11.959 -0.2073  0.0386  0.3022
13887W        W29018  14.183  14.702   3.277  0.0876  0.2480  0.1315
13888W        W29019   4.398  13.511   0.758 -0.1330  0.0349 -0.1178
13889W        W29020  15.264   4.673  16.197 -0.1721  0.3406 -0.2266
13890W        W29021   1.493  11.684   3.556 -0.1205 -0.0168  0.0272
13891W        W29022   3.781   5.274   2.864 -0.2303  0.3295 -0.0968
13892W        W29023  13.653   0.794  13.323  0.0781  0.0154  0.0984
13893W        W29024   9.764   1.390  11.209  0.3112 -0.1266 -0.0809
13894W        W29025  11.787   7.691  14.838 -0.0997 -0.0339 -0.1632
13895W        W29026   9.999  15.099   4.277 -0.0332  0.2464 -0.2586
13896W        W29027   4.807   5.613   1.451  0.3360 -0.1961 -0.2557
13897W        W29028   4.196   1.546   5.930  0.4033 -0.2077 -0.2738
13898W        W29029   5.396   8.514   2.510  0.0724  0.0603 -0.2493
13899W        W29030  15.402   6.161  16.120 -0.2312 -0.0838  0.0046
13900W        W29031   7.071   5.981  10.148  0.0265 -0.0603 -0.1921
13901W        W29032   6.656   0.245   2.049  0.0888 -0.1138  0.1833
13902W        W29033   4.626   9.776   3.858 -0.1721 -0.0449 -0.0797
13903W        W29034   4.060   1.980  12.396 -0.1025 -0.1712 -0.0272
13904W        W29035   4.030  16.068  14.699  0.0881 -0.2151 -0.0780
13905W        W29036   0.632   5.682   4.236  0.2109 -0.0622  0.2308
13906W        W29037   7.954  13.479   5.646 -0.0551  0.0541  0.1023
13907W        W29038   8.569   2.505   0.626  0.2256  0.1507  0.1217
13908W        W29039  12.100   1.807   0.645  0.1381 -0.0444 -0.1995
13909W        W29040   4.401   3.405  15.002  0.0932 -0.1658 -0.0941
13910W        W29041  16.642  15.495   4.506 -0.2715  0.1617  0.2672
13911W        W29042   6.118  14.349  12.184 -0.0071 -0.0326  0.2994
13912W        W29043  13.447   2.849   5.952 -0.0756  0.2764 -0.0679
13913W        W29044  16.137  16.959   0.382  0.0684 -0.0160 -0.0906
13914W        W29045   9.147  14.379   2.964  0.0954  0.0868  0.1734
13915W        W29046   9.356  10.459  11.806 -0.1262 -0.0500 -0.0233
13916W        W29047  10.035   5.305  13.338 -0.0545  0.1658 -0.2769
13917W        W29048  14.389   6.728  12.705  0.0245  0.2042  0.2401
13918W        W29049  16.557  11.531   5.117 -0.1167 -0.0957 -0.1473
13919W        W29050  12.322   8.005  11.672 -0.0857 -0.1146 -0.0094
13920W        W29051   2.203   0.636   1.252  0.1652  0.1062 -0.3735
13921W        W29052  15.086   7.313   5.261 -0.0399 -0.2819  0.1107
13922W        W29053   1.872   5.533  14.036 -0.0860 -0.0095  0.2415
13923W        W29054   2.725  11.828   3.688 -0.0903  0.1741  0.0018
13924W        W29055  15.653   1.413   0.175  0.3779 -0.0768 -0.0910
13925W        W29056   0.210   9.308  15.898  0.0030 -0.1433  0.1032
13926W        W29057   6.158  15.570  13.137  0.1879  0.2584 -0.2572
13927W        W29058   7.585   8.229  13.621  0.0073  0.1415  0.1484
13928W        W29059  16.472   0.264   5.133  0.0384  0.2185 -0.3907
13929W        W29060   9.215  10.081   0.799 -0.0731  0.5205 -0.1762
13930W        W29061   0.728  14.971  11.326  0.0641 -0.0713  0.1559
13931W        W29062   3.790   7.829  10.838  0.1748 -0.1334 -0.0126
13932W        W29063   4.971   5.703  13.606  0.7184 -0.0740 -0.2796
13933W        W29064  13.120   7.680  12.704 -0.3204  0.0537 -0.2486
13934W        W29065   7.748   7.451   2.631  0.0748 -0.1052  0.0928
13935W        W29066  12.494  17.323  15.152  0.0777  0.0335 -0.1619
13936W        W29067   7.973   7.155   2.999 -0.2868 -0.1026 -0.1075
13937W        W29068   7.988  14.345   4.410  0.1963 -0.0392  0.0024
13938W        W29069  11.523  12.918  13.980 -0.2319  0.2534 -0.7465
13939W        W29070   0.948   6.060  12.297 -0.0647 -0.0843  0.1756
13940W        W29071  10.206   7.636   2.267 -0.3328 -0.2238 -0.3043
13941W        W29072  16.487  16.312  13.935 -0.0433 -0.0566 -0.1598
13942W        W29073   9.040   1.151   3.475  0.1796 -0.1807  0.0595
13943W        W29074  16.566   3.571  15.178 -0.0175  0.0096 -0.1917
13944W        W29075  10.570   9.433   4.357 -0.1223 -0.1438 -0.2369
13945W        W29076   2.268   7.860  13.857  0.0654 -0.2764 -0.1229
13946W        W29077  14.295   3.483  13.141 -0.0312  0.2794  0.2941
13947W        W29078   4.679   6.663  11.580  0.0900  0.0017 -0.2201
13948W        W29079  13.924   8.680   3.775  0.0550 -0.2803  0.0225
13949W        W29080   6.306   6.272   3.239 -0.1660  0.2083  0.1512
13950W        W29081   8.750   9.401  13.833  0.0724  0.1202  0.0364
13951W        W29082  17.260   7.804   2.918 -0.1783  0.1570 -0.3265
13952W        W29083   7.428   1.939   5.801 -0.0821  0.0083 -0.3548
13953W        W29084  11.852  10.871   6.262  0.1789 -0.0622  0.0904
13954W        W29085   4.603   9.232   3.735  0.2940 -0.2194  0.2832
13955W        W29086   4.073  12.682  12.652  0.1382 -0.0467 -0.0143
13956W        W29087  17.564   6.707   4.314  0.0718 -0.0465 -0.3175
13957W        W29088   1.763  11.032   4.258  0.1790  0.3041  0.1816
13958W        W29089   2.644  11.678  12.675  0.0322  0.0351  0.0302
13959W        W29090  14.660   5.855   2.037  0.2311 -0.5361 -0.1058
13960W        W29091   1.846  13.661  11.772 -0.3756  0.0832 -0.0898
13961W        W29092   4.554  17.653   2.581  0.4054 -0.2391 -0.1275
13962W        W29093   5.038  16.367  13.412  0.0251 -0.0777  0.1638
13963W        W29094  15.093  10.199   2.472 -0.1412  0.3002  0.0197
13964W        W29095   7.610  10.659   3.682  0.2578 -0.3881  0.0704
13965W        W29096  13.903   8.223   4.039  0.2107  0.0864  0.2444
13966W        W29097   5.430  13.425  15.583  0.0001  0.1356 -0.3658
13967W        W29098   4.787   3.560  11.770  0.2394  0.0427  0.0340
13968W        W29099   3.737   0.044  14.321  0.0969  0.0902 -0.6996
13969W        W29100  13.827  15.918  15.064 -0.0970  0.0991  0.0814
13970W        W29101  14.128  11.933   0.368 -0.0688 -0.2441 -0.0226
13971W        W29102  12.858   5.154   0.804  0.1629 -0.0459  0.0280
13972W        W29103  10.832   5.307   2.959 -0.0396 -0.0360  0.1047
13973W        W29104   8.145  12.189  12.852  0.0423 -0.2005  0.3839
13974W        W29105  16.578   7.615   0.328  0.0884 -0.1810  0.0603
13975W        W29106  12.825  12.633   3.379 -0.0531  0.2081 -0.1093
13976W        W29107   7.063  11.272  12.791 -0.0876  0.2544 -0.1363
13977W        W29108   5.405  11.201  11.485  0.1533  0.1900 -0.3405
13978W        W29109   4.361  10.477   4.378  0.4033 -0.3059  0.4090
13979W        W29110  12.290  13.176  15.153 -0.0242 -0.2407 -0.2990
13980W        W29111   7.392   0.552   3.162  0.4634 -0.1231  0.0156
13981W        W29112  17.901   8.265   0.780  0.2382 -0.1076 -0.1704
13982W        W29113   3.906   7.823   0.115  0.2450  0.0302 -0.1834
13983W        W29114  17.421   1.876   1.477  0.1030  0.0647  0.1546
13984W        W29115  16.254   3.405   4.653  0.0215 -0.1260 -0.1521
13985W        W29116  13.791   4.611  13.023  0.2205 -0.0214 -0.1256
13986W        W29117  17.874   1.218  16.395  0.2901  0.0072  0.0385
13987W        W29118   0.194  17.876  11.406  0.1643  0.3427 -0.3719
13988W        W29119   3.594  16.787  14.684 -0.1833  0.1113  0.0119
13989W        W29120  13.941   3.662  13.892 -0.3877 -0.3445 -0.1079
13990W        W29121   4.419   4.237   4.375 -0.0042 -0.0720 -0.0919
13991W        W29122  17.529   4.010  15.452 -0.2771 -0.2707  0.1301
13992W        W29123   9.619   3.148   3.509 -0.0486  0.1077  0.1244
13993W        W29124   0.511   3.003  13.148 -0.0753  0.1113  0.0587
13994W        W29125   2.894   6.149   4.404  0.2863  0.0152  0.0613
13995W        W29126   4.381  12.271  15.416 -0.1945 -0.2922 -0.1225
13996W        W29127   4.979  13.431   2.602  0.3453  0.0450  0.0320
13997W        W29128  14.858   0.092  11.501 -0.1750  0.2218 -0.0520
13998W        W29129   1.521   6.886  12.685  0.1593 -0.0278 -0.1905
13999W        W29130   9.425   5.850   0.675 -0.2746  0.1526  0.0120
14000W        W29131  10.499   1.352   1.423  0.2069  0.0706 -0.0092
14001W        W29132   4.557   2.874  16.252 -0.2777  0.0478 -0.0744
14002W        W29133  11.829   3.048   1.004  0.0293 -0.1005  0.0838
14003W        W29134   7.825   7.572  10.791 -0.0822  0.0433  0.1027
14004W        W29135  16.886  16.166  14.714 -0.2525 -0.0168  0.1864
14005W        W29136  15.985   5.115  15.641  0.2997 -0.0112  0.1263
14006W        W29137  13.596  12.745  13.070 -0.4317  0.0730 -0.0328
14007W        W29138   8.128  15.750   3.912 -0.0845  0.1392  0.0898
14008W        W29139  14.376  16.438  14.131  0.4266  0.4207 -0.1007
14009W        W29140  11.850   5.434  12.788  0.0001 -0.1683  0.1247
14010W        W29141   4.481  16.181  15.498  0.0238 -0.0257  0.0183
14011W        W29142  15.733  14.243   2.378 -0.2435  0.1436 -0.0617
14012W        W29143  17.865  10.928   3.854  0.3561 -0.0470  0.2942
14013W        W29144   2.829   6.444  14.521  0.0024  0.0509 -0.0508
14014W        W29145  18.102  13.968   5.316 -0.1076  0.1031 -0.1546
14015W        W29146  17.987   6.606  12.653  0.0690 -0.0838  0.0038
14016W        W29147  13.451  15.945   3.196  0.3978 -0.2213  0.2759
14017W        W29148   1.548  14.195  14.266 -0.2091 -0.1270  0.1362
14018W        W29149  16.847   6.474  12.375  0.0562 -0.0916 -0.2910
14019W        W29150   3.460   4.089   2.717 -0.3565 -0.2032 -0.1463
14020W        W29151  16.857   0.863  14.864  0.3820 -0.1270  0.1751
14021W        W29152   9.749   1.350   2.253  0.0927 -0.2385  0.1256
14022W        W29153  13.516  11.972   3.742  0.2555 -0.0085  0.1744
14023W        W29154  12.002   3.272  11.488  0.0252  0.4251  0.1368
14024W        W29155   6.370   1.364   4.908  0.1566 -0.2247  0.0007
14025W        W29156  14.004  13.239  14.782  0.3265 -0.3513  0.0157
14026W        W29157   4.253   9.272   2.292  0.3500 -0.1164 -0.1368
14027W        W29158   6.829  11.457   2.954  0.0570  0.0350 -0.0735
14028W        W29159   4.864  11.595  13.801 -0.3434  0.1937 -0.0095
14029W        W29160   0.298  16.184  13.865  0.1607 -0.3177  0.2778
14030W        W29161   5.537   7.314   5.943  0.1527  0.3139  0.0857
14031W        W29162  15.393  15.591  13.830  0.1653  0.2330  0.2031
14032W        W29163   0.092   2.184   1.721 -0.4003 -0.0360  0.0361
14033W        W29164  13.952   4.242  15.127 -0.0316  0.0143 -0.2733
14034W        W29165   0.153  11.166   1.731  0.0461  0.2970  0.0316
14035W        W29166   3.748  17.542   2.662 -0.1503  0.0776  0.1370
14036W        W29167   7.070  17.470  11.449  0.0696  0.3044  0.2095
14037W        W29168   2.253   4.970   0.321 -0.0135 -0.0539 -0.0533
14038W        W29169   6.771   4.594   0.152 -0.3881  0.0576 -0.2289
14039W        W29170   2.324  17.010   1.635  0.4680  0.0189 -0.1985
14040W        W29171  10.252   3.957   0.073  0.0722 -0.2424 -0.1201
14041W        W29172  17.176  12.695   0.113  0.0218 -0.0689  0.0250
14042W        W29173  17.997   3.515  14.063  0.2120 -0.0848 -0.2557
14043W        W29174  15.824  10.870  13.408 -0.0206 -0.0133 -0.2786
14044W        W29175   3.234   7.557  13.393 -0.1115 -0.5315  0.0622
14045W        W29176   4.302   4.496  12.151  0.3168 -0.3168 -0.1133
14046W        W29177  13.239   2.309   5.520 -0.3623  0.1918 -0.0327
14047W        W29178  16.651  17.462   1.539  0.2727  0.0678  0.3260
14048W        W29179  14.378   1.278   2.580  0.2173  0.1671  0.1208
14049W        W29180   4.973  10.247   1.176 -0.0836  0.2219 -0.1725
14050W        W29181   5.755   2.025  12.502 -0.1246  0.1746  0.0559
14051W        W29182   9.195  17.198   5.006 -0.2080 -0.0935 -0.2040
14052W        W29183   5.154   2.539  12.063 -0.0540  0.0947 -0.2630
14053W        W29184  12.647   5.209   4.068 -0.0386  0.0286  0.0696
14054W        W29185   2.831  18.099   4.530  0.0825  0.1386  0.2533
14055W        W29186  15.798   7.589   5.103  0.0138  0.0247 -0.0731
14056W        W29187   0.106   5.469  13.191  0.0320 -0.1493  0.2582
14057W        W29188   6.347   8.153   2.166  0.0082 -0.2147 -0.0711
14058W        W29189   4.183  11.027  14.303 -0.1115  0.1478 -0.1026
14059W        W29190  14.896   5.399  11.088 -0.6133 -0.4902 -0.0818
14060W        W29191   6.006  16.179   2.407 -0.1131  0.2077  0.0025
14061W        W29192   4.615  13.542   1.249 -0.0581  0.1933  0.3280
14062W        W29193   9.796   1.060  10.799 -0.0129  0.1343 -0.3962
14063W        W29194   8.119   3.156   1.078  0.0710 -0.1502 -0.0200
14064W        W29195   4.411   2.402   4.642  0.0125  0.1183 -0.0991
14065W        W29196   6.657  13.676  11.228 -0.0850  0.0049 -0.0819
14066W        W29197  14.556   9.790   1.199 -0.0362  0.0294  0.4485
14067W        W29198  11.617  17.933  15.413 -0.1625  0.0587  0.0932
14068W        W29199  12.492  13.182  14.080  0.2136 -0.4083 -0.0695
14069W        W29200  13.581  13.542   4.714 -0.0982  0.0904 -0.0414
14070W        W29201  13.216  16.526  15.299  0.3136 -0.3404  0.0525
14071W        W29202  17.411   2.747   1.584 -0.0327 -0.4115 -0.1975
14072W        W29203  15.510  10.171  15.393  0.3080  0.1933 -0.3060
14073W        W29204   0.715   5.657  15.815 -0.0530 -0.3262 -0.0732
14074W        W29205  11.159   4.592   1.302  0.1514 -0.0132 -0.2356
14075W        W29206   2.514   3.951   4.917  0.3884 -0.0540  0.0316
14076W        W29207  11.852   5.734   5.767 -0.1955  0.0519  0.2089
14077W        W29208  13.746   4.741  12.543  0.1091  0.0189 -0.1022
14078W        W29209   3.253   1.829   4.680  0.1573 -0.1319 -0.0164
14079W        W29210   9.601   4.331  13.154  0.0864  0.0106  0.1952
14080W        W29211   3.608   5.145  12.697  0.0201  0.0404  0.0123
14081W        W29212  16.226  15.567   0.959 -0.2549 -0.0355  0.0154
14082W        W29213  14.338   1.906  10.853  0.3277 -0.4366  0.1520
14083W        W29214   6.556   9.735  11.126 -0.2151 -0.5654  0.2517
14084W        W29215   7.523   1.484   5.426 -0.3067  0.2353 -0.3824
14085W        W29216   1.179  12.901  10.799 -0.1294  0.1082 -0.0893
14086W        W29217  17.451  11.592   4.683  0.0527 -0.0016 -0.2023
14087W        W29218   0.986   5.092   4.476  0.0484 -0.3999 -0.0869
14088W        W29219  17.800   3.830  11.658  0.0863  0.1863  0.0904
14089W        W29220  10.019   9.340  13.485  0.5118 -0.0568 -0.3586
14090W        W29221   6.540   8.164   4.798  0.1755  0.1021 -0.5137
14091W        W29222   9.259   7.309   1.175 -0.0462 -0.0499  0.1849
14092W        W29223  15.668   9.684   3.586  0.3901 -0.1906 -0.0717
14093W        W29224   9.491   6.825   0.472 -0.1185 -0.0568 -0.3123
14094W        W29225   4.186  17.173   4.507 -0.1863  0.0864 -0.1870
14095W        W29226   3.378  17.181   4.408  0.0531  0.0851 -0.0199
14096W        W29227  15.992   9.013   2.668  0.1586  0.4777 -0.1573
14097W        W29228   1.086   9.432   2.693 -0.0336 -0.1078 -0.0741
14098W        W29229   5.987   3.130   2.805  0.1864  0.0790 -0.1102
14099W        W29230   3.970  15.050  11.295  0.3790 -0.0439  0.2039
14100W        W29231   2.719   6.721   0.896 -0.0861  0.1787  0.2820
14101W        W29232   3.231  10.459   3.135 -0.0554 -0.0529 -0.0110
14102W        W29233  10.512  15.153  12.270  0.0894  0.0671 -0.1726
14103W        W29234  16.187   4.297   5.366 -0.1348 -0.0964 -0.0166
14104W        W29235   6.641   0.331  12.067 -0.2062  0.0676  0.0241
14105W        W29236  11.493  16.578  13.500 -0.0387 -0.0107 -0.2558
14106W        W29237   9.505   8.664   5.510 -0.2847 -0.0564  0.2979
14107W        W29238   3.448   3.445   0.599 -0.0437  0.1176  0.0003
14108W        W29239  12.662   0.764   4.892 -0.0280  0.0180 -0.3493
14109W        W29240   4.155   5.671  14.752 -0.0394  0.1062  0.1839
14110W        W29241   6.165   5.326  12.448  0.1389  0.0088  0.1858
14111W        W29242   0.953  12.715  16.324  0.2017 -0.2469 -0.1316
14112W        W29243  11.772   7.982   2.583  0.0193  0.1541  0.3154
14113W        W29244   9.710   5.557  13.857  0.2005  0.6342  0.0564
14114W        W29245  14.593   5.650   5.608 -0.2979 -0.1453  0.3189
14115W        W29246  12.400  12.039  15.283  0.3419 -0.1807  0.1197
14116W        W29247  14.315  15.819  14.926 -0.5177  0.3433  0.0398
14117W        W29248   3.528  16.827  13.698 -0.2925 -0.0565 -0.0824
14118W        W29249  14.211   7.551   6.087  0.0887  0.1001  0.2124
14119W        W29250   2.242   8.608  16.005  0.4278  0.1025 -0.2499
14120W        W29251  17.968   6.890  12.053  0.0094 -0.0240 -0.2463
14121W        W29252   5.656   6.505   2.838  0.2582 -0.2456 -0.3763
14122W        W29253   7.657   2.125  16.008 -0.1815 -0.2136 -0.2199
14123W        W29254   3.407  13.394  13.646  0.0155  0.1182  0.1835
14124W        W29255  15.892   5.865   3.043 -0.0232 -0.0107  0.2900
14125W        W29256   3.316   6.534   4.547  0.1977 -0.1099 -0.3306
14126W        W29257   4.763   2.850   5.753  0.0159  0.2285  0.2707
14127W        W29258  16.935   8.901   0.226  0.0861 -0.2381 -0.1454
14128W        W29259  16.459   6.662  12.093 -0.0515 -0.4544 -0.0504
14129W        W29260   7.300  16.068  13.165  0.0556 -0.1890 -0.1003
14130W        W29261  10.424   5.081   3.666 -0.1383  0.3063 -0.5664
14131W        W29262   3.821  16.042  13.674 -0.4340 -0.2156  0.1437
14132W        W29263   8.080  12.277   0.349 -0.5368  0.2808 -0.1696
14133W        W29264   3.254   9.672  12.085  0.2258  0.3205  0.0946
14134W        W29265   9.146   1.136   1.350 -0.2304  0.2505 -0.1979
14135W        W29266  13.323  13.522   4.057  0.1653  0.1013 -0.0322
14136W        W29267  14.780   1.800   1.380 -0.3840 -0.2930  0.2340
14137W        W29268  15.577  10.878   0.092 -0.0660  0.0044  0.0803
14138W        W29269  11.520   8.437   4.901  0.0591 -0.0307  0.0002
14139W        W29270   1.436   2.754   2.505 -0.1445 -0.0861  0.2222
14140W        W29271   3.734   7.992   4.454  0.1296 -0.4104  0.0183
14141W        W29272  13.454  11.329  13.654  0.2436  0.1051 -0.0933
14142W        W29273  14.892   9.289   5.930  0.0143 -0.1675 -0.0826
14143W        W29274  11.268   7.134   1.595  0.1966 -0.1577 -0.1821
14144W        W29275  15.613  12.004  12.704  0.0458 -0.0903 -0.0063
14145W        W29276  14.168   1.371  13.777 -0.3272 -0.0108  0.1648
14146W        W29277   9.526   3.612   3.734 -0.0351  0.1978  0.1165
14147W        W29278  16.386  13.944   5.430 -0.0124  0.0623  0.0532
14148W        W29279   2.200  13.006   4.318 -0.0060  0.1115  0.0971
14149W        W29280  12.590   8.455  11.276 -0.0261 -0.1062 -0.0867
14150W        W29281  15.293  17.753  12.223  0.0203  0.0953  0.3026
14151W        W29282   1.610  10.191  14.000 -0.0516 -0.0790  0.0456
14152W        W29283   0.176   8.870   3.257 -0.1150  0.3681 -0.2622
14153W        W29284  10.954   5.124  15.337 -0.0935 -0.4360 -0.2807
14154W        W29285  17.143   2.410   1.227 -0.0715 -0.2609 -0.2601
14155W        W29286  16.462  13.661   3.418 -0.0240  0.1090  0.1416
14156W        W29287   3.501   7.189   0.673 -0.2772 -0.1938  0.1517
14157W        W29288   1.661   6.467  12.171  0.1554  0.0140 -0.0831
14158W        W29289   3.596  14.742  14.140 -0.0884 -0.3660  0.1350
14159W        W29290   9.078   1.469   2.951  0.0136 -0.0961 -0.1380
14160W        W29291   2.692  17.476  13.735 -0.2004 -0.2408 -0.4838
14161W        W29292  10.743  12.433  15.033  0.0078  0.2565  0.1635
14162W        W29293   0.865   4.287   1.229  0.0223 -0.1256  0.0468
14163W        W29294  16.631   0.788   4.465 -0.1497 -0.1622  0.0234
14164W        W29295   0.516  13.449   3.417 -0.1228 -0.1473 -0.2203
14165W        W29296   3.257  16.671  13.284  0.3860  0.0011 -0.0448
14166W        W29297  13.027  13.374   4.544  0.0350  0.0939  0.2943
14167W        W29298  13.018   5.458   1.949  0.0726 -0.3296 -0.0094
14168W        W29299   2.489   9.028  15.200  0.0917 -0.1923  0.2877
14169W        W29300   8.756  11.674  13.771 -0.2643 -0.0764 -0.1263
14170W        W29301   8.674  13.880  16.366 -0.1411  0.1074  0.1786
14171W        W29302   8.569   1.544  15.064  0.0045 -0.3271 -0.2096
14172W        W29303   4.643  13.045  12.540  0.2348  0.1879 -0.1320
14173W        W29304  12.499  16.995   3.336  0.0213  0.2586 -0.0846
14174W        W29305   2.942  13.484   0.414  0.1926 -0.1254 -0.2072
14175W        W29306  10.373   7.052  11.595  0.2170  0.2818  0.1867
14176W        W29307   2.033   4.636   1.706  0.1158  0.0426  0.0938
14177W        W29308  11.876  13.184   1.644  0.0084 -0.1069  0.0797
14178W        W29309   8.995   2.514  12.871  0.0212  0.0460 -0.3132
14179W        W29310   7.019   0.798  12.198  0.2974  0.3560 -0.0430
14180W        W29311   3.520   9.076  11.309  0.0030 -0.0892  0.1863
14181W        W29312   8.514   1.666   0.186 -0.0265  0.0071 -0.1641
14182W        W29313   1.403   6.539   1.807 -0.1642 -0.2548  0.0736
14183W        W29314   1.819   6.886   0.976 -0.0967 -0.0115  0.1157
14184W        W29315   6.533   0.447   4.414 -0.0716 -0.1904  0.1881
14185W        W29316   7.081  16.639  10.329 -0.0846 -0.0443  0.1173
14186W        W29317  13.080  12.114  13.686  0.0363 -0.1053  0.0181
14187W        W29318  14.646  11.318   3.172 -0.1003  0.3317  0.0326
14188W        W29319   4.612   2.082  10.639 -0.1420  0.1123  0.1349
14189W        W29320  10.463   7.260   1.424  0.1294  0.0094  0.1397
14190W        W29321  12.174   9.130   2.479  0.0120  0.2144  0.0441
14191W        W29322  10.638  17.391  11.771 -0.0716  0.1504 -0.2582
14192W        W29323  14.441  17.477   3.094 -0.1125  0.1424  0.0437
14193W        W29324   0.713   8.632  16.082  0.0466 -0.2650 -0.1273
14194W        W29325  10.221   8.463  12.952 -0.2354 -0.1849  0.0691
14195W        W29326  12.506   0.056  14.522 -0.0138  0.1193  0.0774
14196W        W29327  16.714  10.858  12.641 -0.0721 -0.2229  0.0298
14197W        W29328   8.384   4.850  13.981  0.1579  0.0079  0.0114
14198W        W29329  14.190   8.357   2.769 -0.0653 -0.0745  0.0934
14199W        W29330   7.683   8.026  14.071 -0.0243  0.0522  0.0086
14200W        W29331   9.361   2.107  11.224 -0.0915 -0.0006  0.0590
14201W        W29332  14.366   4.083   3.911 -0.3117 -0.0308 -0.0019
14202W        W29333  10.668   0.259  14.740  0.2112 -0.1172 -0.0468
14203W        W29334  18.082   8.499   4.031  0.2171 -0.2589  0.3794
14204W        W29335  13.148  12.382  15.966 -0.2342 -0.0398 -0.0829
14205W        W29336   6.799   1.002   5.225  0.2516 -0.2251 -0.2663
14206W        W29337   1.143   5.509  13.312 -0.0584 -0.0698 -0.0425
14207W        W29338  17.308   0.925   2.918 -0.0677 -0.2749  0.1338
14208W        W29339  10.008  10.374   5.878 -0.0353  0.3535  0.0355
14209W        W29340  14.307  10.094   0.683 -0.2457 -0.1793  0.1185
14210W        W29341  17.994   2.763  12.363  0.1507 -0.0043  0.2395
14211W        W29342  16.121   8.541  12.422  0.1726  0.0659  0.0669
14212W        W29343  13.000   7.982  13.450 -0.0284  0.0340  0.0566
14213W        W29344  10.928   3.944   4.577 -0.2304 -0.0049 -0.1185
14214W        W29345   8.604  12.904   0.576  0.1389  0.2560 -0.2354
14215W        W29346   8.395  16.156   1.482  0.0407 -0.0133  0.0010
14216W        W29347  15.350  13.371   6.062 -0.2308 -0.3328  0.1571
14217W        W29348  16.442  10.086  12.298  0.1389  0.0459  0.1815
14218W        W29349   8.284   5.670  13.094 -0.0540 -0.0067  0.3250
14219W        W29350   7.671  11.669  15.632  0.2505 -0.0264  0.1363
14220W        W29351  13.593  17.636   3.288 -0.1098 -0.2705  0.3321
14221W        W29352   2.781   7.316   5.672 -0.1059  0.3863 -0.0238
14222W        W29353   9.392  17.524   4.579  0.3062  0.0584 -0.3338
14223W        W29354  17.021   1.663  13.665 -0.3618 -0.1079  0.1193
14224W        W29355   5.268   9.668  15.544  0.1045 -0.1695  0.1195
14225W        W29356   6.313  11.902  10.512  0.1033 -0.0792  0.1410
14226W        W29357  11.504  10.691   0.222 -0.2942 -0.3972 -0.2982
14227W        W29358   8.752   3.765   3.758 -0.0443  0.2236 -0.0885
14228W        W29359  17.180  14.363   0.890  0.0377 -0.1365  0.4198
14229W        W29360   3.751   9.502  14.609 -0.2180  0.1265  0.0065
14230W        W29361   6.568  17.264   0.290  0.2352  0.0228  0.1094
14231W        W29362  17.204   5.118   2.938  0.1044  0.0599 -0.0523
14232W        W29363  13.164   3.902  13.594  0.0165  0.1760  0.1640
14233W        W29364   3.851   3.362   5.678 -0.1911  0.0389  0.3632
14234W        W29365  16.408  15.745  13.891  0.0316  0.1287  0.0948
14235W        W29366   6.525   8.030  10.901  0.2156  0.0662 -0.1502
14236W        W29367   4.201   3.825   0.803 -0.0101  0.1600  0.0529
14237W        W29368   8.408  14.613   4.310 -0.1055  0.3193  0.0579
14238W        W29369   9.342   2.635   3.910  0.3302 -0.0504  0.1123
14239W        W29370   3.203   8.170  11.447 -0.1126  0.0841  0.0134
14240W        W29371  13.442   3.495   4.564 -0.2583  0.3103  0.0039
14241W        W29372   9.708  17.132   2.740 -0.1154 -0.2446  0.2368
14242W        W29373   8.517   6.184  12.173 -0.0635 -0.1227 -0.0581
14243W        W29374   0.800  17.280   4.756 -0.1047 -0.0663  0.0852
14244W        W29375   3.700  17.336   5.420  0.1326  0.1751  0.2755
14245W        W29376  11.921  16.532   0.830 -0.0045 -0.2152 -0.0455
14246W        W29377   4.380   6.805   0.170 -0.1557 -0.0593  0.2646
14247W        W29378   9.410  10.185  15.701 -0.1687  0.2031 -0.1898
14248W        W29379   9.786   8.236  15.605  0.0270 -0.1556  0.2246
14249W        W29380  10.534  12.473  15.485  0.0105  0.0223  0.2292
14250W        W29381  12.511   6.805  13.856  0.1077  0.2400  0.1632
14251W        W29382   9.019   8.124  11.912  0.1686  0.3327 -0.1803
14252W        W29383   9.655  10.911   1.920 -0.1639  0.2498  0.1958
14253W        W29384  17.823  12.001  13.357  0.1086  0.0551 -0.0977
14254W        W29385  12.129  12.237  14.271  0.3519  0.2724  0.0495
14255W        W29386  14.200  10.689   2.626 -0.3777  0.0496  0.1697
14256W        W29387   9.512  16.936  13.884 -0.3857 -0.3951  0.0029
14257W        W29388  14.713   6.592  12.336  0.0015  0.0689  0.2977
14258W        W29389   2.323   7.777  11.564 -0.1342 -0.0132  0.1899
14259W        W29390  11.203  11.776   4.054 -0.0723 -0.0843  0.0463
14260W        W29391  11.279   4.903   1.743 -0.0800  0.1058 -0.0110
14261W        W29392   1.685  16.148  12.750  0.0416 -0.0062  0.0376
14262W        W29393   2.073   0.241   5.370 -0.0894  0.0736  0.1001
14263W        W29394   2.371  17.756  11.966  0.2558 -0.0112 -0.1847
14264W        W29395  10.624   0.042  12.416  0.4077  0.0978 -0.1875
14265W        W29396   8.504   6.591   0.698  0.0343 -0.0568  0.4872
14266W        W29397   8.767   5.216   3.505  0.0813 -0.3598  0.1935
14267W        W29398   6.530  13.670   4.200 -0.0279 -0.2456 -0.1051
14268W        W29399   4.455  16.354  12.069  0.2634 -0.0444  0.0296
14269W        W29400  11.293   5.712   4.537 -0.0465  0.0067 -0.1860
14270W        W29401   0.428  14.510   5.002  0.1926  0.1792  0.0696
14271W        W29402  12.151   5.350  12.253 -0.0631  0.0000 -0.1599
14272W        W29403  14.242   0.969   0.987 -0.1763  0.2924 -0.2461
14273W        W29404   7.414   5.747  14.124  0.1398 -0.2814  0.1483
14274W        W29405   1.289  12.740   4.737  0.3819 -0.0583  0.0245
14275W        W29406  16.694   3.082  14.447  0.1246  0.0381 -0.0828
14276W        W29407  13.030  13.703   1.761 -0.4026 -0.1199  0.3271
14277W        W29408  14.077  16.440  15.083  0.1095  0.1221  0.0468
14278W        W29409   2.783   1.239  12.453  0.5609  0.0878  0.1104
14279W        W29410   0.451  13.410  16.428 -0.1885 -0.0708 -0.3223
14280W        W29411   9.102  10.622   0.891  0.3135 -0.0213 -0.0094
14281W        W29412   4.399   5.731   2.896 -0.1185  0.3709  0.0661
14282W        W29413   4.177   0.243   0.185 -0.1463 -0.0888  0.2640
14283W        W29414   8.990   6.680  11.793  0.0987  0.0837  0.1947
14284W        W29415   2.789  12.206  12.785  0.0204  0.0866  0.1347
14285W        W29416   9.059   0.083   4.997  0.2157 -0.0980 -0.0751
14286W        W29417  13.391   9.967  15.084  0.2289 -0.3329  0.2385
14287W        W29418  13.405   7.749  13.813  0.2222 -0.0564  0.1210
14288W        W29419   7.964   5.826   3.439  0.1741  0.2029  0.0173
14289W        W29420   9.950  17.276  13.058  0.4318 -0.1073  0.1028
14290W        W29421   4.052   1.132  13.777 -0.0543  0.2293 -0.0184
14291W        W29422   4.328  10.775  13.897  0.0604 -0.0251  0.0206
14292W        W29423   8.145   3.021  13.348  0.3173  0.0859 -0.2611
14293W        W29424   3.271  13.236   2.159  0.2877  0.1599  0.1866
14294W        W29425   9.053   3.619  11.503  0.0682  0.1438 -0.3051
14295W        W29426   9.695   4.880   5.059  0.2379 -0.2524 -0.3721
14296W        W29427  14.140  15.144  12.516  0.0842 -0.1297 -0.4049
14297W        W29428   0.429  14.806  13.592  0.0325  0.0646  0.3823
14298W        W29429  12.630  11.276  10.742  0.0997  0.0775 -0.0585
14299W        W29430  10.414  17.365   4.228 -0.2640 -0.2305 -0.0456
14300W        W29431   1.942   8.930   1.918 -0.1476  0.2948 -0.0911
14301W        W29432  11.749   6.515   1.092  0.1430 -0.0067 -0.2480
14302W        W29433   8.505   2.574  12.846  0.0827 -0.0164 -0.0056
14303W        W29434   7.045   7.156  11.257 -0.1653  0.3298 -0.4826
14304W        W29435  16.323  12.293   3.083  0.0391  0.0672  0.3914
14305W        W29436  13.263   8.824  11.864 -0.0277 -0.2063 -0.3258
14306W        W29437  15.467   5.684   5.269  0.4366 -0.1640 -0.1881
14307W        W29438   9.276  11.525   0.268 -0.0054  0.1193 -0.1508
14308W        W29439  11.387  12.168   2.213  0.0278 -0.5186  0.3074
14309W        W29440  11.044   2.001   0.564  0.1782  0.0990 -0.1621
14310W        W29441  16.072  14.936  16.308 -0.2286  0.2453  0.3922
14311W        W29442   0.084   8.328   1.467 -0.0307  0.3069  0.1789
14312W        W29443   2.575  12.727  15.955  0.0794  0.2141 -0.1943
14313W        W29444   9.211  17.180   2.869 -0.1965  0.2794  0.1463
14314W        W29445  10.887  17.262  12.236  0.0537  0.0199  0.0680
14315W        W29446   6.046  12.864   2.567 -0.1769  0.0648  0.2353
14316W        W29447   2.752  13.428   2.651 -0.1221 -0.1507 -0.0685
14317W        W29448  18.090  10.631   3.352  0.0235 -0.0963 -0.0102
14318W        W29449  16.572   6.013   2.535 -0.2608  0.1858 -0.1568
14319W        W29450  16.673  15.595   2.484 -0.0959  0.0382  0.3227
14320W        W29451  12.072  16.555   2.054  0.0812 -0.1574 -0.1730
14321W        W29452  11.237  11.361   4.393  0.1324  0.1456 -0.0747
14322W        W29453  16.217   6.216  16.433 -0.1498 -0.3739 -0.0914
14323W        W29454   9.489  17.087  12.270  0.2220 -0.3894 -0.1115
14324W        W29455   9.886   2.304  14.485 -0.0073  0.1253 -0.4265
14325W        W29456   4.068  16.498  11.771  0.2220  0.2100 -0.0732
14326W        W29457   1.513   5.506  15.269 -0.2203  0.0122 -0.3498
14327W        W29458   9.061  16.192   0.174  0.0981 -0.1961  0.0785
14328W        W29459  10.414  10.900  16.154  0.1726  0.2521  0.1142
14329W        W29460   9.499  13.902   5.864 -0.1693 -0.3461 -0.5169
14330W        W29461  13.471  13.718   0.235  0.2313 -0.0177 -0.3250
14331W        W29462  17.273   0.036   5.492  0.0833  0.0440  0.0075
14332W        W29463  14.629   3.959   4.760 -0.1966 -0.1574  0.0745
14333W        W29464  10.119  15.474  15.419 -0.1432 -0.0260 -0.1569
14334W        W29465  11.237   5.586   3.118  0.0500  0.0716  0.0955
14335W        W29466  13.631   8.618  13.189  0.1795  0.0913 -0.3105
14336W        W29467  13.887   9.874  13.861 -0.2597  0.0456  0.1078
14337W        W29468   7.223  15.996  14.593  0.1252  0.1356 -0.0257
14338W        W29469  14.849  12.153  16.408  0.1521  0.3623 -0.0157
14339W        W29470   1.414   3.078  16.445  0.2043 -0.1601  0.0250
14340W        W29471  12.072   2.320  13.387  0.1560  0.3398  0.0091
14341W        W29472  13.235   5.810   4.418  0.1168  0.0176 -0.3299
14342W        W29473  17.587  13.591   3.589 -0.2842 -0.0070 -0.0594
14343W        W29474  11.030   6.692   4.386  0.1607  0.1300  0.0680
14344W        W29475  12.717  17.863  16.024 -0.0829  0.3494 -0.0397
14345W        W29476  11.447   9.258   5.407 -0.2254 -0.0603  0.1318
14346W        W29477   1.142  15.671   0.741  0.1742 -0.2370  0.2975
14347W        W29478   8.745  13.674  12.635 -0.1943  0.2124  0.0898
14348W        W29479  13.656   7.500  12.866 -0.1229  0.0397  0.0908
14349W        W29480  10.022   7.527  13.110  0.0047  0.2944  0.1433
14350W        W29481   3.754   0.940   3.020  0.1450  0.0686 -0.0580
14351W        W29482   2.506   2.386  16.191  0.2546 -0.2528  0.0014
14352W        W29483   4.806  10.214  14.804 -0.2133  0.0240 -0.1059
14353W        W29484   7.968  15.463  15.003 -0.0633 -0.2796 -0.0593
14354W        W29485  14.901  12.419  13.337  0.0180 -0.1652  0.0841
14355W        W29486  17.287  11.088  14.899 -0.1400  0.2231  0.3421
14356W        W29487   1.662   9.576   3.230  0.1911  0.0306 -0.0176
14357W        W29488   9.095   6.266   3.955  0.0417  0.0712 -0.1592
14358W        W29489  13.097  13.278  15.027 -0.2056  0.1577  0.4312
14359W        W29490   9.123   0.783  11.142 -0.2654  0.2019  0.1128
14360W        W29491   0.418   8.515  15.171  0.0818  0.0846  0.0003
14361W        W29492  15.217   4.031  11.837 -0.2208  0.2256  0.1651
14362W        W29493   8.167  16.880   0.997  0.0009  0.0101 -0.1214
14363W        W29494  11.215   6.445   5.480  0.2581  0.3526  0.0712
14364W        W29495   7.983  15.443   0.320 -0.0205 -0.2307  0.4050
14365W        W29496   8.827   9.970  10.847  0.1244  0.1861 -0.1645
14366W        W29497   0.302   2.087   3.496  0.1052  0.1133  0.0671
14367W        W29498   9.491  11.556   4.580 -0.1830  0.0813 -0.1777
14368W        W29499  11.872  12.975   6.361 -0.0399 -0.1153  0.1596
14369W        W29500  10.072  15.572  12.036  0.1227 -0.1299  0.0580
14370W        W29501   9.415  11.723   2.476 -0.2908  0.1828  0.1867
14371W        W29502  14.665   3.550   0.289 -0.1440 -0.1614  0.1045
14372W        W29503  12.230   0.471   6.333  0.0870  0.1159  0.0901
14373W        W29504  16.956   5.740   2.942  0.1555 -0.1972 -0.1986
14374W        W29505  13.418  16.351   1.229  0.0735  0.1853 -0.0118
14375W        W29506  18.070  12.200  13.947 -0.0500 -0.0943 -0.1089
14376W        W29507  14.910   6.683   3.359 -0.2184  0.3564  0.2450
14377W        W29508  11.613  13.296  13.083 -0.1423  0.2279 -0.0787
14378W        W29509  14.750  10.644  15.342 -0.1674  0.2016 -0.1931
14379W        W29510   3.473  17.909   3.024 -0.1077  0.0871  0.2180
14380W        W29511  14.696   1.938   0.082 -0.2983 -0.3082  0.0286
14381W        W29512  15.953  17.261  15.305 -0.3787  0.1046 -0.1851
14382W        W29513  16.780  18.039  14.479  0.0457 -0.1250  0.1390
14383W        W29514  12.451  12.194  12.334 -0.1945 -0.1835 -0.0355
14384W        W29515   0.977  13.236   0.149 -0.4307 -0.4322 -0.2191
14385W        W29516   4.352   2.273   5.142  0.3508  0.0871 -0.2840
14386W        W29517   3.965   2.983  11.561 -0.0560  0.0527 -0.1203
14387W        W29518  17.301   3.544   1.213  0.4528 -0.4229 -0.0317
14388W        W29519   1.911  14.591   2.320  0.3028 -0.1222 -0.1719
14389W        W29520   2.043  11.364   0.004 -0.0714  0.0217  0.2955
14390W        W29521  16.599   2.957  15.714  0.0505  0.2019 -0.4005
14391W        W29522  13.713   8.953  11.803 -0.1281  0.1120  0.1496
14392W        W29523  14.027   6.311   3.910 -0.0300 -0.1078  0.3693
14393W        W29524   9.636  14.733   5.708  0.0318 -0.1105 -0.0488
14394W        W29525   9.279   0.740  11.711  0.0942  0.0827 -0.2989
14395W        W29526   2.704  13.761   3.052  0.0861 -0.2558 -0.0324
14396W        W29527   4.636   6.019   1.690  0.1923 -0.0644 -0.1039
14397W        W29528   8.145   3.608   4.391 -0.0685  0.1742  0.1320
14398W        W29529  12.742   2.788   3.389 -0.1257  0.2430  0.0801
14399W        W29530   1.816  10.564  14.431  0.1110 -0.1267  0.1030
14400W        W29531  13.443   4.596   3.211 -0.1586 -0.2299 -0.4230
14401W        W29532   6.381   5.341   5.246 -0.0563 -0.0105  0.0619
14402W        W29533  11.791  12.479   2.263  0.2763 -0.1923 -0.0283
14403W        W29534   1.827   0.091  16.211  0.0920 -0.1900  0.1190
14404W        W29535  11.902  17.233   3.126 -0.0583  0.2029  0.1635
14405W        W29536   2.233  16.494  12.894  0.2664  0.1602  0.0534
14406W        W29537   1.122  10.473   4.153 -0.0046 -0.2579 -0.0032
14407W        W29538  12.052  18.046   0.436  0.1268 -0.3068 -0.1972
14408W        W29539  10.483   3.577   5.274  0.1556 -0.1109 -0.3156
14409W        W29540  18.028   9.005  13.559 -0.2717 -0.0468 -0.1050
14410W        W29541  11.618   2.968  14.571  0.0743  0.2157  0.1696
14411W        W29542  14.879  13.122  16.403 -0.1839 -0.1105 -0.0819
14412W        W29543   3.205  17.990  12.929 -0.4871 -0.0511 -0.2794
14413W        W29544   2.160   2.437  14.183  0.1845 -0.1584 -0.2585
14414W        W29545   1.543   9.462   4.219  0.0783 -0.2474 -0.1276
14415W        W29546   6.236  17.510  11.562 -0.4282  0.3060  0.0600
14416W        W29547   6.232   0.547  12.546 -0.1769  0.0043 -0.1371
14417W        W29548  14.362  16.415   5.424  0.1427  0.2372 -0.2862
14418W        W29549   9.866  10.567  12.930 -0.2131 -0.1546 -0.1293
14419W        W29550  17.369   7.335   6.135  0.1084  0.1216 -0.1135
14420W        W29551   8.473   8.051   4.894  0.0907  0.0301 -0.2901
14421W        W29552   3.079  11.067  11.570  0.1611  0.1589 -0.1598
14422W        W29553   3.638   6.152   5.521 -0.1289  0.2413 -0.2651
14423W        W29554  16.675  17.657   0.663 -0.0384 -0.0549  0.1829
14424W        W29555   3.804  12.191  15.889 -0.1465 -0.1864  0.0610
14425W        W29556   7.793   0.133   6.559 -0.3772  0.1483  0.4018
14426W        W29557   6.415   2.855   1.122 -0.0083  0.0311 -0.0197
14427W        W29558  15.407   8.869   3.031  0.2919 -0.1255  0.0843
14428W        W29559  16.908  13.287   5.901 -0.2604  0.3400 -0.1319
14429W        W29560   1.530   6.003   2.451  0.0766 -0.1714  0.2170
14430W        W29561   6.480   7.297  11.856 -0.1320  0.0845 -0.0378
14431W        W29562  14.974   1.920   3.245  0.2169 -0.0369  0.0332
14432W        W29563   4.473   6.918   1.171 -0.0799  0.1167 -0.1170
14433W        W29564   7.161   9.169  12.996 -0.1720 -0.1235  0.0856
14434W        W29565   4.836   6.867  14.298 -0.5215  0.2670  0.0802
14435W        W29566  15.647   1.940   2.620 -0.2156  0.0983 -0.3691
14436W        W29567  16.187   3.517  12.203 -0.0037  0.0586 -0.2741
14437W        W29568   2.769  10.897   2.661 -0.0160 -0.2614 -0.2228
14438W        W29569  17.214   2.594  10.038  0.1172 -0.0211  0.2247
14439W        W29570   4.283   7.749   5.561 -0.0531  0.0993 -0.0600
14440W        W29571   9.038   0.246  15.182  0.1446 -0.1508 -0.0968
14441W        W29572   1.482   4.778  11.508 -0.0203 -0.1226 -0.0993
14442W        W29573   5.130   3.942  14.407 -0.1915  0.0752 -0.2747
14443W        W29574   7.053   7.046  11.777  0.0563 -0.1173  0.3915
14444W        W29575   9.651   6.810  14.613  0.1243 -0.1526  0.0195
14445W        W29576  15.299  12.208   4.556  0.2310  0.1277  0.1387
14446W        W29577   1.902  13.766   0.919  0.3259 -0.0512 -0.1671
14447W        W29578   4.180  10.039   4.077 -0.1079  0.0038  0.0597
14448W        W29579   1.489   2.073   5.635  0.0370  0.4236  0.4206
14449W        W29580   7.779  11.438  14.818 -0.2377 -0.1346  0.1606
14450W        W29581  10.133   5.618  14.117  0.1184  0.1811  0.1244
14451W        W29582   1.282  15.630   0.258 -0.2872  0.1076  0.0370
14452W        W29583  13.646  13.272  14.221 -0.1134 -0.2323 -0.1763
14453W        W29584   4.306  15.084  10.326  0.1205 -0.0391  0.1025
14454W        W29585   6.383  16.552  13.330 -0.2667  0.0162 -0.2145
14455W        W29586   7.210  15.592   6.238  0.1978  0.2532 -0.2116
14456W        W29587  15.028   9.346   4.873  0.3608  0.1268 -0.0299
14457W        W29588   2.229   4.967  13.489 -0.0559 -0.0293  0.1259
14458W        W29589  16.080   2.407   3.672  0.0237 -0.1208 -0.0576
14459W        W29590  14.723  15.082   2.127 -0.1006  0.0054  0.1585
14460W        W29591  15.989  17.956  15.079  0.0734 -0.2869 -0.1169
14461W        W29592   1.003  12.989  13.804 -0.0374  0.0399  0.2436
14462W        W29593   3.555   4.620   3.939  0.3534 -0.0365  0.0083
14463W        W29594  12.538  13.594  13.776  0.0925 -0.0443 -0.1079
14464W        W29595  13.544   9.766  16.135 -0.1094  0.3891 -0.1977
14465W        W29596   5.462  13.147   3.863 -0.0672 -0.0244  0.0996
14466W        W29597   1.773   2.249  14.494 -0.0203  0.2596  0.1621
14467W        W29598   3.955  15.305  11.937  0.1387  0.3751 -0.1118
14468W        W29599  10.725  10.213   1.027  0.2963 -0.1182  0.0512
14469W        W29600  12.440  15.616   1.348 -0.0843  0.0879  0.0622
14470W        W29601   9.661  17.460   3.920  0.2882  0.3405  0.3824
14471W        W29602   6.485   6.856   4.453  0.2775 -0.2113 -0.4139
14472W        W29603  15.272  11.867   4.971  0.1675 -0.2037  0.0277
14473W        W29604   5.232  14.389  14.840  0.2512 -0.2797 -0.0250
14474W        W29605  17.319   3.885  11.681 -0.0614 -0.0119  0.0022
14475W        W29606  17.183   6.416  11.932  0.0587 -0.1704 -0.3663
14476W        W29607  10.960   5.084  14.395  0.0382 -0.0976 -0.2921
14477W        W29608   3.798  11.353   4.571 -0.0427 -0.3569  0.2212
14478W        W29609  13.032   9.606  10.379  0.1628 -0.1437  0.1339
14479W        W29610  12.397   7.042  10.361  0.0223  0.1417  0.1110
14480W        W29611   5.677   9.743  16.389  0.2404  0.2148  0.1420
14481W        W29612   3.970   6.969  11.121 -0.0144 -0.1970  0.3107
14482W        W29613  10.128  17.357  15.301  0.1789 -0.1662 -0.1746
14483W        W29614   3.754   1.317   5.688 -0.0143  0.0096 -0.3230
14484W        W29615  10.118   8.575   2.735 -0.0713 -0.0616  0.0018
14485W        W29616  10.409   2.378  11.645 -0.1663  0.3506  0.1490
14486W        W29617   4.824  10.587   1.729 -0.2439  0.0431  0.3200
14487W        W29618  13.331   0.797  15.950  0.1623  0.0694  0.3276
14488W        W29619  16.097  12.352  12.011  0.1189  0.0780  0.1337
14489W        W29620   0.006  17.934   1.865 -0.0487 -0.0137  0.0808
14490W        W29621   3.095  13.280   3.017 -0.1743 -0.1949  0.0149
14491W        W29622  11.406   1.841  12.914  0.1836  0.2578 -0.1784
14492W        W29623   8.140   5.343  14.942 -0.2673  0.0028 -0.0336
14493W        W29624  16.297   5.399   3.710  0.2271  0.1074 -0.0254
14494W        W29625   3.673  10.376   3.583 -0.2934  0.0762  0.1417
14495W        W29626   3.158   1.823  15.265  0.1696 -0.1077  0.2648
14496W        W29627  13.293  13.529   3.521  0.0483 -0.0333  0.1119
14497W        W29628  15.461   9.428   1.022 -0.1066 -0.2713 -0.1737
14498W        W29629  12.928   2.062   1.706  0.1588 -0.0124  0.1502
14499W        W29630  12.350  18.091   0.852 -0.1649  0.1126 -0.0586
14500W        W29631   1.784   3.519   2.939 -0.0153 -0.0418 -0.3622
14501W        W29632   7.445   4.576  15.725 -0.2173  0.0491  0.0705
14502W        W29633  10.858  11.042  13.218 -0.2252  0.1400  0.1833
14503W        W29634   8.800  16.931   2.444  0.3738 -0.2834  0.0740
14504W        W29635   9.876   7.997   4.680  0.0676  0.1007  0.1249
14505W        W29636  11.385   4.581  11.474 -0.1980  0.0312 -0.1268
14506W        W29637  15.452  12.971   2.745  0.2131  0.1894 -0.0808
14507W        W29638   9.198   8.213  13.990  0.0856 -0.4365 -0.3981
14508W        W29639  10.414  13.458   2.763  0.0327 -0.0575  0.3356
14509W        W29640   1.438  17.615  12.064  0.1874 -0.0255  0.3388
14510W        W29641  14.655   8.770   2.594  0.0780  0.0705 -0.0417
14511W        W29642  14.924  12.019  15.498  0.2685 -0.1869  0.1976
14512W        W29643   6.622  10.467   2.572 -0.1873 -0.1614  0.0559
14513W        W29644  10.769  15.572   1.906  0.0781 -0.0089 -0.2066
14514W        W29645   3.501  17.274  14.649  0.2386 -0.0806 -0.0955
14515W        W29646  17.124   4.348   5.034  0.0712  0.0177  0.1425
14516W        W29647   1.604   0.018   5.443 -0.1852 -0.1316  0.1363
14517W        W29648   4.906  13.352   2.109 -0.0899 -0.1831 -0.2986
14518W        W29649   2.875   1.570   4.449 -0.0245 -0.2915 -0.3560
14519W        W29650  15.432   3.214   3.744  0.0134  0.1299 -0.2298
14520W        W29651   7.489  13.220   3.644  0.1586 -0.0591  0.0702
14521W        W29652  17.944  14.739   1.327  0.2139  0.1260  0.2614
14522W        W29653   9.818  14.289  15.879  0.0671  0.1762  0.5432
14523W        W29654  17.998  14.050   1.193  0.2145  0.0803 -0.0393
14524W        W29655  10.641   0.903  12.077  0.0607  0.0212  0.0862
14525W        W29656  11.521  14.757   0.584  0.1527  0.0662  0.0874
14526W        W29657   8.354  17.514   3.671 -0.2378 -0.2453 -0.1164
14527W        W29658  13.248   8.302  15.514  0.1938  0.0713 -0.3297
14528W        W29659   1.728  15.939  13.723  0.0734  0.0013  0.0867
14529W        W29660   5.496   8.063   3.290 -0.0048 -0.0659  0.3545
14530W        W29661   3.696  12.380   2.160  0.3790 -0.4199 -0.0213
14531W        W29662  12.915  17.076   2.202  0.1801  0.1659  0.0852
14532W        W29663  14.933   6.875   5.113 -0.2748 -0.0647  0.1389
14533W        W29664  13.617  14.088  11.563 -0.1903  0.2462  0.0331
14534W        W29665   6.859   2.575   3.579 -0.2062 -0.0189  0.3667
14535W        W29666  16.400  11.009   5.733 -0.1226  0.0091  0.0329
14536W        W29667  13.445  11.819   1.495 -0.2179  0.0076 -0.0708
14537W        W29668  10.338   2.194   2.478 -0.2577 -0.0618  0.3145
14538W        W29669  12.470   1.926  13.395  0.1104  0.0585  0.1780
14539W        W29670  13.108  12.759   4.729 -0.0718  0.0980  0.0244
14540W        W29671   7.394  17.808  11.581  0.0533  0.2236  0.2516
14541W        W29672  17.588   0.197  11.727 -0.2441 -0.2765  0.0357
14542W        W29673  16.472   9.633   0.992 -0.1237  0.0058  0.0563
14543W        W29674  13.777  12.021  12.051 -0.0766 -0.1647 -0.3178
14544W        W29675  16.751  14.058   3.614 -0.5116 -0.2289  0.0539
14545W        W29676   7.353   4.575  14.018 -0.0120  0.0888  0.1440
14546W        W29677   3.805  13.845  12.168 -0.0179 -0.0005  0.1542
14547W        W29678   2.777  15.551   2.264  0.0035 -0.0025 -0.0817
14548W        W29679   9.535   1.616   1.881  0.3150  0.1029 -0.1842
14549W        W29680  16.819   5.773   4.268 -0.2443  0.1985 -0.1497
14550W        W29681  13.965   7.379  10.553  0.1456 -0.0837 -0.2641
14551W        W29682   2.284   1.617   6.012  0.0496 -0.0146  0.1629
14552W        W29683  14.711  15.779  12.231  0.1481 -0.2543 -0.1141
14553W        W29684  15.940   8.325   4.226  0.1802 -0.1438  0.0374
14554W        W29685  12.930   4.435  13.329  0.0305 -0.1072  0.0709
14555W        W29686  14.876   0.521   1.388 -0.0169 -0.1888 -0.1881
14556W        W29687   3.873  10.352   4.335  0.0885  0.1744  0.0719
14557W        W29688  17.789   3.484   5.427 -0.3351  0.1091  0.1232
14558W        W29689   4.152  17.564   5.831  0.1886 -0.0322 -0.3313
14559W        W29690  14.727  14.792   0.327  0.1250 -0.1465  0.1271
14560W        W29691   0.058   9.166   4.613  0.1536  0.2415  0.1106
14561W        W29692   7.191  14.662   6.443 -0.0707 -0.4942  0.0401
14562W        W29693  17.442  11.025  13.291  0.1379  0.0100 -0.2103
14563W        W29694  14.930   6.667   4.654 -0.1210  0.1423  0.2192
14564W        W29695  13.458   1.541   2.609 -0.0951  0.0790  0.1738
14565W        W29696  17.937   9.127   2.008 -0.0741  0.1796 -0.0941
14566W        W29697  15.716   0.743  13.363 -0.0099  0.0925 -0.0710
14567W        W29698  14.563   6.259  11.931  0.0469  0.2103 -0.4415
14568W        W29699   6.164   2.553  16.043 -0.1650  0.2849  0.0882
14569W        W29700   2.894  16.880  15.437 -0.1623 -0.1339  0.1743
14570W        W29701  11.125  15.461  14.422  0.2174  0.1569 -0.0717
14571W        W29702   0.126   9.583   4.909 -0.2276  0.1119 -0.0967
14572W        W29703   5.722   3.332   0.405 -0.0808  0.1293 -0.0954
14573W        W29704   4.403  15.475   1.419  0.2234  0.0764 -0.1906
14574W        W29705  10.694   3.056   1.516  0.1029 -0.5260  0.3251
14575W        W29706  16.608   1.492   0.364  0.0006 -0.0880 -0.0560
14576W        W29707  12.438   9.273  15.256  0.0240  0.2639 -0.1959
14577W        W29708   3.043  11.319   9.942 -0.0406 -0.0727  0.0099
14578W        W29709  13.554  10.280   3.523  0.3863 -0.0392 -0.3786
14579W        W29710  16.021  13.297  12.183  0.5341 -0.2336  0.3214
14580W        W29711   8.014   7.891  11.658 -0.0527  0.0517  0.0756
14581W        W29712  16.179   5.550  14.807 -0.0938 -0.1332 -0.0029
14582W        W29713   0.446   8.666   4.242  0.4010  0.2829  0.0503
14583W        W29714   4.213   4.229  15.514 -0.1797 -0.0392  0.0690
14584W        W29715  11.681   6.847  14.320  0.0805 -0.1724 -0.1427
14585W        W29716  15.533  13.668   5.700  0.1080  0.0146  0.0637
14586W        W29717   0.708  16.991   2.328 -0.1432  0.3136 -0.1230
14587W        W29718   6.260  16.876   0.115 -0.0990  0.0334 -0.2136
14588W        W29719   6.106   7.979   1.742  0.2201  0.0529  0.2538
14589W        W29720  13.133  10.786  13.119 -0.0075  0.1815  0.0094
14590W        W29721  10.079  11.440  14.125 -0.1433 -0.0651 -0.1046
14591W        W29722  17.363  10.235   1.988  0.0871 -0.2300 -0.0258
14592W        W29723   6.633  14.838  12.812  0.3443 -0.0136  0.0922
14593W        W29724   2.363  11.471  14.905  0.0373  0.5252 -0.0358
14594W        W29725  17.472   9.603  15.528 -0.1229  0.0480  0.0621
14595W        W29726   7.060  10.871   4.746  0.0848 -0.0044  0.3521
14596W        W29727   9.374   7.090  12.626 -0.1703  0.0740  0.0079
14597W        W29728   9.271  12.826  13.367 -0.0038 -0.2030  0.0394
14598W        W29729  12.986  13.226  14.162 -0.1396  0.0488  0.2990
14599W        W29730  17.856   2.204   2.450 -0.0086  0.0491 -0.0560
14600W        W29731   6.417  10.476  12.893  0.1026 -0.0679  0.0563
14601W        W29732   9.766  11.815  14.387 -0.2913  0.1827 -0.1524
14602W        W29733  11.917  10.713   5.737  0.2369  0.0249  0.1523
14603W        W29734   4.755   2.781  12.517 -0.0890  0.2266  0.2436
14604W        W29735   8.699   6.249   0.284  0.4557  0.3605 -0.1144
14605W        W29736  14.532   1.522  15.105 -0.3776  0.0444 -0.1541
14606W        W29737  12.130  17.218   3.584 -0.2041 -0.0655  0.2858
14607W        W29738   8.241   6.762   1.260  0.1039 -0.0978  0.0544
14608W        W29739  14.098  17.260  12.754 -0.1594 -0.0586 -0.1836
14609W        W29740   2.819   5.720  12.538  0.0996 -0.3413  0.0355
14610W        W29741   5.348   1.617   1.977  0.0148 -0.1612 -0.1101
14611W        W29742   3.199   1.094   3.345  0.1186 -0.1350  0.1423
14612W        W29743   0.555   5.401  11.447  0.0305  0.5939  0.1775
14613W        W29744   1.161  11.469   1.520 -0.1932 -0.0128  0.2265
14614W        W29745  14.368  10.804  13.946  0.2458  0.0589  0.0792
14615W        W29746  12.959  17.245   3.267 -0.3683 -0.3067 -0.0178
14616W        W29747   4.222  17.444   5.355  0.0672  0.1300 -0.0519
14617W        W29748   6.583   1.528   3.506 -0.0561  0.3279  0.2742
14618W        W29749  14.009   4.886   1.171  0.2487  0.2083  0.2323
14619W        W29750   1.720   2.596  14.839  0.0247  0.2020  0.2834
14620W        W29751   2.870   0.454  12.331  0.0287 -0.1217  0.2101
14621W        W29752   2.155  13.346  13.185 -0.0073 -0.1384 -0.1389
14622W        W29753  10.559  10.879  15.111 -0.2185  0.0333 -0.0387
14623W        W29754  13.409  13.675  12.628 -0.0462  0.0198  0.1421
14624W        W29755  10.302  17.762  16.136  0.0945 -0.0567 -0.0558
14625W        W29756  16.249  16.451   4.965  0.1453  0.0357 -0.0750
14626W        W29757  11.635   5.962  13.341 -0.1989 -0.0014  0.0967
14627W        W29758  13.819  16.964   0.429 -0.3730 -0.0727  0.1729
14628W        W29759   9.397   6.975  15.825  0.3107 -0.1739  0.0328
14629W        W29760  10.536  18.005   1.509  0.3431  0.0533 -0.0349
14630W        W29761   5.732  10.428   0.081 -0.1128 -0.1631  0.0838
14631W        W29762  10.436  12.034  15.238 -0.1978  0.2111  0.2715
14632W        W29763   8.900   3.519  10.925 -0.0160 -0.0069 -0.1007
14633W        W29764  15.943  17.830  13.720  0.1733  0.0453 -0.0607
14634W        W29765  15.840  12.115   2.924 -0.1593  0.1255 -0.0127
14635W        W29766  11.911  17.940   3.432  0.0127  0.2189 -0.1111
14636W        W29767  16.646   5.928   6.578  0.1926 -0.1040  0.0019
14637W        W29768  13.140  17.205  11.585  0.0856  0.1544  0.0617
14638W        W29769  12.843  17.662   3.062 -0.2080  0.1656  0.0834
14639W        W29770   8.433   7.889  13.191 -0.0931  0.2055 -0.0870
14640W        W29771   5.442  16.144  11.757 -0.1460  0.1191 -0.1713
14641W        W29772   6.442   6.605   1.726 -0.1742 -0.0772 -0.0272
14642W        W29773  10.476  15.200   1.892 -0.3098 -0.0027  0.1445
14643W        W29774  11.157   1.311  11.721 -0.0148 -0.0277 -0.0504
14644W        W29775   9.245   9.513  15.220  0.0367 -0.1388  0.1925
14645W        W29776   4.828   8.640  14.663 -0.4239  0.3188  0.1262
14646W        W29777  10.647   5.241  11.500  0.0312  0.0010 -0.0408
14647W        W29778  14.803   3.245   2.847 -0.1081 -0.0275 -0.1331
14648W        W29779  17.254   1.336  14.028 -0.0290  0.2754  0.0788
14649W        W29780   6.373   1.042   4.415 -0.0794 -0.0524 -0.3276
14650W        W29781   9.841  12.410   3.716  0.0480  0.3655  0.1758
14651W        W29782  17.678   5.037   5.325 -0.3314 -0.0544 -0.1863
14652W        W29783   1.677  10.792  14.849  0.1027 -0.1515 -0.0320
14653W        W29784  12.962  12.975   1.226  0.2853 -0.1336  0.0739
14654W        W29785   2.676  15.781   1.217  0.0208  0.2296 -0.2605
14655W        W29786   4.609   0.605   0.091 -0.0864 -0.1215 -0.1162
14656W        W29787   3.216   8.425   2.064 -0.0600 -0.0388  0.2312
14657W        W29788   5.828  10.409   1.892 -0.0312  0.1512  0.3540
14658W        W29789   1.523   5.816  14.221  0.1590  0.2256 -0.2012
14659W        W29790  14.125  14.548   4.136 -0.1953  0.4088 -0.3103
14660W        W29791   5.353   7.275   3.186  0.0861  0.0060 -0.2101
14661W        W29792   8.116   2.220   4.559  0.0291  0.2165 -0.4115
14662W        W29793  16.626   9.144  13.480  0.1505 -0.3362 -0.2244
14663W        W29794   7.804  15.704   4.999 -0.4231  0.1050  0.2223
14664W        W29795  15.594   7.396  16.052 -0.4322  0.1721 -0.0488
14665W        W29796   6.625   9.251   2.648  0.0741  0.0501  0.2796
14666W        W29797   7.845  17.300  16.295  0.1854  0.1266 -0.0908
14667W        W29798   0.962   1.263   1.192 -0.2891 -0.1042 -0.2052
14668W        W29799  14.628   5.485   2.876 -0.2691 -0.0558  0.2577
14669W        W29800   8.867  12.889  14.394 -0.1789  0.3145  0.1812
14670W        W29801  10.815   3.890  13.910 -0.1224 -0.2735  0.0082
14671W        W29802   3.784  13.085  11.734  0.0104 -0.1015 -0.0409
14672W        W29803   1.084   1.666   2.983 -0.0314  0.0575 -0.0238
14673W        W29804   0.150   5.834   0.147 -0.0818  0.3425 -0.0656
14674W        W29805  15.944  13.588   4.222 -0.1835  0.1252 -0.2386
14675W        W29806   6.916   7.467  12.027 -0.0130  0.2004  0.1814
14676W        W29807  10.306  12.277  12.466 -0.2063 -0.1487  0.1255
14677W        W29808  12.078   7.520   3.084 -0.2430 -0.0201  0.1752
14678W        W29809   3.518  11.287  13.270  0.1803 -0.1236  0.2739
14679W        W29810  16.956  11.955  15.353 -0.1322 -0.0102 -0.0000
14680W        W29811  16.433   2.788  12.848 -0.0983 -0.2131  0.2174
14681W        W29812   7.129  12.842  12.669  0.0294 -0.0488  0.1186
14682W        W29813   6.467   5.411   0.877  0.6528  0.0132 -0.2179
14683W        W29814   1.401   0.310   2.870 -0.4406 -0.0179  0.1361
14684W        W29815  13.947   4.446   5.265  0.4207 -0.2120  0.1611
14685W        W29816  15.334  15.367  14.781 -0.0613  0.2001  0.1341
14686W        W29817  16.511   2.475   6.587 -0.0121 -0.1152  0.1846
14687W        W29818  17.183  11.875   5.112  0.0402 -0.0673  0.3168
14688W        W29819   0.379  17.145   3.793 -0.0459 -0.0261  0.2915
14689W        W29820   1.066  15.509   2.582 -0.1642  0.1750  0.0653
14690W        W29821   8.686   9.211   1.796  0.1036 -0.1699  0.0478
14691W        W29822   3.904  10.334  12.402  0.1663  0.2564  0.0508
14692W        W29823   6.977  15.906  11.915  0.0421  0.1088  0.0643
14693W        W29824  16.564  14.477  16.284  0.2036 -0.2467  0.2182
14694W        W29825  10.152  16.743   3.473  0.1616 -0.0581 -0.2487
14695W        W29826   4.233  12.750  15.011  0.0989  0.1368  0.0027
14696W        W29827  12.453  13.525   0.009  0.1400 -0.3598  0.1233
14697W        W29828  10.704   2.838  14.458  0.1715  0.3049 -0.0267
14698W        W29829   1.656  14.728   4.138  0.1119 -0.1520  0.0567
14699W        W29830   6.359  14.984  13.777  0.1744 -0.0093  0.3110
14700W        W29831  13.073  13.093   2.152  0.1695 -0.2247  0.0385
14701W        W29832   1.642   8.794   3.305  0.0566  0.0173  0.3258
14702W        W29833  13.505  14.392   1.374 -0.0096  0.0388 -0.1793
14703W        W29834  17.886  16.195   6.125  0.1310 -0.3077 -0.0327
14704W        W29835   6.404  10.209  15.690  0.1137  0.0460  0.1609
14705W        W29836   3.893   9.352  12.564 -0.0556  0.2423 -0.1732
14706W        W29837  13.431  14.071   4.890  0.1638 -0.0777 -0.1309
14707W        W29838   7.662  16.069   3.857 -0.1706 -0.2266 -0.2101
14708W        W29839  11.855   8.720  14.835 -0.0270 -0.2426  0.0473
14709W        W29840   1.646  11.367   1.253  0.4723 -0.3335 -0.0970
14710W        W29841   6.395   9.172  12.452  0.0855 -0.2102  0.1188
14711W        W29842   5.189  17.678   5.276  0.0592  0.2600  0.0759
14712W        W29843  17.232   9.625   1.499 -0.1314 -0.1556  0.2287
14713W        W29844   5.667   9.910  14.260 -0.2170  0.1555  0.1849
14714W        W29845   3.157  16.584  15.119  0.3149 -0.2084  0.0623
14715W        W29846  14.278   5.438   6.281 -0.0423 -0.1305  0.0321
14716W        W29847   8.717  16.854  10.465 -0.1648  0.4843  0.0179
14717W        W29848   2.569  13.641   0.117  0.1434 -0.1306  0.0840
14718W        W29849   2.325  15.613   5.381  0.3214  0.2310  0.2714
14719W        W29850   4.561  16.665   0.677 -0.2245 -0.0689 -0.5734
14720W        W29851  10.978  17.656  13.980  0.1032 -0.1399 -0.2123
14721W        W29852   5.979   2.348   5.325 -0.1590 -0.0368 -0.1471
14722W        W29853   1.421  14.075  13.562  0.2802 -0.0169  0.0187
14723W        W29854   4.975  13.001   2.888 -0.1148  0.0225 -0.0968
14724W        W29855   1.965   0.412   3.624 -0.0904  0.1667 -0.0207
14725W        W29856   6.985  14.137  12.614  0.1032 -0.0914 -0.1851
14726W        W29857   7.923  10.921  11.070  0.1884 -0.2988 -0.0175
14727W        W29858  13.251   8.436  15.037  0.1261  0.2018  0.2048
14728W        W29859   8.328   3.048  16.319 -0.2952 -0.1896  0.0213
14729W        W29860  16.112  14.483  16.048 -0.1662 -0.1577 -0.1158
14730W        W29861   2.080  13.609  16.225 -0.2659  0.1363 -0.1416
14731W        W29862   2.683  13.645  14.866 -0.0653  0.2813  0.1318
14732W        W29863  15.914  17.401  11.507  0.1216 -0.1166  0.1609
14733W        W29864  12.575  14.049  15.030  0.0144 -0.1780  0.4225
14734W        W29865   5.614  12.844   1.008 -0.0990  0.1073  0.1986
14735W        W29866   1.158   6.920   2.095 -0.1063 -0.3311  0.2086
14736W        W29867   4.528   1.583   0.722 -0.0010 -0.0429  0.1329
14737W        W29868  15.994   7.879   5.644  0.0812  0.2682 -0.0506
14738W        W29869  10.737   2.201   3.529  0.0336 -0.2566 -0.1355
14739W        W29870  14.738   3.288   3.783  0.1660 -0.2118  0.2434
14740W        W29871   6.674  14.209  14.202  0.3235  0.0489 -0.0886
14741W        W29872   9.574   7.943   2.374  0.0126  0.1142  0.0689
14742W        W29873  17.199   9.822   2.873  0.3448 -0.0086 -0.0539
14743W        W29874   1.012  16.468  14.704  0.2119 -0.1820 -0.1615
14744W        W29875   0.554  15.748   0.952 -0.3437 -0.1539  0.0303
14745W        W29876   9.136   5.831  12.690  0.0522  0.1880 -0.5556
14746W        W29877   7.324   5.434  10.153  0.2400 -0.2731  0.2906
14747W        W29878   7.889  10.632  14.224  0.0914 -0.0038 -0.2234
14748W        W29879  14.743   1.149  11.812 -0.0702 -0.0888  0.2189
14749W        W29880   6.587   7.278   3.354 -0.2344  0.2718  0.1273
14750W        W29881   9.032   6.593  14.055 -0.0173 -0.0276  0.0028
14751W        W29882  12.338   4.573   2.442 -0.2982  0.0856 -0.2656
14752W        W29883   7.244   0.537  16.212 -0.1201 -0.1870  0.1958
14753W        W29884   3.007  11.176   1.725 -0.1408 -0.2102  0.0658
14754W        W29885  15.831  16.866   3.146  0.1757  0.0420  0.0301
14755W        W29886  11.148  17.434  16.297 -0.1899 -0.0445  0.1319
14756W        W29887  12.059  16.706  16.445 -0.1788 -0.0457  0.1135
14757W        W29888   9.766   0.667  11.814 -0.0037 -0.1300 -0.3013
14758W        W29889   4.996  17.896   6.111 -0.1817 -0.0849 -0.3383
14759W        W29890  17.910   4.748  12.797 -0.0310 -0.3363 -0.1292
14760W        W29891  14.837   2.493   4.725 -0.1748  0.1522 -0.0168
14761W        W29892  12.492   2.308  14.674  0.2012 -0.4395 -0.3287
14762W        W29893  16.450   0.763   3.936 -0.0884 -0.1376  0.2586
14763W        W29894   5.075   1.220  11.606  0.0899 -0.0716 -0.2402
14764W        W29895  15.040   2.115  13.397  0.1087  0.1345 -0.1267
14765W        W29896  16.520   1.693   4.962 -0.0498  0.1874  0.0153
14766W        W29897   5.476   4.341   0.535 -0.1392  0.2957 -0.4158
14767W        W29898   7.196  11.978   5.316 -0.0114 -0.2756 -0.2655
14768W        W29899  10.646   7.114   4.558  0.1994 -0.0725 -0.4411
14769W        W29900   0.637  14.263  13.646 -0.2012 -0.0455 -0.1180
14770W        W29901   6.772  14.971   2.518 -0.0179 -0.4448  0.0781
14771W        W29902   2.703  14.053   1.888 -0.2119  0.1258  0.0564
14772W        W29903  17.113   4.908  11.762 -0.1956  0.4003  0.2323
14773W        W29904   2.283  13.909  13.113  0.0895  0.0383  0.3613
14774W        W29905   8.278  10.848   5.278 -0.2129 -0.1093 -0.0700
14775W        W29906   5.594   4.604  16.080 -0.0545  0.0992  0.0231
14776W        W29907  17.894   4.296  11.540  0.2790 -0.0831  0.1591
14777W        W29908   8.698   8.862  16.302 -0.1997 -0.0468 -0.0816
14778W        W29909   0.526  16.665  12.016  0.0409  0.2670  0.4254
14779W        W29910  16.687   2.450   3.684  0.0696  0.2811 -0.0633
14780W        W29911   4.987   9.821   2.985 -0.0911 -0.0426  0.0029
14781W        W29912  17.256   3.995  12.210  0.1742 -0.1777  0.0144
14782W        W29913  17.778   9.176  15.398  0.0736 -0.1045  0.2455
14783W        W29914   4.484  15.215  11.281 -0.0451 -0.1123 -0.0329
14784W        W29915  14.833   4.945  10.915 -0.2094 -0.0019 -0.2835
14785W        W29916   4.819   2.540  13.779  0.2245  0.0029 -0.0794
14786W        W29917   6.601  17.330  16.250  0.0088  0.1128  0.0329
14787W        W29918   3.969   0.012   3.196  0.0608  0.2430 -0.0290
14788W        W29919   7.156  13.675  11.167 -0.1431  0.1752 -0.0525
14789W        W29920  12.640  14.763   1.019 -0.1063  0.1647 -0.1576
14790W        W29921  11.729  14.548   1.098 -0.1414  0.3981 -0.2516
14791W        W29922  17.432  10.534   1.185  0.1089  0.0259 -0.0307
14792W        W29923   9.298   3.557  10.520 -0.1973 -0.0888  0.0953
14793W        W29924   3.933   5.095  16.369  0.2120 -0.1672 -0.0062
14794W        W29925  11.206   3.545   3.140  0.0729 -0.1953 -0.4052
14795W        W29926  17.517  10.700  16.376 -0.3593  0.1621  0.0559
14796W        W29927  10.239   6.877   2.928  0.2267  0.0653 -0.1937
14797W        W29928   6.475  13.517   4.684  0.1785  0.2301 -0.2685
14798W        W29929  12.521  11.038  13.241  0.1019 -0.0336 -0.0963
14799W        W29930   4.526   3.400   3.189 -0.2672  0.0858  0.1517
14800W        W29931   2.194  11.102   4.055  0.0429 -0.1542  0.4218
14801W        W29932  16.138   5.922   3.491  0.0490 -0.1089  0.1806
14802W        W29933  16.872  12.551   3.924  0.1583 -0.2124 -0.0016
14803W        W29934  11.796   2.892  10.478  0.0649  0.1115 -0.0988
14804W        W29935  13.561  11.582   9.992 -0.0730  0.2576 -0.2052
14805W        W29936  16.927   5.063  12.693 -0.3848  0.0236  0.1101
14806W        W29937   8.016  13.403  13.914 -0.1743  0.2371  0.1457
14807W        W29938   1.313   5.261   4.884 -0.2908  0.0726 -0.0855
14808W        W29939   3.003  14.596  10.674  0.0692  0.1376 -0.1760
14809W        W29940  12.302   8.977  15.966  0.0071  0.4439  0.2159
14810W        W29941   6.045   3.305   3.805 -0.3771 -0.0141 -0.1898
14811W        W29942  14.422  17.016  11.769  0.0409 -0.1006 -0.0449
14812W        W29943  15.375  12.173  11.295  0.3378  0.0131 -0.0230
14813W        W29944  11.087   6.407  12.622  0.1477 -0.0941  0.1503
14814W        W29945  12.560   9.456  13.571 -0.0498 -0.1371 -0.0008
14815W        W29946   3.650  13.364  12.295  0.3043  0.1873  0.2424
14816W        W29947  11.049  11.609   0.734 -0.0391 -0.0297 -0.1166
14817W        W29948   9.521  15.994   4.407 -0.3381  0.1867  0.2102
14818W        W29949  11.336   7.674  14.064 -0.1551  0.1150  0.2634
14819W        W29950  17.538   2.313   3.015  0.1797  0.1327 -0.0662
14820W        W29951   0.529   6.734  13.487  0.0493 -0.1554  0.0493
14821W        W29952  13.702  17.581   2.146  0.1485  0.3178  0.0190
14822W        W29953  13.258   4.408   2.668  0.4248 -0.1393 -0.4276
14823W        W29954   5.094  10.704  14.476 -0.0245 -0.1015 -0.0874
14824W        W29955   9.083   1.967  14.195  0.1993  0.1399  0.0513
14825W        W29956   0.568  11.934  12.282  0.2367 -0.3353 -0.2563
14826W        W29957  17.324  10.990   5.406 -0.0631  0.1099  0.0293
14827W        W29958   5.322  17.680  15.976  0.0739  0.1939  0.1695
14828W        W29959   6.720   3.305   4.065 -0.0032  0.1942  0.1188
14829W        W29960   3.321  16.856   0.428  0.1422 -0.2818 -0.0101
14830W        W29961   6.323  17.832   1.458 -0.0935  0.1218 -0.0447
14831W        W29962   7.522  14.528   1.918 -0.1790 -0.1104  0.1565
14832W        W29963  15.214  11.524  13.805 -0.0782  0.1635  0.2976
14833W        W29964   7.201  11.128   2.655 -0.0582  0.1049 -0.2489
14834W        W29965   8.074  15.490  13.211  0.1998  0.0740 -0.1595
14835W        W29966  12.247   3.288   2.193  0.0640  0.0862 -0.1256
14836W        W29967   0.378   6.752   2.342 -0.6966  0.1305 -0.2549
14837W        W29968   4.030   7.126   1.220 -0.1887 -0.2332  0.0508
14838W        W29969   4.341   2.950   1.757 -0.0717 -0.0968  0.1387
14839W        W29970   8.884   5.816   0.481  0.0208  0.0192 -0.2520
14840W        W29971   5.465   4.671   0.144 -0.0529  0.1071 -0.3025
14841W        W29972   4.522  16.414  14.636  0.2780  0.3337  0.0340
14842W        W29973   8.045   3.486  15.599  0.0457  0.0811 -0.0250
14843W        W29974   9.371  15.427   0.832 -0.1764  0.1301 -0.0833
14844W        W29975   9.541   9.953  14.142  0.0747  0.2213 -0.0626
14845W        W29976   8.444   1.234  13.918 -0.3837  0.2779 -0.3827
14846W        W29977   1.270   6.493   2.302 -0.1387 -0.0485 -0.0874
14847W        W29978  16.316   9.426   2.416  0.3282 -0.1605  0.1365
14848W        W29979   5.510  16.843   0.929 -0.1474 -0.2208 -0.2738
14849W        W29980  14.689  15.665   3.668  0.2683 -0.3362 -0.0531
14850W        W29981   5.676  15.018   4.104 -0.2385 -0.2025  0.0501
14851W        W29982  16.652   4.854  15.013  0.0822  0.2267  0.2257
14852W        W29983   7.305  15.972  10.646  0.1194  0.1703 -0.1729
14853W        W29984  16.356   9.860   5.251  0.1046  0.1698 -0.1763
14854W        W29985   0.481  12.680  15.893  0.1432  0.1437  0.3137
14855W        W29986   6.597  13.170   3.556  0.1045  0.2099 -0.2317
14856W        W29987   6.963  15.826   2.353 -0.4512 -0.0529  0.2201
14857W        W29988  17.544   4.315   1.184 -0.0546  0.1472 -0.1794
14858W        W29989   1.298   2.231  14.078  0.0604  0.0417 -0.0058
14859W        W29990   6.761   2.058  14.640  0.2739  0.1427  0.0715
14860W        W29991  14.507  14.196   2.012 -0.1171 -0.1663  0.2112
14861W        W29992   3.925   5.154   2.222 -0.1761 -0.0568 -0.0073
14862W        W29993   4.511   9.288   1.850  0.0425 -0.1102  0.1062
14863W        W29994  11.676  14.880   2.977  0.0838  0.0608  0.0799
14864W        W29995   2.329   6.905   2.714 -0.1651 -0.0133  0.1285
14865W        W29996  10.770   0.238   4.207  0.1304 -0.1220  0.0939
14866W        W29997  11.931   9.381   3.804 -0.2571 -0.1175 -0.0338
14867W        W29998   3.722   9.849   4.656 -0.0609 -0.0264  0.1035
14868W        W29999  14.476   5.615   3.614  0.2301  0.0642 -0.0613
14869W        W30000   5.771   3.269  15.290  0.2241 -0.2060  0.0527
14870W        W30001  16.965  17.379  10.665 -0.1132  0.1991  0.2368
14871W        W30002   7.695   0.364  15.381 -0.3104  0.0961 -0.0851
14872W        W30003  15.532  10.087  12.021 -0.0313 -0.3839 -0.1208
14873W        W30004   1.662   6.235   2.846  0.0001  0.2151 -0.0274
14874W        W30005   1.916   3.150   2.665  0.2888 -0.0565  0.0148
14875W        W30006  12.996  18.075   3.836  0.2623  0.0922 -0.0928
14876W        W30007  17.346  17.259   1.954  0.2243 -0.1127  0.0544
14877W        W30008   2.041   0.015   4.960 -0.4803  0.1614  0.1573
14878W        W30009   2.477   1.154  15.197 -0.2797  0.0493 -0.0978
14879W        W30010   4.671   5.419  12.736  0.1085 -0.0653 -0.0589
14880W        W30011  16.883   1.550   3.061 -0.1723  0.2055 -0.0388
14881W        W30012   0.330   9.820  14.480  0.0370  0.0153 -0.1878
14882W        W30013   0.590   0.668   4.407  0.4257  0.0975  0.1191
14883W        W30014  15.560  12.474   0.248 -0.1229 -0.3762  0.2498
14884W        W30015   8.872  17.655  11.654  0.0938 -0.0375 -0.0580
14885W        W30016   8.089   5.488   0.561  0.2141 -0.0132 -0.2146
14886W        W30017  12.193   8.651  10.483  0.0254 -0.0995 -0.0690
14887W        W30018   5.644  10.706   2.211  0.1636  0.1955  0.0120
14888W        W30019   9.369  16.411  14.700  0.1053 -0.0851 -0.0561
14889W        W30020   8.385  14.583  12.791 -0.1147  0.1594  0.0780
14890W        W30021   8.054  10.967   4.859  0.0571 -0.0317 -0.2449
14891W        W30022  15.675   2.963   6.422 -0.1306  0.1459  0.0349
14892W        W30023   8.670   8.155   5.437 -0.2780  0.2213  0.2251
14893W        W30024   0.022   3.341   0.326  0.1274  0.0181 -0.2148
14894W        W30025   5.283  16.862  12.654  0.3683 -0.1029 -0.1066
14895W        W30026   8.057  17.482   1.673 -0.0480 -0.0307 -0.0575
14896W        W30027  11.003   1.141  16.450  0.2939  0.0548  0.1303
14897W        W30028   5.629  14.798   1.991 -0.0284  0.3461 -0.2090
14898W        W30029   1.683   2.825   4.619 -0.0683 -0.0474  0.0604
14899W        W30030   1.557   9.103   2.890  0.1845 -0.0175 -0.1971
14900W        W30031  17.421   7.569  16.384 -0.0039 -0.0323  0.0606
14901W        W30032   2.104  13.397  12.669 -0.1016 -0.1128  0.2140
14902W        W30033  15.801   8.598   2.842  0.2641  0.0535  0.1662
14903W        W30034  11.815   3.854   5.514 -0.1444  0.1782 -0.3143
14904W        W30035  11.534  13.786   1.480 -0.2489 -0.0204  0.0824
14905W        W30036   5.645   3.811  15.196  0.2823 -0.2811  0.1516
14906W        W30037   3.399   9.557  11.037  0.5296  0.1440  0.0676
14907W        W30038  13.592  17.110   2.644  0.4653  0.2356  0.0733
14908W        W30039  13.330   3.740  12.294  0.0479  0.0481  0.0013
14909W        W30040   4.613   1.530   0.230 -0.2489 -0.1691 -0.0593
14910W        W30041   3.120   4.958   6.091 -0.0275  0.0852 -0.0954
14911W        W30042  11.578  17.355   2.769 -0.2075 -0.1420  0.2205
14912W        W30043   0.190  14.043   2.710 -0.0785  0.0234  0.6322
14913W        W30044   3.873  17.940  12.662 -0.0655  0.0501 -0.0371
14914W        W30045  17.220   2.742  13.363  0.0214 -0.0238  0.0903
14915W        W30046   1.036  12.046  14.036  0.0615  0.1177 -0.0046
14916W        W30047  12.676   6.533  10.118 -0.0612  0.2625 -0.0702
14917W        W30048  11.911  14.582   3.977 -0.2535 -0.1519  0.1252
14918W        W30049   0.072  13.077   2.238  0.2699  0.2315 -0.0624
14919W        W30050   2.398   4.964   1.650  0.2373  0.1436 -0.0051
14920W        W30051   5.124   2.631  12.779 -0.2675  0.2770  0.0090
14921W        W30052   2.209   6.594  11.690  0.0415 -0.0191 -0.1980
14922W        W30053   0.415   8.097   5.346 -0.1705  0.3659 -0.2424
14923W        W30054   9.822  16.927  15.266 -0.1455  0.3636 -0.0123
14924W        W30055   7.104  15.943   4.490 -0.0013  0.4002  0.0481
14925W        W30056   0.553  12.091  13.364  0.2677  0.1964  0.1371
14926W        W30057  11.018  14.958  14.140  0.1629 -0.0085  0.2233
14927W        W30058   0.389   6.667   3.272  0.2406 -0.0862 -0.3339
14928W        W30059  13.700   0.039   4.796 -0.3349 -0.4348 -0.3993
14929W        W30060  15.505   1.427   3.713  0.0645  0.0099 -0.3573
14930W        W30061   1.684  13.861  13.934  0.2113  0.2228 -0.0977
14931W        W30062  16.172   9.315   6.207  0.1576  0.1730  0.1216
14932W        W30063  18.018   8.383  12.649  0.0406  0.0686 -0.2060
14933W        W30064   1.051  13.795  12.751 -0.0981 -0.1175 -0.2076
14934W        W30065   2.756  14.028  13.046 -0.1275  0.1347 -0.0418
14935W        W30066   7.269   8.859   2.233  0.3870  0.1305  0.2762
14936W        W30067  17.459   3.491  12.111 -0.1113  0.0309  0.1028
14937W        W30068  10.790   4.907  14.888  0.1848  0.2163 -0.1232
14938W        W30069   9.518   5.345  16.156  0.0177  0.2738 -0.1992
14939W        W30070  15.569   9.577   1.862  0.2226 -0.0156  0.3036
14940W        W30071  11.211   5.155  13.513  0.0966  0.0634 -0.0219
14941W        W30072   1.755   5.489  11.186 -0.1025  0.0364 -0.1789
14942W        W30073  16.686  12.140  13.996 -0.1524  0.2584  0.2152
14943W        W30074  15.649  11.237  16.126 -0.1089  0.3655  0.0719
14944W        W30075   8.531   0.202  16.099  0.1384  0.2464  0.3194
14945W        W30076   6.966  16.566   3.616 -0.2124  0.0357 -0.2424
14946W        W30077   3.666   6.448  12.293  0.0186 -0.1787  0.2505
14947W        W30078  10.013   0.502   3.675  0.0677 -0.1072 -0.0079
14948W        W30079  12.721   0.985   0.700 -0.0127  0.0122 -0.0789
14949W        W30080   6.221  11.111   2.859 -0.1964  0.0745  0.1157
14950W        W30081   3.170   4.632  11.325 -0.0480 -0.0469  0.1204
14951W        W30082  10.602  10.805   6.720 -0.1685 -0.3052  0.3179
14952W        W30083   4.921  14.575   1.587 -0.0414 -0.0236  0.1943
14953W        W30084  12.928  15.730   3.607 -0.0457 -0.1001  0.0644
14954W        W30085   7.542  17.184  15.392  0.1815 -0.1680 -0.5073
14955W        W30086   6.452   1.878  13.788 -0.0582  0.0049  0.0936
14956W        W30087  12.914   4.624   3.052 -0.3866  0.3743  0.0231
14957W        W30088   2.029   0.763  15.315 -0.2496  0.2132 -0.2626
14958W        W30089  14.630   0.785   1.742  0.0400 -0.0586  0.4271
14959W        W30090   0.252  16.553   2.467 -0.1358  0.0639  0.1567
14960W        W30091   2.899  11.743   0.851 -0.0580  0.2850 -0.1335
14961W        W30092   9.793   1.717   1.478  0.2279 -0.1973  0.0945
14962W        W30093  12.728   1.508   3.300 -0.0605 -0.3706  0.1301
14963W        W30094   3.073   0.717   4.627 -0.0688 -0.2148  0.2128
14964W        W30095   4.349   9.049  13.453  0.1599  0.0071 -0.0383
14965W        W30096   3.516   7.691   3.159 -0.1985 -0.2914  0.1527
14966W        W30097   1.443   4.011   2.056 -0.1193 -0.3269 -0.1020
14967W        W30098   9.412  10.466   1.730 -0.0217  0.0023 -0.2266
14968W        W30099  13.710  16.593   2.864  0.2961 -0.2642  0.0808
14969W        W30100  16.749  10.357  14.078  0.1366  0.4986  0.0228
14970W        W30101  11.404   5.654  11.283 -0.1329  0.0748 -0.0345
14971W        W30102  13.178   7.294   4.044  0.0228 -0.0488 -0.0327
14972W        W30103   0.631   4.855   2.554 -0.0827  0.0593  0.1998
14973W        W30104   7.215   7.909  13.313  0.0012 -0.1410 -0.0549
14974W        W30105   1.137   1.283   0.309 -0.0920  0.2436  0.0593
14975W        W30106  10.388  13.419  12.005 -0.1468  0.1742 -0.4348
14976W        W30107  14.665  17.193  10.459 -0.4055 -0.0048 -0.0877
14977W        W30108   8.099  15.428   4.666  0.0057 -0.1411 -0.0635
14978W        W30109   9.510   6.503   2.373  0.2096  0.0112 -0.0103
14979W        W30110   7.557  10.525  11.717 -0.1209  0.0437 -0.0746
14980W        W30111  13.439  10.437  12.335 -0.0031  0.3273 -0.1617
14981W        W30112   6.179   8.431   2.817 -0.1541  0.3429 -0.0601
14982W        W30113   8.090   9.899   1.775 -0.1077  0.0471  0.0382
14983W        W30114  13.950   7.005  12.615  0.1291 -0.1640  0.2056
14984W        W30115  16.252  17.702   3.668 -0.1487 -0.0119  0.1615
14985W        W30116   6.764   1.710   3.991 -0.2170  0.1656 -0.0900
14986W        W30117  13.097  12.161   4.204 -0.0477  0.0231 -0.2612
14987W        W30118   7.823  11.678  13.876 -0.4176  0.2883  0.1607
14988W        W30119  15.844   0.037  15.571 -0.2158  0.1732 -0.0410
14989W        W30120  15.045   5.900   0.003  0.1375  0.0691 -0.2403
14990W        W30121  15.937  14.180   4.149  0.3154  0.0678  0.0096
14991W        W30122   9.007  17.820  13.701 -0.0825  0.0647  0.0098
14992W        W30123   3.622  15.998   0.718  0.0138 -0.0434 -0.2107
14993W        W30124   5.025   9.296   0.368 -0.2766 -0.0706 -0.2764
14994W        W30125  14.658  11.140  15.108 -0.0160 -0.0725  0.0206
14995W        W30126  11.583  15.906   1.498 -0.2208 -0.0804 -0.0936
14996W        W30127   1.245   4.528   4.573  0.3711  0.1336 -0.0412
14997W        W30128  17.756  15.579  13.815 -0.0243  0.2037 -0.2622
14998W        W30129  14.940  13.332  11.724  0.0532  0.4079  0.3222
14999W        W30130   1.965   0.002   4.052 -0.2015 -0.0373 -0.1098
15000W        W30131   2.519   5.335  16.135  0.0566  0.1049 -0.0783
15001W        W30132  12.171  12.733   2.422  0.1691  0.0529  0.2174
15002W        W30133   9.763  12.730  13.645 -0.0362  0.0678 -0.2622
15003W        W30134   9.231   0.618   2.491 -0.0223 -0.2313  0.3972
15004W        W30135   9.064   8.112   2.420  0.0737 -0.0869 -0.0677
15005W        W30136  14.546  17.524   4.085  0.4094  0.1457 -0.0683
15006W        W30137  16.389   1.335   2.972 -0.0639 -0.0310  0.0749
15007W        W30138   0.703  15.393   0.057 -0.2242  0.0302 -0.1210
15008W        W30139   9.064  10.719   2.649 -0.0298  0.3672 -0.2482
15009W        W30140   0.604   5.668  14.517  0.2368 -0.1852  0.0002
15010W        W30141   5.176  15.134   4.186 -0.0547  0.2775 -0.1552
15011W        W30142   9.818   5.559   0.603  0.0641 -0.2636  0.1129
15012W        W30143  14.705   2.769  15.709 -0.0947  0.0594  0.2906
15013W        W30144  11.795   5.419  15.705  0.0502 -0.0931  0.0109
15014W        W30145  14.535   8.571  12.292 -0.0892  0.0536 -0.0966
15015W        W30146   7.149  12.034  15.497 -0.2173  0.1659  0.0515
15016W        W30147  14.330   2.779   0.253 -0.0617 -0.4343 -0.0774
15017W        W30148   5.199  10.281  12.051  0.0721  0.1367 -0.0034
15018W        W30149   9.922  11.790   1.764  0.0182 -0.2274 -0.0606
15019W        W30150  11.709  11.745   2.612 -0.0284  0.4163  0.1341
15020W        W30151  12.908   9.080  15.309 -0.1793 -0.1087 -0.0672
15021W        W30152  13.417   7.498  12.211  0.1748  0.0569  0.1636
15022W        W30153   1.230  17.250   1.790  0.4703 -0.0793 -0.2063
15023W        W30154   1.816   8.911   1.052 -0.2033  0.1187  0.3260
15024W        W30155   6.792  11.034  11.436  0.2583 -0.1879  0.1100
15025W        W30156   5.103   9.622  10.938 -0.3374 -0.3768 -0.0213
15026W        W30157  15.410   9.992  13.495 -0.0487 -0.1775 -0.0764
15027W        W30158   7.181   8.026   4.800 -0.1234  0.0279  0.0818
15028W        W30159   5.941  10.123  15.886  0.0682 -0.1325  0.2694
15029W        W30160  11.824   2.360  11.189  0.1292  0.2566  0.1148
15030W        W30161  12.493   1.076  13.851  0.0513 -0.2185 -0.0501
15031W        W30162   1.657  16.330   4.128 -0.0705 -0.0710 -0.0185
15032W        W30163   8.741   9.518  12.278  0.0767  0.0481  0.1800
15033W        W30164   8.445  11.071   5.850  0.1448 -0.0060 -0.2861
15034W        W30165   4.432   1.056  10.687 -0.0600 -0.1065 -0.1945
15035W        W30166  13.965  14.842  12.120  0.0576 -0.1526 -0.2294
15036W        W30167  14.629  12.567   3.206  0.0527 -0.0808 -0.0372
15037W        W30168  15.484   6.005  11.776 -0.2519  0.2071 -0.2139
15038W        W30169   4.904  10.476  14.073 -0.0573 -0.2439 -0.0770
15039W        W30170   5.871  17.677   3.666 -0.0381  0.4162 -0.0869
15040W        W30171  11.369  10.852   3.668 -0.1636  0.0461 -0.0862
15041W        W30172  12.594   7.619  13.588 -0.3595 -0.1047 -0.1455
15042W        W30173   2.416   1.840  13.883  0.2100 -0.2099  0.1040
15043W        W30174  16.477   7.518  13.237  0.1734  0.1777  0.2606
15044W        W30175  11.198  16.077   3.386 -0.0095 -0.1646  0.2050
15045W        W30176  10.646  16.782  12.491  0.2516  0.1064  0.0744
15046W        W30177   6.099  15.440  14.522  0.2023  0.1466 -0.0687
15047W        W30178   7.584  16.876  14.669 -0.3391 -0.0606  0.0770
15048W        W30179  12.776   2.122  12.904 -0.0083  0.0260 -0.1996
15049W        W30180  14.694  13.454   2.836  0.2338  0.2570  0.1257
15050W        W30181   8.823   8.600  12.121 -0.2736 -0.0084 -0.2046
15051W        W30182  11.018   5.313  16.348 -0.2433  0.1439  0.1041
15052W        W30183  15.900   8.186  13.780  0.1579  0.2049  0.4650
15053W        W30184   6.974  14.981   3.970 -0.0529 -0.1869 -0.3033
15054W        W30185   1.173   3.016  11.476 -0.0762  0.0545  0.0981
15055W        W30186   6.791   3.334   2.060 -0.3987 -0.0691 -0.0257
15056W        W30187  12.497  10.700   4.908 -0.3110  0.2697 -0.0416
15057W        W30188  11.031   5.850  13.802 -0.1670  0.3982 -0.1305
15058W        W30189  14.721  16.271  15.955 -0.0652 -0.3522  0.0386
15059W        W30190  15.113  10.278   3.919 -0.1343  0.1345  0.0570
15060W        W30191  12.210   0.882  12.449  0.1459  0.1686  0.0590
15061W        W30192  15.864   7.285   2.958  0.2993  0.2849  0.0035
15062W        W30193   3.939  15.290   1.382  0.2153  0.0384 -0.2650
15063W        W30194   3.252   5.849   5.206 -0.0903  0.1421 -0.3274
15064W        W30195   4.864   2.228   4.896  0.3088 -0.2711 -0.1910
15065W        W30196   7.416  17.918   3.765 -0.1169  0.1315 -0.0026
15066W        W30197   0.219  15.473  15.054 -0.2594  0.0293 -0.0847
15067W        W30198   2.414  10.923  10.863 -0.1578 -0.1757  0.0208
15068W        W30199   8.968  13.830  13.814  0.0726 -0.1556 -0.1630
15069W        W30200  16.868  14.794  11.689 -0.3537 -0.0923 -0.1285
15070W        W30201  17.470   6.870  14.031  0.1807 -0.0075  0.2751
15071W        W30202   9.577   6.777  10.650 -0.1984  0.0095  0.3528
15072W        W30203   1.825  13.430  13.558 -0.0598  0.3533 -0.1725
15073W        W30204   6.858  18.055   4.996  0.0201  0.0925 -0.1015
15074W        W30205   5.903  15.235  11.329 -0.0286 -0.0145  0.2980
15075W        W30206   2.366   7.764   3.303  0.1577  0.0550  0.2015
15076W        W30207   1.869   6.672   5.231  0.0566 -0.0715  0.2133
15077W        W30208   8.964  11.401  14.187 -0.2868 -0.0886 -0.0050
15078W        W30209   5.130   5.258   5.076 -0.1858  0.0100  0.0633
15079W        W30210  13.161   6.275   4.137  0.0283  0.1708  0.0025
15080W        W30211   5.992  10.115   5.201  0.2092  0.2688 -0.0233
15081W        W30212  12.623   1.492  15.397  0.0340  0.2007  0.0492
15082W        W30213   6.627   5.455   1.935  0.2817  0.4217 -0.2386
15083W        W30214   6.705  13.322   5.080 -0.0123 -0.0776  0.3360
15084W        W30215   2.967  17.960   1.232 -0.0600  0.0250  0.1245
15085W        W30216  15.388   6.160  14.274 -0.0377 -0.2113  0.4365
15086W        W30217   9.802  16.503  15.951  0.1002  0.0109 -0.0196
15087W        W30218   6.784  10.796  12.745  0.0247 -0.0118 -0.1165
15088W        W30219   0.611  14.093  12.913 -0.0327 -0.0076 -0.2403
15089W        W30220   1.180   3.239   5.025 -0.0901  0.0967 -0.3605
15090W        W30221  14.633   0.185  15.283  0.3729  0.2982 -0.0626
15091W        W30222  17.187  13.606  11.832 -0.0207  0.1221 -0.1095
15092W        W30223   5.822  10.887  15.233 -0.1024 -0.0208 -0.3952
15093W        W30224   3.817  10.805  15.970  0.1864 -0.0586 -0.0744
15094W        W30225   4.782  10.419  13.543 -0.1532 -0.0134 -0.1606
15095W        W30226   8.908   3.313  15.521 -0.1242  0.1765  0.0087
15096W        W30227  15.435  10.213  14.521 -0.0033 -0.4701 -0.1302
15097W        W30228  11.345   5.779  15.652 -0.2850 -0.0739  0.0444
15098W        W30229  11.975  11.906   0.329 -0.1710  0.0585  0.5139
15099W        W30230   3.587   5.425  15.309  0.1029 -0.2517  0.0865
15100W        W30231   6.375   0.906  10.335  0.0790 -0.0106  0.0960
15101W        W30232   8.158  16.619   3.659 -0.0248  0.0554  0.3239
15102W        W30233   9.896  11.758   4.245  0.0358  0.0392 -0.0839
15103W        W30234   6.995   4.427   2.963 -0.0810 -0.1610 -0.1743
15104W        W30235  13.342   7.317   1.915 -0.0163  0.2064 -0.0303
15105W        W30236   6.540  18.014  13.017 -0.0614  0.0426 -0.0871
15106W        W30237  16.758  17.421   0.127 -0.1004  0.2742  0.2158
15107W        W30238  11.696  12.490  14.219  0.0024 -0.3714 -0.2676
15108W        W30239  17.926   9.334   3.084 -0.1963  0.0115 -0.0054
15109W        W30240   4.761  18.055  12.358 -0.0646  0.1354  0.1916
15110W        W30241   2.934   0.005   0.581  0.0637 -0.1760  0.2458
15111W        W30242  14.459   3.187   3.328 -0.0301  0.0198 -0.2307
15112W        W30243   7.130  14.609  12.545 -0.0214  0.2479 -0.2004
15113W        W30244   1.432   7.787   5.662  0.2269  0.0400  0.1093
15114W        W30245  14.550  15.351   4.007 -0.0573  0.0216  0.1333
15115W        W30246   2.407  10.952  13.028 -0.0070  0.3098 -0.1197
15116W        W30247   5.333   2.286  16.095 -0.0165 -0.2378 -0.1344
15117W        W30248  12.704   7.498   1.290 -0.1494  0.0165  0.3846
15118W        W30249   4.288   1.498  16.316  0.2532 -0.1432 -0.0105
15119W        W30250  13.256  13.153   5.818  0.1806  0.3565  0.0284
15120W        W30251  17.025   2.834   4.408 -0.2570 -0.1333 -0.0030
15121W        W30252   6.915   9.696   1.343  0.1087  0.1941 -0.2288
15122W        W30253   8.996   4.587  15.204  0.1999 -0.0947 -0.1029
15123W        W30254  12.812   1.718   3.754  0.2258  0.1039  0.1861
15124W        W30255   7.266   6.758   5.144 -0.3960  0.0825 -0.1014
15125W        W30256   4.612   8.436   4.233  0.0967  0.0894 -0.0540
15126W        W30257   4.001   2.765  13.276  0.1931 -0.3043  0.1934
15127W        W30258  12.028  11.764  16.084 -0.4668  0.2380  0.1090
15128W        W30259   6.307  13.364   2.249 -0.3354  0.1181  0.1515
15129W        W30260   5.147  10.930   5.338 -0.0671  0.2855 -0.1392
15130W        W30261  14.510  13.761   4.081 -0.0768  0.0820  0.0754
15131W        W30262   5.304   0.426  11.754 -0.3074  0.0355  0.2734
15132W        W30263   4.321   0.975  15.186  0.0413 -0.2315 -0.1450
15133W        W30264  12.343   4.737   4.218  0.0845 -0.0583  0.1057
15134W        W30265  15.826  13.633  14.866 -0.0899  0.1849  0.1333
15135W        W30266  10.636  14.579   2.938 -0.2056 -0.0457  0.2326
15136W        W30267   2.382  11.863   3.336 -0.0364  0.1300  0.0532
15137W        W30268   2.028   9.276  14.072 -0.1076  0.2547 -0.3959
15138W        W30269   4.640   0.210  11.903 -0.0281  0.1348 -0.0618
15139W        W30270   1.389  10.105   1.616 -0.0760  0.0041  0.0770
15140W        W30271   3.129  17.223  13.543 -0.2181 -0.0679  0.2668
15141W        W30272   1.950   5.652  11.643 -0.4369 -0.0713  0.0513
15142W        W30273   5.969  16.049  13.190  0.2519  0.2760  0.0646
15143W        W30274   9.136  16.659  12.024 -0.2414 -0.0508  0.0615
15144W        W30275   2.025  16.040  10.320  0.2190  0.2335 -0.2261
15145W        W30276   9.548   3.023  13.594 -0.0107 -0.1439 -0.2591
15146W        W30277  16.846   2.856  14.913 -0.1569 -0.2284 -0.2859
15147W        W30278   5.735  14.860   3.061 -0.3862 -0.1480 -0.0721
15148W        W30279   5.171   3.246   1.771 -0.1882  0.1024  0.0824
15149W        W30280   0.612  17.979   4.097  0.0766 -0.0060  0.0547
15150W        W30281   3.331  14.359  14.885 -0.1551 -0.0898  0.1093
15151W        W30282  10.926  10.613  16.251  0.0043 -0.0298 -0.1557
15152W        W30283  12.109   3.956  15.917  0.0131  0.1189  0.3215
15153W        W30284  15.498  15.917   3.618 -0.3331  0.1559 -0.1787
15154W        W30285  10.274   8.189   6.343 -0.0556 -0.0573  0.5018
15155W        W30286  14.128   9.734  12.539  0.1257 -0.0665 -0.1234
15156W        W30287   4.083  13.721   1.149  0.2121 -0.0444 -0.2932
15157W        W30288   9.369   2.630  13.792 -0.2123 -0.3940  0.1394
15158W        W30289  17.514   3.151  13.309  0.1108 -0.1705 -0.1031
15159W        W30290   0.341  13.868   3.611  0.1912 -0.1281 -0.3731
15160W        W30291  14.108  11.232   0.231  0.5808  0.0057  0.1468
15161W        W30292  16.879   0.217   2.565  0.0337  0.0973 -0.1341
15162W        W30293   2.956   9.460   2.864 -0.3044 -0.0384  0.2789
15163W        W30294  17.306   5.416   4.730  0.0065  0.0325 -0.4852
15164W        W30295   7.051   0.681  15.289 -0.1132 -0.1953 -0.1795
15165W        W30296   9.791   7.299  14.721  0.2149  0.1366  0.0969
15166W        W30297  15.139   8.963  14.431 -0.0295 -0.2759 -0.2292
15167W        W30298   3.659   8.372   0.862  0.3588  0.1099 -0.2212
15168W        W30299   7.106  18.090   2.290  0.0953 -0.1258 -0.0518
15169W        W30300  13.430  10.996   2.783  0.0448  0.1062 -0.3350
15170W        W30301  13.759   0.717   0.613 -0.0177 -0.6117  0.2477
15171W        W30302  14.535   2.286  12.434 -0.0643  0.5589  0.3388
15172W        W30303  11.602   2.076  15.711  0.4102 -0.2514  0.3953
15173W        W30304   3.161   1.420  12.712  0.2331 -0.0090 -0.2950
15174W        W30305  14.787   2.568  13.779 -0.0656 -0.1970 -0.3073
15175W        W30306  12.094  14.174  14.952  0.2980 -0.0473 -0.0207
15176W        W30307   6.548  13.144   2.700 -0.3021 -0.0145 -0.0815
15177W        W30308  14.459  17.692   3.556  0.2232 -0.3240 -0.0905
15178W        W30309   3.561   9.698   1.538  0.0688  0.2072 -0.1112
15179W        W30310   1.731   8.770  13.893  0.1842 -0.0177  0.0742
15180W        W30311  17.515  14.334   3.304 -0.0770 -0.0475  0.1516
15181W        W30312  13.414   2.008  11.463  0.2313  0.0263 -0.2455
15182W        W30313   2.354   1.907   2.025  0.2984  0.1261 -0.1896
15183W        W30314  14.445   1.926   0.572 -0.0500  0.0522  0.0852
15184W        W30315   2.942  15.932  10.863 -0.0417  0.1241 -0.0421
15185W        W30316   2.982   1.354  11.955  0.1080  0.0547 -0.1056
15186W        W30317  11.406   0.116  15.737  0.2001  0.1783  0.0324
15187W        W30318   5.900   2.271   0.478  0.3623 -0.1566  0.1863
15188W        W30319  13.869   4.250  13.586 -0.0521 -0.1587 -0.0783
15189W        W30320  13.489   8.409  11.785  0.0837 -0.2928  0.1329
15190W        W30321   5.006   5.124  15.041  0.3393  0.0564  0.2180
15191W        W30322   7.849  17.212   3.161 -0.1038  0.0963  0.0624
15192W        W30323  13.921  13.790   0.596  0.0696 -0.1512 -0.0165
15193W        W30324  10.397  10.056  11.987 -0.1288  0.1206  0.0508
15194W        W30325   5.727  16.973  11.215  0.0006  0.3153 -0.1756
15195W        W30326  15.479   9.280  14.632  0.4118 -0.0160  0.1899
15196W        W30327  17.496   7.385   2.648 -0.2561 -0.2053  0.2246
15197W        W30328  15.371   2.160   1.892  0.0742 -0.2082 -0.2724
15198W        W30329   8.895  17.422  11.168 -0.1362 -0.1007  0.2230
15199W        W30330  13.413   6.879  11.768 -0.1122 -0.0905  0.1004
15200W        W30331   7.790   6.202  15.059 -0.0821  0.1017 -0.1222
15201W        W30332   6.310   5.504   2.364  0.4705 -0.0281 -0.2075
15202W        W30333  12.875   0.043  10.424  0.0982  0.0932 -0.2447
15203W        W30334   7.993  12.627  12.227 -0.0335 -0.1784  0.0193
15204W        W30335   6.389   9.170   4.443  0.4499  0.0703 -0.2564
15205W        W30336   9.488  10.312   3.647 -0.3041  0.4364  0.0495
15206W        W30337   3.307   5.626  14.348 -0.0237  0.0076 -0.1597
15207W        W30338   3.313   1.633  14.298 -0.0381  0.0987  0.0649
15208W        W30339   7.359  15.225   5.025 -0.2189 -0.0962 -0.0659
15209W        W30340  17.068   5.155  13.190 -0.3464 -0.1122 -0.0237
15210W        W30341  17.923   4.029  14.301  0.2046 -0.0219  0.0164
15211W        W30342   2.207  12.456   1.703  0.1865  0.0097 -0.2652
15212W        W30343   5.049   3.333   2.262 -0.4411  0.2973 -0.1262
15213W        W30344   6.783   2.155  11.623  0.0472 -0.0883  0.1854
15214W        W30345  15.893   9.209   2.202 -0.1406  0.0046 -0.0726
15215W        W30346  15.691  13.503   1.243 -0.1264  0.1360 -0.2291
15216W        W30347   6.498   3.783  12.919  0.3717 -0.3466  0.1263
15217W        W30348   8.065  10.241  16.065  0.0796  0.2256  0.0231
15218W        W30349   5.869   7.769   1.340 -0.3424  0.2491 -0.0116
15219W        W30350  17.177   1.395  12.715 -0.1948  0.1446  0.2465
15220W        W30351   4.937  15.992   0.090 -0.2092 -0.2073 -0.1042
15221W        W30352   6.237   2.185   0.919  0.0193 -0.0631  0.2389
15222W        W30353  14.183   4.636   0.744 -0.0308  0.1322  0.2687
15223W        W30354  17.500   3.800   0.786 -0.0289 -0.0066  0.4221
15224W        W30355  11.437   3.886   0.006 -0.2674 -0.1227  0.1538
15225W        W30356  13.008   8.077   3.678  0.3316  0.0370 -0.1812
15226W        W30357  15.066   1.623  15.891  0.1135 -0.0873 -0.1134
15227W        W30358   9.168  17.995  12.575  0.2062  0.2532 -0.1120
15228W        W30359   8.673   0.541  11.185 -0.2396  0.1241 -0.1137
15229W        W30360   5.587  11.044  15.684 -0.0538  0.3739 -0.3152
15230W        W30361   8.597   1.809  11.456 -0.3440  0.2567 -0.1233
15231W        W30362  10.438   0.026  11.969 -0.0871 -0.1370  0.0819
15232W        W30363   9.893  16.667   1.786  0.2140  0.0347 -0.2581
15233W        W30364   2.047  10.168  12.701  0.0967  0.2892 -0.0504
15234W        W30365  17.844   4.205  16.363 -0.3350 -0.1805 -0.2342
15235W        W30366  11.326   6.210   2.493  0.0318  0.1392 -0.2079
15236W        W30367   7.819   5.469   1.379 -0.0016  0.3010 -0.0661
15237W        W30368   4.195   3.113   0.131 -0.0792 -0.0101 -0.1181
15238W        W30369  12.824   0.842   4.407  0.0009  0.0023 -0.1623
15239W        W30370  15.613  15.334   3.219  0.1875  0.0556  0.2344
15240W        W30371   7.858   0.620   3.069 -0.0531  0.0727  0.1895
15241W        W30372   6.094  10.477   5.500 -0.0137  0.3013  0.1292
15242W        W30373   5.212   6.200   9.986  0.1165  0.2270 -0.0935
15243W        W30374  11.625  16.536   4.264  0.1036  0.1737  0.2882
15244W        W30375   8.419  13.210  10.098 -0.2656 -0.0921 -0.1470
15245W        W30376  11.327  17.043  13.334 -0.1117  0.2293  0.3717
15246W        W30377   4.997   6.027   2.079 -0.1079  0.1195 -0.1304
15247W        W30378   7.756  11.598   4.515 -0.1555  0.1611 -0.1441
15248W        W30379   2.901   3.546   1.662  0.1791 -0.3117 -0.1814
15249W        W30380  12.616  11.107  11.609  0.0131 -0.1128  0.1910
15250W        W30381   0.563  11.407   2.966 -0.1460  0.0815 -0.0683
15251W        W30382  17.881   2.268  14.785 -0.0976  0.0765  0.0828
15252W        W30383   6.049   2.648   1.646 -0.0367  0.2747 -0.1207
15253W        W30384   7.599  11.344  16.361  0.0093  0.1728  0.4575
15254W        W30385   8.424  16.847  15.630  0.0843  0.0236 -0.0030
15255W        W30386  17.744  15.381  12.877 -0.0985 -0.3223 -0.3081
15256W        W30387   9.985   8.912  13.077 -0.5121 -0.1955 -0.4724
15257W        W30388   9.069  16.475   0.661 -0.0958  0.1537 -0.2198
15258W        W30389   6.043   8.942   3.641 -0.1227 -0.3215  0.1735
15259W        W30390   8.662   9.080  14.225  0.0646  0.2068 -0.0033
15260W        W30391   4.745   2.505   1.219  0.1462  0.2456  0.0280
15261W        W30392  16.521   2.652   2.609 -0.2368 -0.0211  0.0832
15262W        W30393   1.168  15.890  12.912  0.1154  0.0649 -0.0548
15263W        W30394   6.883   9.427  11.398 -0.1093 -0.3471 -0.2842
15264W        W30395  15.234  11.691  11.141 -0.1394  0.2528 -0.1201
15265W        W30396   5.494   2.916  12.636  0.1456  0.1899  0.1419
15266W        W30397   3.359  10.036   5.111 -0.0159 -0.3086  0.0300
15267W        W30398  18.086  11.301  14.215  0.0154 -0.2285 -0.0499
15268W        W30399  11.755  10.141   3.256  0.1034  0.1670 -0.3742
15269W        W30400  16.182   3.119  14.561 -0.2035 -0.2139 -0.0897
15270W        W30401  12.235  10.722  12.775 -0.3195 -0.3903  0.2087
15271W        W30402  13.137  14.746  15.159  0.2839 -0.3203 -0.1082
15272W        W30403   5.757   3.367  16.195 -0.1835 -0.0225 -0.2654
15273W        W30404   1.010  10.682   2.030  0.2696 -0.2403  0.2346
15274W        W30405   9.454  11.916   1.964  0.0198 -0.0869 -0.0789
15275W        W30406   5.149   4.309   2.731 -0.1745 -0.1857  0.0333
15276W        W30407   9.910  13.977  16.308 -0.1298  0.2944 -0.1273
15277W        W30408  11.848   4.161   1.339  0.1376  0.0583 -0.0278
15278W        W30409  13.353   1.529   5.055  0.1932  0.1509  0.0471
15279W        W30410   6.771   7.542   3.696 -0.0151  0.2494  0.2320
15280W        W30411   0.020   9.646  11.659 -0.0575 -0.0531  0.3763
15281W        W30412  12.921   0.514  10.212 -0.0737  0.0629 -0.0970
15282W        W30413   0.296  12.074   3.719  0.0679  0.1200  0.0511
15283W        W30414  13.915   1.767   0.921 -0.2467 -0.0318 -0.0333
15284W        W30415   7.812  10.058  11.649 -0.2641  0.1833  0.2484
15285W        W30416   9.986  16.829   5.062 -0.0605 -0.0179 -0.1074
15286W        W30417   8.847   4.676   1.095 -0.3424 -0.2179 -0.2243
15287W        W30418   8.801   4.294   3.464  0.2655  0.1839  0.4712
15288W        W30419   7.830  16.305   3.342 -0.2638  0.0577 -0.1186
15289W        W30420   9.325  11.532   5.023  0.0027 -0.1689  0.1504
15290W        W30421   3.213   9.866   4.674  0.1194  0.3119  0.1739
15291W        W30422   2.050   0.502  12.754 -0.2043 -0.1207 -0.1537
15292W        W30423   9.283  12.485  14.574  0.1660 -0.0936  0.0953
15293W        W30424   6.151  14.594   0.450 -0.2427  0.1450  0.0580
15294W        W30425   6.559  17.240   4.145  0.4648 -0.0951  0.3043
15295W        W30426   4.006   2.074  13.923 -0.0522  0.1445 -0.0879
15296W        W30427   6.716  14.202  13.706 -0.0402  0.0323  0.1111
15297W        W30428  16.609   9.067   4.958  0.0459  0.1776  0.1359
15298W        W30429  15.715  16.285  12.657  0.0768 -0.0231 -0.2479
15299W        W30430   4.826   1.608  15.104  0.0968 -0.0007 -0.0225
15300W        W30431   3.176  10.505   3.784  0.2711  0.1483  0.1203
15301W        W30432  16.333   7.900   3.356  0.1641  0.0205 -0.0350
15302W        W30433   5.503  12.410  14.825 -0.1803 -0.0870  0.0875
15303W        W30434  15.637   0.725   3.251  0.1626  0.0134  0.2223
15304W        W30435  11.899   8.213   5.652 -0.0039 -0.0876 -0.0058
15305W        W30436  10.628   5.332  15.964  0.3482  0.0926 -0.1297
15306W        W30437   9.287   5.380   3.451  0.2051 -0.2796 -0.2981
15307W        W30438   5.924   5.904  10.477  0.1901  0.3695 -0.2728
15308W        W30439   3.534   1.178  13.085 -0.1093 -0.1646  0.3909
15309W        W30440  13.884  11.122   3.703 -0.0842  0.3323 -0.3161
15310W        W30441  15.759   4.650   1.896  0.0050 -0.2151 -0.0767
15311W        W30442   3.665   6.800   2.257 -0.0331  0.2124 -0.0215
15312W        W30443   6.112  13.096  11.462  0.2559 -0.1367 -0.2219
15313W        W30444   0.616   5.220   0.839  0.1757 -0.1525  0.1776
15314W        W30445  11.518   5.178   0.673  0.0900  0.0041 -0.3408
15315W        W30446   1.910   1.763  14.677  0.1986  0.1048  0.0324
15316W        W30447  13.321   8.822  16.069 -0.2581  0.0482  0.0907
15317W        W30448   9.247  14.564  14.334  0.0964 -0.2569 -0.2471
15318W        W30449  10.071   0.505  12.662 -0.0316 -0.2255 -0.0410
15319W        W30450  11.589  15.581  14.525 -0.3782 -0.1610 -0.1696
15320W        W30451  10.970   0.791   2.318  0.0640  0.2363 -0.0796
15321W        W30452  13.103  17.556  12.962 -0.1247  0.2104 -0.3913
15322W        W30453  14.576   1.521   3.426 -0.0301  0.2353  0.2369
15323W        W30454  10.813   4.116   3.339 -0.2730 -0.0200 -0.0053
15324W        W30455   2.662   0.702   2.456 -0.1217  0.0035 -0.5884
15325W        W30456   3.929   6.586  12.703  0.0146  0.0304  0.0786
15326W        W30457   3.757  11.672   4.156  0.1381  0.1038  0.1342
15327W        W30458   8.791  15.607  15.524 -0.0923  0.4511 -0.6066
15328W        W30459   2.009   6.864   4.496 -0.2171 -0.0923  0.0509
15329W        W30460  16.734   2.011   5.769 -0.1226  0.0264 -0.0268
15330W        W30461   5.005   5.213  11.168  0.3124  0.2152  0.1092
15331W        W30462   0.693   2.440   3.591  0.1714  0.0671 -0.1159
15332W        W30463   6.476  11.806  10.966  0.5887 -0.2331 -0.1372
15333W        W30464   6.479  10.058  11.673  0.1021  0.0429  0.1539
15334W        W30465   5.136  12.478   3.265 -0.0270 -0.0034  0.1124
15335W        W30466   7.300  15.663   4.019 -0.0953  0.1337  0.2069
15336W        W30467   2.896  15.904   4.793  0.1322  0.1323  0.3214
15337W        W30468  11.280   3.000  15.133  0.2303 -0.1793 -0.0554
15338W        W30469  13.510   3.498   0.516  0.2508 -0.0257  0.1968
15339W        W30470  17.613  15.952  15.281  0.2195 -0.0720  0.0231
15340W        W30471   6.219  13.470   5.751  0.1420  0.0008  0.0370
15341W        W30472  16.947   1.087  16.036 -0.0262 -0.0419  0.0817
15342W        W30473  16.158  13.991   2.225 -0.2250  0.3056 -0.2263
15343W        W30474  16.990  10.791   5.092  0.1132 -0.0013 -0.1426
15344W        W30475   9.753   8.496   4.513  0.0906  0.0207  0.0159
15345W        W30476  15.683   1.692  15.530  0.0124 -0.2699 -0.2046
15346W        W30477  14.100  13.577   1.522 -0.2908 -0.2346  0.1053
15347W        W30478  10.692   3.621   3.088  0.1202  0.0630 -0.0547
15348W        W30479   5.879   8.836   0.125 -0.0666  0.0404  0.0631
15349W        W30480   0.034  11.462   3.161  0.0290 -0.3024 -0.0309
15350W        W30481  13.648   3.753  14.325 -0.1327 -0.0859 -0.0833
15351W        W30482  13.244   0.209  13.815  0.0353  0.0429  0.2632
15352W        W30483  15.646   9.033  13.700  0.1830 -0.3344  0.0512
15353W        W30484   3.024   0.418   1.220  0.3252  0.0903 -0.0065
15354W        W30485   3.437  12.333  10.822 -0.1521  0.2057 -0.1602
15355W        W30486  10.597   7.874   4.187  0.0243  0.2450  0.3658
15356W        W30487  18.090   7.669  12.052  0.1663 -0.0836 -0.3124
15357W        W30488  11.833  13.822   3.253  0.1272 -0.0974  0.3799
15358W        W30489   4.524   8.733  12.941  0.0700 -0.3171  0.0141
15359W        W30490  14.108   2.685   2.050 -0.1430 -0.2855 -0.0812
15360W        W30491  14.670   9.204  13.734  0.2903  0.1664 -0.1522
15361W        W30492   6.496   0.693   0.709 -0.0201 -0.3038 -0.2161
15362W        W30493   4.993  14.999   1.401  0.1363  0.0614 -0.1142
15363W        W30494   9.042  11.375   4.642  0.0690  0.0095 -0.1454
15364W        W30495   8.092   7.479  15.701 -0.2828  0.1116 -0.1418
15365W        W30496   4.841   8.361  15.925  0.2316  0.2083  0.1160
15366W        W30497   7.663  13.490   1.852  0.3480  0.0849 -0.0080
15367W        W30498  10.698   0.156   0.827  0.0706  0.2260  0.0748
15368W        W30499  10.024  15.203  12.825  0.3091 -0.2271  0.0485
15369W        W30500  11.771  15.579   5.266  0.1499 -0.3684 -0.2682
15370W        W30501  10.135  10.045   1.917 -0.0211  0.0079  0.1088
15371W        W30502   7.204   9.318   1.408  0.2171 -0.3029  0.2412
15372W        W30503  17.518   5.801  12.212  0.1063 -0.1292  0.0950
15373W        W30504  14.571   9.340   3.358 -0.0115  0.1459 -0.0014
15374W        W30505  14.198  12.360   3.006 -0.1281 -0.3683  0.1230
15375W        W30506  15.627   6.491   1.661 -0.0543 -0.1709 -0.2116
15376W        W30507  17.328  16.069   1.638 -0.1582 -0.0631  0.1471
15377W        W30508   6.845   1.527   5.974  0.0159  0.1116 -0.4106
15378W        W30509   1.067   7.090   2.578 -0.0431  0.4234  0.2016
15379W        W30510   0.606   2.039   4.410  0.1133  0.1665  0.0750
15380W        W30511  12.806  10.305   2.436  0.3693 -0.2513  0.0068
15381W        W30512  12.214   9.202   0.611 -0.0242 -0.1688 -0.1006
15382W        W30513   5.811   5.824   3.683 -0.0172  0.0777 -0.1837
15383W        W30514  17.470   6.895   3.517  0.1415  0.0080 -0.1089
15384W        W30515  14.475   4.391  11.913  0.1561  0.0987 -0.1323
15385W        W30516  10.933  13.606  15.379  0.0017  0.1208 -0.0725
15386W        W30517  10.570  12.893  15.241 -0.1755  0.0232 -0.2700
15387W        W30518  16.962   1.179   2.293  0.2351  0.0318  0.1611
15388W        W30519   7.602   4.040  13.452  0.0079 -0.0096 -0.0745
15389W        W30520   7.488   3.702  11.721  0.0880  0.2293 -0.1946
15390W        W30521  15.340  18.054   3.670 -0.2713  0.0038 -0.1552
15391W        W30522  14.440  12.377   2.517  0.1718 -0.1709  0.0687
15392W        W30523   8.649   6.254   3.734 -0.2774 -0.1069 -0.3856
15393W        W30524   2.137  15.904   4.817  0.0506 -0.0154  0.2627
15394W        W30525   5.845   7.223   0.652 -0.0425  0.0852  0.0983
15395W        W30526  15.387  12.342   2.020 -0.0345 -0.1648  0.2101
15396W        W30527   1.691   8.418  13.551  0.2923  0.3288 -0.3717
15397W        W30528   6.982  13.281  12.465 -0.2519  0.1868  0.1113
15398W        W30529   0.062  14.126   4.813 -0.1809 -0.1146 -0.1129
15399W        W30530   8.491  17.438  12.518 -0.1205 -0.1368 -0.1972
15400W        W30531   3.647   0.186  13.006  0.3261 -0.3759 -0.2227
15401W        W30532  15.750   5.147   4.019 -0.3270  0.1843  0.2259
15402W        W30533  17.986   9.881  13.188  0.0007  0.1012 -0.1250
15403W        W30534  17.120  13.940   1.142 -0.0805 -0.0886 -0.0426
15404W        W30535   3.972  17.243   1.313  0.2845 -0.3670  0.0427
15405W        W30536  17.546   8.685   1.327  0.3014  0.1585  0.0811
15406W        W30537   0.636   7.156   2.338 -0.1016 -0.1871 -0.2914
15407W        W30538   8.081   6.540   4.709 -0.1359  0.0000 -0.5742
15408W        W30539   7.969   6.952   3.961 -0.0763  0.0433 -0.2215
15409W        W30540  13.294  14.777   2.057  0.1956  0.0520 -0.0695
15410W        W30541   8.565  14.421  15.552 -0.0417 -0.5522 -0.1914
15411W        W30542   3.263  16.146   4.989 -0.1297 -0.3500  0.0725
15412W        W30543  15.303   6.675  15.568  0.0892  0.0161 -0.1922
15413W        W30544   6.392  11.809  13.350 -0.4227 -0.1750 -0.0699
15414W        W30545  13.472  13.569   5.785  0.0272  0.2843 -0.2142
15415W        W30546   0.247   0.076   0.697  0.3243 -0.0422 -0.0677
15416W        W30547  13.463  17.354  12.577 -0.0639  0.0331  0.3080
15417W        W30548   5.921  11.875   0.913  0.1288  0.2001  0.1043
15418W        W30549  18.012  12.890   3.081 -0.1814  0.2984  0.1625
15419W        W30550  13.470  10.381   1.981 -0.0685  0.0137  0.2130
15420W        W30551  17.459   4.055  14.563 -0.1528 -0.0861 -0.0003
15421W        W30552   3.625   4.590   2.914  0.0608  0.1068  0.2506
15422W        W30553   7.565   5.015  15.803 -0.0498  0.0713  0.3973
15423W        W30554  14.211   9.341  11.117 -0.1102  0.3977 -0.1410
15424W        W30555  17.324   2.712  10.964 -0.1943  0.0851 -0.0899
15425W        W30556   8.059   7.563   0.556  0.2484  0.1440  0.0891
15426W        W30557   4.115  14.278  11.482 -0.1677 -0.2061 -0.3366
15427W        W30558   3.291   3.058  12.179 -0.2666  0.3373 -0.1493
15428W        W30559   1.076   1.834   6.011  0.0803 -0.2526  0.0360
15429W        W30560  13.166  10.738   1.250  0.4781 -0.2075  0.0916
15430W        W30561  16.795  14.732   3.666  0.0535  0.1404 -0.0459
15431W        W30562   6.084   4.620   2.963 -0.1273  0.3997  0.0578
15432W        W30563  13.475   9.611  14.728  0.0041  0.0879  0.2027
15433W        W30564   9.193  14.665  16.339  0.2470  0.2589 -0.4880
15434W        W30565   0.648  13.133   3.962  0.0435  0.0286  0.1816
15435W        W30566  17.678  15.107  11.372 -0.1571 -0.5164 -0.0437
15436W        W30567   1.019   9.711   4.451 -0.0244  0.1797  0.0441
15437W        W30568   9.212   5.310  14.547 -0.1090 -0.3095  0.1387
15438W        W30569  10.723   3.030  12.839  0.0825 -0.0128  0.0138
15439W        W30570   8.446  17.571  15.010  0.2748  0.0213  0.0820
15440W        W30571   4.651  17.738   2.058  0.4507 -0.2277  0.1498
15441W        W30572  11.192   2.991  11.814  0.2669 -0.1014  0.0617
15442W        W30573   4.776   2.419   1.901 -0.0215  0.1184  0.1822
15443W        W30574   3.958   4.151  13.624  0.2829 -0.0666  0.1271
15444W        W30575   3.139   7.689  11.584  0.3573  0.3765  0.0084
15445W        W30576   8.053  10.512  11.441  0.3664 -0.0512  0.0505
15446W        W30577   1.673   5.781   0.617 -0.3488 -0.1519 -0.3665
15447W        W30578   8.417  14.267  13.864  0.0710  0.1127  0.1596
15448W        W30579   6.442  10.452   1.899 -0.1149  0.0484 -0.0461
15449W        W30580   5.676   7.783  13.106  0.2802  0.0371  0.0067
15450W        W30581   5.344  17.421  14.899  0.1000 -0.2553  0.2436
15451W        W30582   2.997   3.538  14.276 -0.0558  0.1553 -0.1060
15452W        W30583   1.163   0.475   6.345 -0.1529 -0.4764  0.3831
15453W        W30584  15.909  14.373  11.180 -0.3352  0.2928  0.2425
15454W        W30585  10.580  10.711   2.937  0.1182 -0.0244 -0.1189
15455W        W30586  11.838  17.030  11.599  0.1572  0.2589  0.3297
15456W        W30587  15.075  15.463  11.552  0.0674 -0.2087 -0.4332
15457W        W30588   1.576  14.772  15.613  0.4535  0.0206  0.0441
15458W        W30589   2.762  13.938   4.363  0.1325 -0.0942 -0.0587
15459W        W30590   0.409   8.600  14.291 -0.2455 -0.0269 -0.0873
15460W        W30591   8.186  11.903   4.326  0.2056  0.2514  0.0425
15461W        W30592  12.113   2.201   4.693 -0.0705 -0.1138  0.0403
15462W        W30593  11.462  16.117  12.954 -0.0263 -0.1887  0.0505
15463W        W30594   8.742   0.883  13.669  0.1343  0.5499 -0.0964
15464W        W30595   8.422   3.768   2.925 -0.1004  0.1407  0.5061
15465W        W30596   2.261  14.219  12.302 -0.0613  0.0953  0.0766
15466W        W30597  15.549   0.498   2.314 -0.0995  0.0410  0.3072
15467W        W30598   2.277  17.451  15.331 -0.0383  0.1039  0.1947
15468W        W30599  13.450   9.689   6.466  0.1967  0.1200  0.0541
15469W        W30600   3.266  11.678  15.549  0.2323  0.1348  0.0414
15470W        W30601   3.116   3.985   6.052  0.4935 -0.1683  0.0648
15471W        W30602   7.488  16.854   2.192 -0.0222  0.1008  0.2333
15472W        W30603   0.742   1.673  15.089  0.0416  0.0291  0.0884
15473W        W30604  11.206   3.652  11.629  0.1926  0.2104  0.1270
15474W        W30605  11.460   4.875  15.274 -0.0901  0.0235 -0.1390
15475W        W30606  13.450   6.826   4.201  0.1143 -0.2140 -0.3274
15476W        W30607   6.346   0.280  13.824  0.1989 -0.1917 -0.0793
15477W        W30608  17.825   5.218   1.491 -0.0394  0.1600  0.1486
15478W        W30609   7.079  11.017  15.461  0.2989  0.0371  0.0218
15479W        W30610  15.744   4.778   4.906  0.0995 -0.1490 -0.4571
15480W        W30611  15.351  11.676  15.492  0.0985  0.0955  0.0936
15481W        W30612   5.450   9.976  10.639  0.1593  0.0279 -0.2712
15482W        W30613  15.660   6.035   2.322  0.0312  0.0440 -0.4426
15483W        W30614   0.052  11.543   2.212  0.2794 -0.1719  0.0913
15484W        W30615   6.233  16.376   4.998 -0.1498 -0.2439 -0.0345
15485W        W30616   3.867   2.900  11.088 -0.1973 -0.0247 -0.2115
15486W        W30617   2.926   3.700  11.266 -0.0341 -0.2375 -0.0652
15487W        W30618   6.992  10.781  14.951  0.2738  0.0715  0.1513
15488W        W30619  14.522   6.073  11.457  0.0209  0.1056 -0.3673
15489W        W30620   8.635   1.375   4.360 -0.2186  0.1760  0.0073
15490W        W30621  15.909  13.695  11.796 -0.2207  0.0239 -0.0042
15491W        W30622   7.513  18.057  14.112 -0.1442  0.1679  0.1051
15492W        W30623  11.048  14.034   4.138 -0.0253  0.1670 -0.0814
15493W        W30624   0.681   9.669  10.316  0.1843 -0.0556 -0.1960
15494W        W30625   0.243   0.954   2.360 -0.4301  0.2673  0.1202
15495W        W30626  11.154  13.911   1.747 -0.0259 -0.0288  0.1811
15496W        W30627  15.743   1.790  11.992  0.2174  0.3087 -0.4247
15497W        W30628   9.926   5.931   3.707  0.1069  0.1559 -0.1284
15498W        W30629  14.695   9.990   5.373  0.0801 -0.1115  0.1502
15499W        W30630  12.165   1.638   1.985 -0.1597 -0.2642  0.5038
15500W        W30631   4.487   9.675   5.249 -0.0189 -0.0094  0.1829
15501W        W30632  12.527  16.872   1.941  0.0472 -0.2110  0.0134
15502W        W30633   2.846   7.024  12.741  0.1069  0.4032  0.0595
15503W        W30634  14.644  17.115   5.134  0.1858 -0.3876  0.2052
15504W        W30635   0.880  17.089   2.825 -0.2003 -0.1144 -0.1152
15505W        W30636  11.674   5.641  12.333  0.0078  0.1064  0.0737
15506W        W30637  13.750   6.495   5.645  0.1042 -0.2188 -0.1517
15507W        W30638  12.729   6.306   5.054  0.0066 -0.0416  0.1689
15508W        W30639   1.446  15.098  14.130  0.0819 -0.2253 -0.2129
15509W        W30640  11.182   7.694  10.245  0.1912 -0.2804  0.0126
15510W        W30641  12.865   6.693  14.692 -0.1667  0.0580 -0.0504
15511W        W30642  14.794   8.323   2.249 -0.2744 -0.0477 -0.2752
15512W        W30643  18.028   3.846   1.710 -0.0693  0.1636 -0.0008
15513W        W30644  16.287   5.659   5.406 -0.2869 -0.0517 -0.1127
15514W        W30645  12.977   6.302  16.358 -0.0025 -0.0876  0.0571
15515W        W30646  17.516   3.813  14.122  0.0790 -0.1146 -0.3378
15516W        W30647   2.629   8.237   0.697  0.1308 -0.2372 -0.1972
15517W        W30648  17.436   2.919   4.022 -0.4797  0.0092  0.1049
15518W        W30649   1.528  13.695   4.378 -0.1946  0.4097  0.0041
15519W        W30650   2.650  14.012   5.208  0.0789 -0.0316  0.1569
15520W        W30651   5.413  11.430   5.091  0.0055  0.0386 -0.3584
15521W        W30652   3.103  10.306  14.216  0.2208 -0.4589  0.2125
15522W        W30653   6.708   9.295   1.055 -0.2889 -0.2608 -0.1143
15523W        W30654   0.775  14.018   0.766 -0.3629 -0.0093  0.1520
15524W        W30655   7.270   9.531  15.393  0.0473  0.1011 -0.0498
15525W        W30656  17.882  17.300   2.729  0.1054 -0.0995 -0.1162
15526W        W30657   2.764  11.229   4.379  0.0540 -0.1596  0.0570
15527W        W30658  10.105   3.123   0.157 -0.2463 -0.1600 -0.0511
15528W        W30659   6.545   0.179   2.725  0.2617  0.0490 -0.0413
15529W        W30660   9.376   4.838  16.056  0.2805  0.0328  0.0084
15530W        W30661   0.161  12.720   4.350  0.0154 -0.2802 -0.1206
15531W        W30662   1.606   5.713  16.263  0.1413  0.1560 -0.1895
15532W        W30663  10.947   2.852  15.983  0.0950 -0.0111 -0.0027
15533W        W30664  14.044  14.682   2.751  0.0136  0.1110  0.0742
15534W        W30665   1.324   5.546   0.995  0.1022  0.1792  0.1030
15535W        W30666  10.782   8.924   2.245 -0.0810  0.1120  0.0955
15536W        W30667   3.981  13.006   3.055 -0.0161 -0.0783  0.2457
15537W        W30668  10.937  12.270  11.866 -0.0004  0.1700 -0.0909
15538W        W30669   4.214   8.038  12.042 -0.0239 -0.0733  0.0772
15539W        W30670   9.926  17.807   2.543 -0.1096 -0.0901 -0.2595
15540W        W30671   1.605  14.257   4.774 -0.4350  0.0807 -0.1052
15541W        W30672  12.998  11.659   5.695  0.0852 -0.1106 -0.1929
15542W        W30673  14.272   9.731  15.034 -0.3435  0.3773 -0.0441
15543W        W30674   8.638  15.235  14.518 -0.0392 -0.3329 -0.2883
15544W        W30675  12.440  16.340  11.516 -0.0109  0.1598 -0.0498
15545W        W30676  15.831   3.404   0.091 -0.0118  0.2590  0.0369
15546W        W30677  10.937  15.480   2.519  0.1410  0.0669 -0.2550
15547W        W30678  11.421  13.636   5.948  0.2101  0.0563 -0.0702
15548W        W30679   8.552  13.198  15.943  0.0711  0.2921 -0.0073
15549W        W30680   1.603   3.154   5.740  0.0482 -0.0333 -0.0443
15550W        W30681  14.182  14.056  13.214  0.1155 -0.0309 -0.1961
15551W        W30682   4.518  11.283   4.326 -0.1269 -0.0042 -0.1419
15552W        W30683  14.854  16.758  14.151  0.0947 -0.1147 -0.3221
15553W        W30684   3.909  15.913   5.548  0.2313 -0.0099 -0.0712
15554W        W30685   1.482  12.525   3.313  0.0575 -0.1533  0.0019
15555W        W30686   9.480   2.335   0.713  0.0146 -0.1348  0.0902
15556W        W30687   9.464   0.447   3.809  0.1082 -0.2926  0.1832
15557W        W30688   2.912  13.787  13.854 -0.1664 -0.0309  0.0081
15558W        W30689  12.515   7.991   1.858 -0.0707 -0.4074 -0.2981
15559W        W30690  13.437  11.242   0.808 -0.0239  0.3127  0.2975
15560W        W30691  14.206  14.688   4.604  0.0749  0.1009  0.1016
15561W        W30692  10.361  13.605  16.302 -0.2447  0.1765 -0.2703
15562W        W30693  13.708   0.753  14.186 -0.0026  0.1017  0.0478
15563W        W30694   6.357   8.499  15.985  0.0590  0.1128 -0.1241
15564W        W30695  13.529   3.027   1.502 -0.0313  0.0063 -0.0490
15565W        W30696  14.963   9.922   1.564  0.0232  0.2240  0.1125
15566W        W30697   0.857   9.116  16.105  0.0664  0.1517 -0.3181
15567W        W30698   7.164  16.065  15.162 -0.1461 -0.0273  0.0972
15568W        W30699  16.217   6.522   5.599  0.2948 -0.0198 -0.1701
15569W        W30700  11.375  18.045  14.055 -0.0548 -0.2135  0.0428
15570W        W30701  16.484   3.792   6.211  0.1087 -0.3265 -0.1774
15571W        W30702  15.439   5.935  14.765  0.2797 -0.2603  0.0766
15572W        W30703   9.617   3.280  13.134 -0.3871 -0.0572  0.1027
15573W        W30704   1.214  13.547  12.243 -0.1554 -0.2184  0.0977
15574W        W30705  11.128   2.047  13.336  0.1569  0.2504  0.0140
15575W        W30706   1.150   0.713   1.159  0.0193 -0.4801  0.1072
15576W        W30707   8.088   4.861  13.609  0.4370 -0.1236  0.1734
15577W        W30708   4.629  17.613   5.123 -0.1277 -0.2541  0.1002
15578W        W30709  12.540   8.367   4.504 -0.0459  0.2808 -0.3067
15579W        W30710   0.687   3.415   1.193  0.3020  0.1587 -0.1678
15580W        W30711  10.541   8.453  12.011 -0.2946 -0.3115  0.2719
15581W        W30712   3.286   5.575   1.793 -0.0206  0.3716  0.0757
15582W        W30713   6.171  16.842   1.733 -0.1067  0.2268 -0.0287
15583W        W30714  13.694   6.946   4.684  0.0979  0.0740 -0.1975
15584W        W30715   8.831  12.461   0.637 -0.3408  0.0990 -0.1828
15585W        W30716   8.326  13.968   1.438 -0.0364  0.1390 -0.0538
15586W        W30717  15.658  12.108   5.261  0.0940  0.0218 -0.3013
15587W        W30718  13.078   2.778  13.358 -0.2360 -0.3966 -0.0186
15588W        W30719   8.246  15.191  12.264  0.3421 -0.0485 -0.1299
15589W        W30720   9.309  17.187   0.098 -0.1887  0.2838 -0.2364
15590W        W30721   6.543   4.628  15.445  0.0575 -0.3008 -0.1331
15591W        W30722   0.530  14.157  14.375  0.1886  0.0423 -0.5983
15592W        W30723   6.452   1.381  11.296 -0.1702 -0.0009 -0.1401
15593W        W30724   4.108   3.823   1.278 -0.3316  0.2031 -0.0552
15594W        W30725   3.283  10.775  10.782  0.1160  0.2087  0.0208
15595W        W30726  15.950   5.169  14.656  0.2803 -0.0650 -0.0499
15596W        W30727   5.316   1.937   4.126  0.1566 -0.1802 -0.0175
15597W        W30728  13.418  10.831  12.730  0.2152  0.2936 -0.1639
15598W        W30729   4.514  15.052   1.113 -0.0243 -0.0880 -0.0363
15599W        W30730  11.094  11.007  15.030  0.2142 -0.1483  0.0827
15600W        W30731   9.652   8.380   1.074  0.2611 -0.0189  0.0114
15601W        W30732  16.316   3.948   3.746  0.0173 -0.3945 -0.2347
15602W        W30733   1.665   4.015   2.873  0.0006  0.1834  0.2313
15603W        W30734   8.903  13.888   3.003  0.4091 -0.2495 -0.1705
15604W        W30735  11.883  11.113  12.541 -0.0312 -0.3064  0.2846
15605W        W30736   0.538   5.961  16.355 -0.1732  0.1129 -0.1284
15606W        W30737  11.510   4.629  12.812  0.3666  0.5326  0.3175
15607W        W30738   2.738  15.954  14.582 -0.1734 -0.0344  0.1364
15608W        W30739  16.254   1.647  15.938  0.3847 -0.1489 -0.3260
15609W        W30740   5.894  16.678  11.936 -0.1917  0.1177 -0.1816
15610W        W30741  13.104  14.350  15.952 -0.0980  0.2526 -0.0965
15611W        W30742   8.859  16.935  16.370  0.0383 -0.0368 -0.1673
15612W        W30743  14.668  10.931  13.039  0.0708  0.0619 -0.1150
15613W        W30744   5.464   0.735   1.624  0.0268  0.1249  0.0812
15614W        W30745   3.257   7.287   2.947 -0.1479  0.0192  0.0563
15615W        W30746   2.863   4.266  13.756  0.2994 -0.2116  0.1238
15616W        W30747   0.883   4.161   3.561 -0.0668  0.2620  0.1289
15617W        W30748  17.358   1.635  16.095 -0.1741 -0.2000 -0.2738
15618W        W30749   9.942   0.568  11.066 -0.0232 -0.0337 -0.1961
15619W        W30750   2.352  14.744  13.219 -0.0685  0.0537  0.0504
15620W        W30751  11.505   4.772  10.986  0.0910  0.2150  0.2003
15621W        W30752  15.335  15.674  15.994  0.2305 -0.2095 -0.0837
15622W        W30753   1.510  11.880   1.392 -0.0316 -0.1880 -0.1187
15623W        W30754  10.412   9.046  11.001 -0.1997  0.0402 -0.1003
15624W        W30755   8.417   3.138   4.286 -0.2352  0.3139  0.3290
15625W        W30756   4.289   4.729   0.822 -0.0315 -0.0819 -0.0564
15626W        W30757   8.601  12.098  14.381  0.0631  0.3279 -0.2013
15627W        W30758   1.385  16.318  13.754 -0.1041  0.0367 -0.0435
15628W        W30759  17.230  10.350   3.728 -0.0765 -0.3579  0.0338
15629W        W30760  13.567   6.799   2.835 -0.0616  0.1088 -0.0887
15630W        W30761   8.960   5.065  16.125 -0.0075 -0.0150  0.0878
15631W        W30762   5.021   6.184  15.286 -0.1745  0.0095 -0.0244
15632W        W30763  15.211  16.494  16.215 -0.0818 -0.0281 -0.2507
15633W        W30764   8.157   5.791  13.805  0.0008 -0.2112  0.0235
15634W        W30765   6.799   4.909   3.468  0.2391 -0.2080 -0.1739
15635W        W30766  10.672   2.766  11.472  0.0113  0.1406  0.0390
15636W        W30767  11.951  16.384  15.967 -0.0756 -0.0615  0.1637
15637W        W30768  11.641   9.668  11.588 -0.0610  0.0233  0.0429
15638W        W30769   5.610  17.457   4.117  0.0679  0.1087  0.1024
15639W        W30770   1.904   6.241   1.786  0.2117 -0.1160  0.2030
15640W        W30771  13.373   0.398   5.459 -0.0315  0.0526 -0.0294
15641W        W30772  10.495  17.391   5.447 -0.0718 -0.0860  0.0261
15642W        W30773   0.483  11.812   3.248 -0.0336 -0.1067 -0.0156
15643W        W30774  11.223   6.802   0.325  0.1039 -0.0108  0.0807
15644W        W30775   6.458  10.919   1.561  0.2031 -0.0819  0.0373
15645W        W30776  15.721  12.625  13.016  0.0412 -0.1945 -0.1829
15646W        W30777   9.581   1.658   3.468  0.0026 -0.2795 -0.3783
15647W        W30778  12.102  18.100   1.348  0.0355  0.0770 -0.1186
15648W        W30779   0.637  17.490   2.508 -0.2855  0.0391 -0.1899
15649W        W30780   8.786  13.606   3.872 -0.1616  0.0904  0.1592
15650W        W30781   9.164   3.634  13.087  0.5505 -0.0720 -0.2228
15651W        W30782   3.282  13.117   3.436 -0.1562  0.2245 -0.1259
15652W        W30783   2.039  10.646  12.848  0.0665  0.0319 -0.0173
15653W        W30784   7.058  10.768  14.360  0.0344  0.2311  0.1707
15654W        W30785   2.387   0.215   2.808 -0.1402 -0.5135 -0.0810
15655W        W30786  14.595  13.422   0.303 -0.0994  0.2429  0.4056
15656W        W30787   4.251  12.517   1.473 -0.1875  0.3330 -0.4356
15657W        W30788  11.925   3.114  15.835 -0.0188  0.2609  0.2801
15658W        W30789   7.420   4.151   3.082  0.1713 -0.1473  0.0485
15659W        W30790  13.260   5.171  12.735  0.1698  0.1616  0.1070
15660W        W30791  12.204  12.041   5.780 -0.2585 -0.0339  0.0310
15661W        W30792   5.221  15.492   1.540 -0.0303 -0.0705 -0.0208
15662W        W30793   9.526  10.257   6.082 -0.2048 -0.0331  0.0099
15663W        W30794  14.102   4.201  14.018  0.2612  0.0171 -0.0181
15664W        W30795  16.668   6.329   4.841  0.1858 -0.0646 -0.0247
15665W        W30796  15.357   5.162  14.234 -0.0184 -0.1728 -0.2244
15666W        W30797  15.004  12.403  12.298  0.0088 -0.0488  0.1828
15667W        W30798   4.795  13.438   4.891 -0.1591 -0.4755 -0.2110
15668W        W30799   5.853  11.259  11.198  0.0037 -0.0027  0.4956
15669W        W30800  10.042   4.275  11.337 -0.1664 -0.0604 -0.4008
15670W        W30801   1.081  13.674   1.418  0.0701 -0.3635  0.3150
15671W        W30802   2.847  12.176   4.337 -0.1664  0.2890  0.1336
15672W        W30803   9.790   4.590  12.708  0.1421  0.3284 -0.1017
15673W        W30804  13.132   0.052   0.708  0.1657  0.3303  0.1552
15674W        W30805   4.065   2.768  14.639  0.2354  0.0375 -0.0432
15675W        W30806  14.386   5.321  12.643  0.1857 -0.3499  0.2492
15676W        W30807  12.964   8.156   2.747 -0.2376 -0.1908  0.3016
15677W        W30808   6.730  13.728  13.489  0.2277 -0.0417  0.1198
15678W        W30809  16.320   3.981  15.500 -0.1489  0.2769 -0.1939
15679W        W30810  16.264  14.990  12.903  0.0529  0.2353 -0.0414
15680W        W30811  17.612  17.014   5.353  0.0899  0.1251 -0.1633
15681W        W30812  12.812   1.827   1.116  0.1046  0.1133  0.0942
15682W        W30813   1.081   8.561   4.984 -0.0275 -0.0545 -0.2168
15683W        W30814   5.881   6.779  13.121 -0.0768  0.2648 -0.2740
15684W        W30815   3.324  13.208  11.571  0.3458  0.1228 -0.0013
15685W        W30816   6.447   7.970  15.065 -0.0870  0.1340  0.2522
15686W        W30817   0.842   0.670  12.236 -0.2112  0.1347  0.2943
15687W        W30818   4.232   9.138   2.839 -0.2070 -0.0777  0.1147
15688W        W30819  13.303   5.578   5.135 -0.3752  0.1592 -0.0548
15689W        W30820   2.242   7.931  11.038 -0.0008  0.0125  0.2532
15690W        W30821  10.093  10.772  15.450  0.1568  0.0255  0.3450
15691W        W30822   1.986   8.345  12.183 -0.1285  0.2346  0.5492
15692W        W30823   0.659   6.808   4.133 -0.1732 -0.2453 -0.1248
15693W        W30824   1.557  12.582   0.222  0.4214  0.1789 -0.1178
15694W        W30825  14.597   9.559   5.612 -0.0784  0.1983  0.0314
15695W        W30826  13.930   0.708   4.456 -0.1677 -0.1818  0.1919
15696W        W30827   0.535  12.968   1.155 -0.0816 -0.1694  0.1661
15697W        W30828  16.465   4.000  16.028 -0.1385  0.2304  0.1581
15698W        W30829  14.518   6.362   0.833  0.2005  0.1030 -0.2416
15699W        W30830  14.383  16.530  11.738  0.3526 -0.1214  0.1937
15700W        W30831  17.483  17.643   2.361 -0.3483 -0.1171 -0.0521
15701W        W30832   6.229   3.182  15.015  0.1036  0.2135  0.0903
15702W        W30833  13.213  16.061   4.133  0.1834  0.0183  0.1573
15703W        W30834  17.535   7.895   1.528  0.1382  0.1451  0.2493
15704W        W30835   5.181  12.107   0.630  0.3412 -0.3497 -0.1272
15705W        W30836  14.525  15.158  15.419 -0.2867 -0.1037 -0.2807
15706W        W30837   0.640   0.579   3.384 -0.3055  0.2204  0.3190
15707W        W30838  17.374   4.361   4.503  0.2411 -0.0658 -0.0287
15708W        W30839  14.627  12.127  15.088  0.2426  0.3820  0.1043
15709W        W30840  13.828   2.566  16.000  0.2627 -0.1619  0.1289
15710W        W30841   4.522  11.280  11.656 -0.0228 -0.0971  0.2919
15711W        W30842   3.003   0.748   6.279  0.2978  0.1364  0.0697
15712W        W30843   3.197  10.361   1.930  0.0085  0.0299  0.2445
15713W        W30844   7.753  17.458  11.785 -0.0758 -0.2068 -0.2708
15714W        W30845  16.058   1.046   3.223 -0.1107 -0.2945 -0.2769
15715W        W30846  14.785   6.581  15.423 -0.1279 -0.3069 -0.1531
15716W        W30847   2.645   2.101   3.327 -0.0205  0.0385  0.0946
15717W        W30848   6.152   4.686  12.575  0.2643 -0.0577  0.2768
15718W        W30849   0.159   9.713  10.590  0.0002  0.0986 -0.1472
15719W        W30850   9.508  17.253   3.228 -0.0330  0.0660 -0.0400
15720W        W30851   7.535   8.720   1.017 -0.0528  0.0784  0.0337
15721W        W30852  10.980  16.356  12.238 -0.1975 -0.1953 -0.2137
15722W        W30853  13.372   0.639  11.027  0.1063 -0.1107 -0.1007
15723W        W30854   9.347  15.226  15.019 -0.0077 -0.1568  0.1547
15724W        W30855   0.689  11.958   0.428 -0.0801 -0.1702  0.2314
15725W        W30856   4.223  10.639  11.347 -0.2033 -0.4253  0.1054
15726W        W30857  17.258  12.457   4.270 -0.0701  0.0127 -0.2669
15727W        W30858  16.799  13.318  11.713  0.3691  0.1671  0.4814
15728W        W30859   6.806  17.424   1.607 -0.0118 -0.0054 -0.1259
15729W        W30860  12.678  12.341  11.463 -0.0836 -0.1167 -0.0227
15730W        W30861  14.704   3.929  12.022  0.1945  0.0645 -0.1576
15731W        W30862  15.584   3.745  14.035 -0.4478 -0.2865 -0.0908
15732W        W30863   3.532  12.219  16.419  0.2168  0.1911  0.1674
15733W        W30864  17.327   1.909  14.034 -0.2584  0.3808  0.0422
15734W        W30865  10.530   0.577   5.066  0.0532  0.3161 -0.1460
15735W        W30866   6.376  15.260  15.924 -0.0966  0.1093  0.0968
15736W        W30867   7.346  16.480  13.468  0.0348 -0.1412 -0.3096
15737W        W30868   4.134  11.405   3.926  0.1754  0.0909 -0.2199
15738W        W30869   8.616  13.169  12.138  0.4768 -0.2076 -0.2457
15739W        W30870   1.638  13.563  14.918  0.1762 -0.1324 -0.2498
15740W        W30871  12.581  14.186   1.493 -0.1175 -0.1183  0.3104
15741W        W30872   8.450   5.214  16.174 -0.1084 -0.0853 -0.1720
15742W        W30873   1.833   1.779   0.225  0.1622 -0.2624  0.1361
15743W        W30874   4.628   6.495   4.749 -0.2765 -0.1985  0.0048
15744W        W30875   8.131  15.977  14.932  0.3088 -0.1830  0.1698
15745W        W30876  12.251   7.364  12.524 -0.0454  0.1774  0.1340
15746W        W30877  12.806   8.062  11.905 -0.2638  0.3755  0.0561
15747W        W30878  16.552   8.913  11.716  0.0935 -0.0626 -0.0605
15748W        W30879   3.137   2.944  12.694  0.1380  0.0279 -0.0354
15749W        W30880   8.619  17.949   5.266 -0.1075  0.2716  0.0898
15750W        W30881   4.427   8.593  12.458 -0.0261 -0.0870 -0.1751
15751W        W30882   1.951   8.306   4.391 -0.0421 -0.2571 -0.3462
15752W        W30883   2.784  13.392   2.169  0.1056  0.1332  0.0784
15753W        W30884  12.517   1.185  11.184  0.2574 -0.2658  0.4372
15754W        W30885  16.369  17.314   4.304  0.0548  0.0220 -0.5370
15755W        W30886   8.090   8.294  14.267 -0.2859 -0.0155 -0.0305
15756W        W30887   9.499  10.797   2.903 -0.0837  0.0401  0.4630
15757W        W30888  17.872  12.334   0.592 -0.2058  0.1862 -0.0727
15758W        W30889   0.458   8.007   1.359  0.2769 -0.0357 -0.0664
15759W        W30890  14.680  13.915   0.826 -0.1272  0.0336  0.0471
15760W        W30891  10.923  17.561   3.340 -0.1894  0.0318  0.1090
15761W        W30892   9.432  13.391   0.282 -0.0496 -0.0131 -0.0254
15762W        W30893  13.702  14.326  15.896 -0.0140 -0.0432 -0.1268
15763W        W30894   5.985   8.731  13.187 -0.0815 -0.2019 -0.1154
15764W        W30895   1.962   2.887  15.413  0.2097 -0.0594 -0.0266
15765W        W30896  15.545   4.026   4.910  0.0276  0.0932 -0.1088
15766W        W30897  16.548   1.882  16.329 -0.2504 -0.3505 -0.1040
15767W        W30898  16.351  11.940  11.113  0.0039  0.0123 -0.2918
15768W        W30899   1.530  15.658  13.158 -0.0225  0.1232 -0.1038
15769W        W30900  16.138   3.973  11.686 -0.0533 -0.4077 -0.1815
15770W        W30901   9.094   0.938   5.147  0.0623 -0.1287  0.2235
15771W        W30902  17.107   8.607   1.734 -0.1661 -0.1103  0.1721
15772W        W30903  17.364  11.486   3.296  0.1139 -0.0472 -0.1084
15773W        W30904  16.836  11.193  14.657  0.1653  0.2606  0.1075
15774W        W30905   5.192   7.330  15.058 -0.0552 -0.0801 -0.0996
15775W        W30906   0.314   5.979   5.046  0.2449 -0.0428  0.0400
15776W        W30907  13.209  14.182  14.069  0.0665 -0.2546 -0.1067
15777W        W30908   7.248   4.857   5.002  0.1037 -0.0675  0.0603
15778W        W30909   6.394   6.528   2.192 -0.1531  0.0294 -0.2942
15779W        W30910  17.016   7.443  13.463  0.3576  0.0219  0.0076
15780W        W30911  13.335  14.000  13.110 -0.1637  0.3017  0.2697
15781W        W30912  15.599  15.245  11.293 -0.2057 -0.0058 -0.0892
15782W        W30913   7.431   8.552   2.953  0.0682 -0.1613  0.1283
15783W        W30914  16.728  15.929  11.025 -0.0264  0.1197  0.1977
15784W        W30915  17.475   8.942  12.220 -0.2983  0.0396  0.1632
15785W        W30916   9.747  16.895  16.283  0.4535  0.1829  0.1256
15786W        W30917   1.686  11.010  11.718 -0.2568 -0.2114 -0.0841
15787W        W30918   1.077  15.148   5.374  0.0390 -0.1273 -0.0844
15788W        W30919  14.156   6.562  12.116 -0.0201  0.1869  0.1649
15789W        W30920   5.008   6.105   5.739  0.2446  0.0717  0.0753
15790W        W30921  12.494  10.487  11.091 -0.0962  0.0057  0.0434
15791W        W30922  10.879  13.892   3.132 -0.1161 -0.1506 -0.1106
15792W        W30923  10.131   1.616  16.263 -0.2490  0.1855  0.1374
15793W        W30924  17.016   3.256   1.685  0.1537 -0.1502  0.3440
15794W        W30925   7.261  13.160   0.704  0.1105 -0.4141 -0.3552
15795W        W30926   0.622   0.466  11.123  0.1840 -0.1210 -0.1747
15796W        W30927  16.625   8.752  10.803 -0.0657  0.2565 -0.0300
15797W        W30928  11.511   0.649   3.850 -0.1209 -0.0012 -0.0105
15798W        W30929   7.916   4.461   0.685  0.0453 -0.0321  0.0217
15799W        W30930   1.388   6.078  16.051 -0.0995 -0.0229  0.3744
15800W        W30931  11.138   4.545  15.157  0.1830  0.0253 -0.0350
15801W        W30932  16.629   1.521  13.349 -0.1384 -0.1448  0.0391
15802W        W30933   3.819   2.490  12.312  0.0613  0.2062  0.0008
15803W        W30934   0.470   3.176  11.545  0.0972 -0.3737  0.0679
15804W        W30935  12.448  13.581  14.854  0.1287 -0.1924  0.1995
15805W        W30936   2.080  10.479   3.011 -0.2477  0.0369 -0.0544
15806W        W30937   9.774   9.328  10.522 -0.2667  0.3036  0.0272
15807W        W30938   7.397   8.486   5.833 -0.0750  0.3149  0.1760
15808W        W30939  12.945   0.858   3.932  0.0891  0.1163 -0.1940
15809W        W30940  13.273   2.327  16.242 -0.0700  0.1288  0.2697
15810W        W30941   5.318   5.158   3.733  0.0333 -0.2423  0.2289
15811W        W30942   5.652  16.086  11.289  0.1571 -0.3211  0.1866
15812W        W30943  15.876   2.455   5.180 -0.5111 -0.0465 -0.2354
15813W        W30944   7.443   2.557   3.657  0.0739 -0.0031 -0.1912
15814W        W30945  10.854   3.776  14.769 -0.3642  0.1177 -0.2361
15815W        W30946  12.655  16.283  13.890 -0.1668  0.2015  0.2389
15816W        W30947  14.582   2.212  12.928  0.0136  0.0212  0.1112
15817W        W30948  14.498   8.700   5.803  0.1103  0.0382  0.0172
15818W        W30949   4.945   1.586  14.494  0.4374  0.0703  0.0574
15819W        W30950   7.525   1.876   1.123  0.0959 -0.0117 -0.1631
15820W        W30951   5.158   5.550   1.047 -0.2871 -0.0943 -0.2361
15821W        W30952  14.838  17.340  11.402 -0.1982 -0.2389 -0.3365
15822W        W30953  15.797  14.875  15.881 -0.2072 -0.1151  0.4065
15823W        W30954  14.491   9.727  15.532  0.1164  0.5281  0.2778
15824W        W30955  10.695  15.070   2.366  0.1599  0.1886 -0.0794
15825W        W30956  13.895   3.670  15.240 -0.0787  0.3308  0.0452
15826W        W30957   7.480   8.066   1.661 -0.2888  0.1379  0.3049
15827W        W30958  15.628  14.237  16.372  0.2953 -0.0411 -0.2436
15828W        W30959   3.750   9.655   0.656 -0.1744 -0.3425  0.0767
15829W        W30960  14.832  11.674   5.192 -0.0602 -0.0379  0.0197
15830W        W30961  17.941  13.715  14.014 -0.3221 -0.0843 -0.1280
15831W        W30962   2.263  13.248  13.644  0.1822  0.2676 -0.2097
15832W        W30963   9.050  16.655  13.960 -0.2188  0.3710  0.2360
15833W        W30964   2.463  13.641  10.969 -0.0202 -0.0576 -0.2201
15834W        W30965  17.415  17.653  14.508 -0.0811 -0.2077  0.1087
15835W        W30966  11.666   0.276  13.832  0.0094  0.1346 -0.1900
15836W        W30967   8.854  14.782   0.215 -0.1923 -0.0328  0.1858
15837W        W30968  15.823  11.707   5.627 -0.1290 -0.3982 -0.0664
15838W        W30969   8.354   9.855   5.206 -0.1221  0.1542 -0.1954
15839W        W30970  11.546  15.374   2.792  0.0988  0.0962 -0.0859
15840W        W30971  13.964   8.315  16.321 -0.0723 -0.0928 -0.0280
15841W        W30972   5.474   0.023   4.088 -0.0032  0.0135  0.0091
15842W        W30973   0.547   5.725   0.668  0.2752  0.0373  0.0172
15843W        W30974   6.162  13.341   0.353 -0.0735 -0.0163 -0.1301
15844W        W30975  14.343   7.620  12.123 -0.1921 -0.0020  0.0779
15845W        W30976  17.042  10.777  11.649  0.0754  0.3549  0.2460
15846W        W30977  16.691   7.382   4.110 -0.2911  0.0888  0.1850
15847W        W30978   7.732   8.047   0.354 -0.2250  0.0768 -0.1093
15848W        W30979   1.324  14.947  12.639  0.0074  0.0659 -0.0543
15849W        W30980  13.827  10.220  15.022 -0.0154  0.1639  0.1070
15850W        W30981  17.893  15.823   2.934 -0.3053 -0.2720  0.0105
15851W        W30982   8.044  17.964   1.292 -0.2435  0.1962 -0.0899
15852W        W30983   6.756   0.479   3.512  0.0209  0.0037 -0.0263
15853W        W30984  14.167  14.042  11.850 -0.1422 -0.0298  0.4949
15854W        W30985  14.260  11.468   0.827  0.1252 -0.3918 -0.1225
15855W        W30986   5.516   7.719   5.058 -0.0209 -0.1265  0.1920
15856W        W30987   7.825  13.938  13.261  0.3157 -0.0035  0.4915
15857W        W30988  13.185   5.589  13.017  0.2892 -0.0398  0.0404
15858W        W30989  17.407   3.352   6.247  0.2188  0.0082  0.3598
15859W        W30990   6.542   7.560  10.785  0.1137  0.2769  0.1463
15860W        W30991  15.113  13.837   3.128 -0.0953  0.2643 -0.0862
15861W        W30992  13.237  15.299  12.150  0.0267 -0.1714 -0.3027
15862W        W30993  12.037   0.617   5.337  0.3037  0.0255  0.0998
15863W        W30994   2.086  13.188  15.657  0.1120  0.2882  0.5428
15864W        W30995   9.963  12.262  11.414 -0.1790 -0.2164 -0.0099
15865W        W30996   4.716  12.894   1.840  0.0898  0.0050 -0.1036
15866W        W30997   0.116   0.927   5.414 -0.1231 -0.1785  0.1721
15867W        W30998  15.845  16.734   0.773 -0.0836  0.0337  0.1470
15868W        W30999   6.546  17.701  15.580 -0.4083  0.0851  0.1875
15869W        W31000   4.328  11.859  12.155  0.0176 -0.0931  0.1012
15870W        W31001   9.173  17.551   4.041 -0.0636  0.2586 -0.0028
15871W        W31002   1.831   2.001   4.880 -0.2891  0.1595 -0.1555
15872W        W31003   7.727   3.931  15.068  0.1878 -0.0534 -0.2271
15873W        W31004   6.871   4.102   4.483 -0.1070  0.0767  0.3850
15874W        W31005   6.559   6.273  15.679  0.1439  0.4888 -0.1676
15875W        W31006   6.712   1.456   2.006 -0.1562 -0.0875  0.2180
15876W        W31007   4.412  12.187   4.940  0.0030  0.0315 -0.2555
15877W        W31008  10.119  14.890  11.415 -0.1998 -0.1891  0.0779
15878W        W31009  10.897   3.293  14.737 -0.0904  0.0358 -0.4034
15879W        W31010   3.924  11.194   3.413 -0.0086 -0.0878  0.1074
15880W        W31011   5.995  15.731   3.123  0.2146 -0.0895  0.0456
15881W        W31012   6.421   9.225   3.312  0.0621 -0.1707  0.1238
15882W        W31013   2.870  11.361   5.464 -0.0980  0.1960 -0.0011
15883W        W31014  16.843   9.479  14.384 -0.0970 -0.1268 -0.2483
15884W        W31015   1.429  13.050  13.602 -0.1559  0.3293 -0.0888
15885W        W31016  14.127   7.493   3.019  0.2090 -0.0536  0.0494
15886W        W31017  13.295  12.201  14.140  0.3270 -0.1892 -0.0901
15887W        W31018   6.406   2.530   4.430 -0.0992  0.2431  0.2974
15888W        W31019   4.692   0.137   1.938 -0.0325 -0.1841  0.2380
15889W        W31020   6.077   1.113  13.265 -0.0951 -0.0520 -0.2480
15890W        W31021  12.517  14.853   6.069  0.2144  0.3787  0.1789
15891W        W31022   9.737  12.276  14.209  0.2378  0.1231  0.1056
15892W        W31023   0.698   1.574  12.514  0.1587  0.1672 -0.0218
15893W        W31024   0.410  13.602   0.642  0.1226  0.1512 -0.2779
15894W        W31025  13.877  14.374  15.409 -0.1426  0.2618 -0.2100
15895W        W31026  10.487  15.705  13.968  0.2803  0.2159 -0.0144
15896W        W31027   9.178   4.217   4.616  0.2839  0.0886  0.1527
15897W        W31028   2.941  10.829  12.552  0.1560 -0.1674  0.0420
15898W        W31029   4.787   6.979   5.579  0.1195 -0.0518 -0.1329
15899W        W31030   3.962   8.333   2.709  0.2085  0.0559 -0.0964
15900W        W31031  14.026   7.673  13.433 -0.1791  0.1186 -0.1586
15901W        W31032  17.714   8.368   5.662  0.1950  0.1281  0.0539
15902W        W31033  11.844  10.293   2.006  0.2393  0.3930  0.0356
15903W        W31034   4.272   7.317  13.832 -0.0670  0.3094 -0.3725
15904W        W31035  12.324  15.401  16.009  0.1622  0.0104  0.0688
15905W        W31036  11.450   3.943  14.260 -0.0622  0.0074  0.0956
15906W        W31037  17.840   4.657   4.423  0.0410  0.0433 -0.0293
15907W        W31038   8.614  10.010   3.349 -0.2347 -0.1085  0.0263
15908W        W31039  17.923  13.459  12.522 -0.0243  0.2379 -0.2637
15909W        W31040   6.577   4.521   3.345 -0.2307 -0.4271  0.1336
15910W        W31041   2.464   4.877  12.131  0.2412  0.0642 -0.0824
15911W        W31042  11.581  13.994  11.894 -0.3592  0.0168 -0.0768
15912W        W31043   7.716  16.842  13.524 -0.0249  0.0404 -0.0467
15913W        W31044   4.233   7.519  13.315  0.3339  0.0403  0.1621
15914W        W31045   7.401  14.574  14.995 -0.2784  0.1560  0.1918
15915W        W31046  17.694   9.684   2.784  0.0684 -0.1497  0.0982
15916W        W31047   9.098  13.101   2.577 -0.0941 -0.0589  0.0157
15917W        W31048   2.974   3.353   3.147 -0.1289  0.0981  0.1655
15918W        W31049  16.370   3.399   0.899  0.2709 -0.1642 -0.1057
15919W        W31050   1.490  13.971   3.409 -0.2483  0.1613 -0.0698
15920W        W31051  16.603   3.593  14.193  0.0273 -0.1150 -0.0215
15921W        W31052   7.694   8.422   5.376 -0.1848  0.1562 -0.1037
15922W        W31053  12.371   5.741  16.336  0.0347 -0.0073 -0.2026
15923W        W31054  11.884  16.445  12.706 -0.0413 -0.0847  0.1868
15924W        W31055   7.648   3.528   4.645  0.1749  0.1897 -0.0425
15925W        W31056  10.166   9.564   2.200  0.0575  0.2714  0.3229
15926W        W31057   0.077   3.433  16.336 -0.0001 -0.1059 -0.2529
15927W        W31058  11.573  12.867   0.423 -0.4411 -0.0665 -0.1810
15928W        W31059   4.383  16.828   2.299 -0.3314  0.0872 -0.3196
15929W        W31060  17.781  15.801  11.355  0.0012  0.1930 -0.0898
15930W        W31061   7.544   0.003  11.159 -0.3460  0.0415 -0.0001
15931W        W31062   3.855   5.570  16.183  0.0314  0.0237  0.0397
15932W        W31063  17.945   2.517   2.836 -0.0709  0.1639 -0.2499
15933W        W31064  16.001  11.482   3.841 -0.3613 -0.0069 -0.0403
15934W        W31065   3.550  15.794   3.537  0.2661 -0.2035  0.0078
15935W        W31066   7.776  17.009   1.283 -0.0491 -0.0941 -0.2396
15936W        W31067   8.430   1.136   3.247  0.4371 -0.1318  0.0712
15937W        W31068  16.282  12.780   5.236  0.1839 -0.0825 -0.0533
15938W        W31069  12.818  18.054   2.751 -0.2388 -0.2325 -0.1709
15939W        W31070   9.724   5.261  14.778  0.2349 -0.1607 -0.0391
15940W        W31071   2.023   3.737  13.544  0.1321  0.0975  0.0433
15941W        W31072  13.044   4.012  13.095  0.2573  0.2182  0.3712
15942W        W31073  15.126   4.967  14.986 -0.4145 -0.1541  0.1099
15943W        W31074  10.289  14.588   4.525  0.2607  0.1627 -0.1049
15944W        W31075   6.660  16.993   1.762 -0.0859 -0.1280  0.0636
15945W        W31076   4.739   9.892   4.439  0.0190  0.1981 -0.5713
15946W        W31077   3.183   7.572  10.768 -0.1760  0.0743  0.0574
15947W        W31078   0.270  18.019  12.393  0.2842  0.0333  0.0171
15948W        W31079   3.034  17.107   2.145  0.2393  0.3800  0.0884
15949W        W31080  11.134  13.450   1.572  0.1543  0.1141 -0.0612
15950W        W31081   8.991  13.363  11.732 -0.0030  0.1316  0.0001
15951W        W31082  13.207  11.498  12.134 -0.1811  0.0384  0.1655
15952W        W31083   0.305   9.845   0.117 -0.0764  0.0244  0.1671
15953W        W31084   8.920  16.449  14.421 -0.4070  0.3330  0.0515
15954W        W31085  12.111  10.967  13.538  0.0844  0.1281  0.1041
15955W        W31086  15.992  13.697   5.636  0.0480 -0.4409  0.3986
15956W        W31087   5.949   5.873  12.672 -0.1251 -0.0160 -0.0788
15957W        W31088   0.622   5.505  15.062 -0.0499  0.1666 -0.1260
15958W        W31089   3.903   3.508   4.425 -0.3174 -0.0770  0.1268
15959W        W31090  12.235   8.604  14.023 -0.0896  0.2230 -0.2381
15960W        W31091  13.763   0.298   1.908 -0.3168 -0.2329  0.0972
15961W        W31092  15.185   6.168   4.821 -0.1210 -0.1188  0.2886
15962W        W31093   2.110  16.658  15.954 -0.2505  0.0580  0.0543
15963W        W31094   8.236  14.805   0.949  0.0920 -0.0499 -0.1941
15964W        W31095   7.569  11.182  15.396 -0.0864  0.0498 -0.1019
15965W        W31096   2.527   1.742   3.658 -0.1108  0.1135 -0.1096
15966W        W31097   7.671   2.962   3.835 -0.1869 -0.0847 -0.0950
15967W        W31098   5.010   1.400  16.434 -0.0931  0.2227 -0.2049
15968W        W31099  17.082   2.483   2.921 -0.2272  0.0386  0.0493
15969W        W31100  14.071   2.182  14.869  0.1984  0.1030 -0.0542
15970W        W31101  12.249  12.768   4.206 -0.1542  0.0020  0.1010
15971W        W31102  14.849   2.479  14.300 -0.2580 -0.1350 -0.0336
15972W        W31103  11.668  17.108  13.875 -0.1551  0.2220  0.1818
15973W        W31104   9.073  14.325   0.246 -0.0327 -0.1631 -0.1405
15974W        W31105  13.412   3.706  12.923  0.2742  0.2648 -0.1583
15975W        W31106   7.912  16.459   1.330 -0.1235  0.1165 -0.0594
15976W        W31107   6.648   7.764   1.256  0.0028  0.0188  0.0396
15977W        W31108  15.367   2.037  15.762  0.2752  0.1178  0.3191
15978W        W31109   1.001   8.580   0.076 -0.2312 -0.0433 -0.1160
15979W        W31110   6.421  10.136   3.673 -0.0087  0.1729 -0.2288
15980W        W31111  11.740   2.548  13.628 -0.1283 -0.0573  0.0801
15981W        W31112   1.566   2.535  15.397 -0.0294  0.0949 -0.2415
15982W        W31113  15.797  10.271  13.360 -0.0296 -0.1008 -0.1730
15983W        W31114  17.871   9.943  15.739 -0.0515 -0.1428  0.0674
15984W        W31115   2.992  12.146   0.605 -0.1785 -0.1301  0.3274
15985W        W31116  14.466  14.005   1.581 -0.0767 -0.2153  0.1113
15986W        W31117   7.873   7.758   5.423  0.1704 -0.0192 -0.0327
15987W        W31118   0.951   6.891  12.828  0.1847 -0.0520  0.0628
15988W        W31119   1.666   4.856   2.369  0.1854 -0.2598  0.0617
15989W        W31120  12.655  17.283  16.034  0.0103  0.1689  0.0279
15990W        W31121   4.371  15.853  12.705  0.0852  0.0160  0.1071
15991W        W31122  10.438   6.458   2.674  0.0464 -0.0608  0.1790
15992W        W31123   3.866   3.007   5.315  0.0896  0.1454  0.0141
15993W        W31124   4.964  12.633  12.568  0.0053  0.1164 -0.3436
15994W        W31125   6.725  17.877   1.820  0.2959 -0.3228 -0.0964
15995W        W31126   3.431   3.991  14.925  0.1360  0.0505 -0.3208
15996W        W31127  15.249   0.056   2.815 -0.0397 -0.1633 -0.0463
15997W        W31128  15.620  18.065  12.380 -0.0680 -0.3213 -0.1051
15998W        W31129   6.126  15.536   0.176 -0.0434 -0.0794 -0.4180
15999W        W31130  14.899   8.392  11.887  0.0062 -0.2827  0.2049
16000W        W31131  14.046   8.559  12.414  0.0315 -0.0036  0.0448
16001W        W31132   6.495   8.247   3.185  0.0295 -0.3959  0.0090
16002W        W31133  12.766  14.228   1.054 -0.0911 -0.0473  0.1716
16003W        W31134  15.551  10.011   0.915  0.2931  0.2856  0.2144
16004W        W31135  17.370   1.738  11.704  0.0566  0.2553 -0.0412
16005W        W31136  11.904   6.028   0.567 -0.0872  0.0839 -0.1616
16006W        W31137   8.482  12.240   1.743  0.0977  0.0243  0.0558
16007W        W31138  12.712   9.936  12.295  0.2577  0.1485  0.1293
16008W        W31139   6.081  16.903   1.035 -0.0223  0.0483  0.0732
16009W        W31140  12.693   3.225   3.135  0.2343 -0.0215 -0.0021
16010W        W31141   8.075   1.560   2.429  0.0814 -0.0046 -0.0534
16011W        W31142   3.573  10.322  14.321  0.1692 -0.0073 -0.0953
16012W        W31143  11.887  16.406  13.290 -0.1963  0.0127  0.1687
16013W        W31144  12.409  14.963   3.895  0.0539 -0.1553 -0.0322
16014W        W31145   4.050  16.034  12.182 -0.1093  0.0083 -0.0958
16015W        W31146   3.038  12.732   3.650  0.0840  0.1204  0.0676
16016W        W31147   2.108  17.709  11.073  0.0342  0.0685  0.0158
16017W        W31148  11.303   3.806   1.312  0.1438 -0.2739 -0.1737
16018W        W31149  14.624   4.018  12.512 -0.1405  0.1189  0.0409
16019W        W31150   6.330  11.071  15.083 -0.1011 -0.2570  0.0149
16020W        W31151   6.504   6.649   2.753  0.2127  0.0194 -0.1318
16021W        W31152   0.581   3.303   3.550 -0.1264  0.2974  0.0563
16022W        W31153   2.388   6.718   4.983  0.1510  0.1360  0.0475
16023W        W31154  15.601  16.831   0.263  0.0006 -0.3814  0.2084
16024W        W31155  14.541   3.545   1.576  0.2513  0.2147  0.1780
16025W        W31156  15.409   9.423  15.622  0.3037 -0.0487  0.0707
16026W        W31157  12.062   5.327  16.204 -0.1156 -0.1562 -0.1596
16027W        W31158  10.176   3.833  15.716 -0.1868  0.1787 -0.1175
16028W        W31159   7.617   5.631  12.047  0.0313 -0.3507  0.1099
16029W        W31160  16.467  11.469  10.219  0.2399  0.2774 -0.2964
16030W        W31161   4.599  11.483   5.629  0.1021 -0.1053  0.3876
16031W        W31162   1.963  13.586   3.320  0.1277  0.0793 -0.0918
16032W        W31163  10.451   5.199  12.973 -0.1847 -0.1414 -0.2827
16033W        W31164  18.014  11.538  11.371 -0.1400  0.1415 -0.0911
16034W        W31165   1.496  17.128  15.363 -0.0558  0.1305  0.1332
16035W        W31166  17.752  13.065   3.527 -0.1858  0.0841 -0.1332
16036W        W31167  14.002   1.434   1.716 -0.1025 -0.1183  0.1660
16037W        W31168   5.045   5.612  15.224 -0.0481 -0.2413 -0.1781
16038W        W31169   1.463   2.222  11.444 -0.0066 -0.0094  0.1277
16039W        W31170  10.922  12.121  15.500  0.0526  0.1649 -0.0185
16040W        W31171  10.806  11.510   2.680 -0.1316  0.0628  0.1639
16041W        W31172  17.435   3.931   4.874  0.0699  0.2274  0.0704
16042W        W31173   9.138   6.310  11.281  0.0057 -0.3198 -0.1310
16043W        W31174  16.386   5.994   3.002  0.0424 -0.0749  0.1746
16044W        W31175  17.454  13.667  14.176  0.0488  0.4473 -0.1299
16045W        W31176  11.084   8.310  11.947  0.1400 -0.0510 -0.2383
16046W        W31177   7.105  14.744   5.048 -0.0704  0.0953 -0.1840
16047W        W31178   5.284  12.751   1.493 -0.1401 -0.0146  0.1192
16048W        W31179   4.048  15.686   1.077 -0.0424  0.1475  0.0851
16049W        W31180   6.546   6.754   1.035 -0.0993  0.0109  0.0085
16050W        W31181   7.300  14.754   2.351 -0.2948 -0.2867 -0.0918
16051W        W31182   0.879  10.908  16.109 -0.1381  0.1944  0.1549
16052W        W31183   2.394  13.796   2.234 -0.0935  0.2544 -0.0866
16053W        W31184   3.989  16.331   1.035 -0.1771  0.2622  0.1272
16054W        W31185  10.700   6.998   0.358  0.0185 -0.2254 -0.1146
16055W        W31186  17.696  10.296   1.574 -0.0410 -0.0751  0.1413
16056W        W31187  16.763   4.326   3.182  0.3038  0.4520  0.0403
16057W        W31188   1.557   7.466  13.447  0.0331 -0.3151  0.1586
16058W        W31189  11.636   0.747  14.610 -0.0734 -0.2314 -0.2005
16059W        W31190   6.659   0.579   3.013 -0.0736 -0.0572 -0.3720
16060W        W31191   6.304  10.475   5.068 -0.2609  0.1368  0.0436
16061W        W31192  10.491   7.716   3.721 -0.2551  0.2618  0.2590
16062W        W31193   3.146   6.042  13.561  0.1891  0.2171 -0.0311
16063W        W31194   3.416   1.329  12.214  0.2293 -0.1055  0.1078
16064W        W31195  14.245   9.952   3.931  0.0077  0.0439 -0.2382
16065W        W31196  16.409   7.137   4.879  0.3319  0.0258  0.1949
16066W        W31197   4.118   0.783  12.385  0.1006  0.0557  0.0088
16067W        W31198   3.973  14.980  12.732 -0.1000  0.1310 -0.1492
16068W        W31199   9.679   4.092   3.385 -0.1545  0.0244 -0.0411
16069W        W31200   0.117  10.576   2.286 -0.2365 -0.1044  0.0601
16070W        W31201   4.022  11.970  15.349  0.0121  0.0308 -0.3423
16071W        W31202  10.145  17.524  14.608 -0.2042  0.2035 -0.0975
16072W        W31203  13.739  14.169   6.296 -0.0402  0.1408  0.1677
16073W        W31204  15.123  13.847  11.586  0.0959 -0.0052  0.2150
16074W        W31205   2.682  12.612   0.794  0.3300  0.0168 -0.0057
16075W        W31206   3.480  13.957   4.490  0.1688  0.3796 -0.1943
16076W        W31207  11.391   0.927  11.939  0.0035  0.3085  0.1048
16077W        W31208  17.899   1.089   1.594  0.1178  0.1509  0.2406
16078W        W31209   4.317   1.356   3.489  0.2269 -0.0142  0.0252
16079W        W31210   7.282   8.895  14.317  0.0158  0.1064 -0.2218
16080W        W31211   3.252   2.898  13.680 -0.0251 -0.0831  0.0017
16081W        W31212  14.493   4.881  13.188  0.0358 -0.1276 -0.1810
16082W        W31213  16.501  14.165   1.900  0.0044 -0.4179  0.1970
16083W        W31214   3.029   5.249  16.292  0.2129  0.0822  0.0415
16084W        W31215  14.763  16.866  11.359  0.0986 -0.1002 -0.1353
16085W        W31216  16.361   8.159  15.786  0.1840 -0.1202 -0.1036
16086W        W31217   1.751   2.573   0.882 -0.1120  0.1844  0.2175
16087W        W31218   1.133   7.547  14.595 -0.2311 -0.2450  0.0832
16088W        W31219   4.793   7.777  13.228  0.1626 -0.1066 -0.1122
16089W        W31220   8.193   1.602   3.403  0.0234  0.0713 -0.2326
16090W        W31221  12.813  14.809   2.167 -0.3392 -0.1301 -0.2196
16091W        W31222   1.233  17.800   5.401 -0.2337  0.2956  0.1107
16092W        W31223   6.407  11.477  15.466 -0.1435  0.1074  0.0541
16093W        W31224   5.337  12.386  11.297  0.4452 -0.2639  0.2358
16094W        W31225  17.429  11.813  10.666 -0.0542  0.1366 -0.1113
16095W        W31226   3.825  11.662   1.552  0.0618  0.1564  0.0419
16096W        W31227  13.495  16.423  13.841 -0.0293 -0.2562  0.1440
16097W        W31228  12.423   5.939  14.776  0.3297  0.3461 -0.0877
16098W        W31229   2.422   9.210   4.879  0.2596  0.0745  0.0953
16099W        W31230  12.078  14.812   0.854 -0.0081  0.0360  0.0277
16100W        W31231   8.256  14.877   2.986  0.2218  0.1060 -0.2327
16101W        W31232   0.962   9.537  14.537  0.2810 -0.1925 -0.2116
16102W        W31233   0.506   2.021   2.359 -0.2189  0.0665  0.2950
16103W        W31234   9.083  14.021   3.877  0.1242 -0.2544 -0.1008
16104W        W31235   2.402  15.342   2.616 -0.2075  0.0056 -0.1413
16105W        W31236  18.103  15.463   4.745  0.1635 -0.2185 -0.2121
16106W        W31237  17.914   2.231  16.448  0.0637  0.0196  0.0406
16107W        W31238   9.065   0.227  11.553  0.1005  0.5135  0.1044
16108W        W31239  12.637  14.081   4.230 -0.1987  0.1432 -0.3050
16109W        W31240   8.925  14.386  14.660 -0.1280  0.0852 -0.0273
16110W        W31241   4.177   3.403   3.566  0.0686 -0.1418 -0.0602
16111W        W31242  14.981  17.022   1.073  0.0183 -0.0301  0.1662
16112W        W31243   9.429   4.860  12.798 -0.2729 -0.0379  0.2279
16113W        W31244  17.002   1.860   2.398 -0.1441  0.1500 -0.0207
16114W        W31245  17.376   7.541   0.385  0.0509 -0.0797  0.0858
16115W        W31246   2.039   5.939  15.412  0.2561  0.2562 -0.4811
16116W        W31247  12.198   9.899   1.296  0.2173  0.0378 -0.0620
16117W        W31248   1.493  12.815  13.122 -0.0572  0.1554  0.4052
16118W        W31249  13.746  10.122  15.818  0.1813 -0.1158  0.2251
16119W        W31250  15.717   0.198  13.561  0.0830 -0.2515  0.3977
16120W        W31251  16.535   8.471  12.093 -0.1558  0.0350 -0.1737
16121W        W31252   4.979   7.226  11.451  0.2534  0.1470 -0.1625
16122W        W31253  14.881   0.698  11.517 -0.5200 -0.2044  0.0738
16123W        W31254   2.801  16.925   6.268  0.4615 -0.0686 -0.0478
16124W        W31255  15.728   0.830   4.147  0.2126 -0.1491 -0.0161
16125W        W31256   8.020  13.181  14.336 -0.1549  0.1538 -0.2043
16126W        W31257  12.675   3.096  12.982  0.1589 -0.0795  0.1075
16127W        W31258  10.316  13.240   4.736  0.1435  0.0672 -0.0072
16128W        W31259  15.249   5.199   3.612  0.2304  0.1038 -0.0479
16129W        W31260  10.756   6.981  11.891  0.3955 -0.0017 -0.1997
16130W        W31261   6.415  15.501   3.017  0.0578  0.1616  0.3382
16131W        W31262   1.743  13.546  12.267  0.2057  0.5863  0.2222
16132W        W31263   0.538  10.679   1.608 -0.0478  0.1872 -0.1991
16133W        W31264   6.026   3.134   0.967  0.0351 -0.1321 -0.0768
16134W        W31265   2.825   7.723   5.320  0.1107 -0.1970 -0.0816
16135W        W31266   1.233  11.696   3.968 -0.2336  0.3903  0.0698
16136W        W31267  16.247   7.672  14.698  0.3320  0.0544 -0.1245
16137W        W31268   2.343  12.787   0.522  0.0812 -0.0411  0.0021
16138W        W31269  13.122   9.898  14.355  0.2338  0.1161 -0.2416
16139W        W31270  12.517  11.615  15.066 -0.2867 -0.0594 -0.1469
16140W        W31271   6.214   0.571   2.785 -0.0964 -0.0255 -0.0230
16141W        W31272  13.412   9.882   1.704 -0.0931 -0.2600  0.0240
16142W        W31273  15.389   0.393  10.820 -0.2843  0.0062  0.0876
16143W        W31274  16.195   8.224  15.320  0.2712  0.0301 -0.1404
16144W        W31275   3.394  12.222   5.551 -0.1001  0.3585 -0.0690
16145W        W31276   0.739  14.257   0.263 -0.0701  0.2830  0.2069
16146W        W31277   3.083  16.453   3.952  0.1464  0.1153 -0.3876
16147W        W31278  12.165   0.922   2.529  0.0059 -0.0276  0.0919
16148W        W31279   2.880   8.160   0.278 -0.1712 -0.1492  0.1933
16149W        W31280   8.492   6.958  15.306 -0.1038  0.2997  0.3255
16150W        W31281   1.610  10.638  10.007  0.3344 -0.1956 -0.1299
16151W        W31282   3.087   2.057   4.244  0.1969  0.1628  0.0836
16152W        W31283   8.945  17.843   0.273  0.0802  0.1993  0.0317
16153W        W31284   7.593  16.435  16.141 -0.3241  0.0527 -0.0492
16154W        W31285  11.481   8.509   5.547 -0.0774 -0.0049 -0.0011
16155W        W31286  13.806   2.011   4.221 -0.1200 -0.2122 -0.2066
16156W        W31287  14.381  16.570   2.196 -0.1147  0.2126 -0.1724
16157W        W31288   6.886  16.666   1.501  0.3859  0.0580  0.0240
16158W        W31289   1.100  14.169   3.180  0.0805  0.1097 -0.3326
16159W        W31290  14.101   8.611   3.274 -0.0611  0.2675 -0.1099
16160W        W31291   4.481  14.680  11.461  0.3021 -0.0903  0.4130
16161W        W31292  15.251   5.662  14.360  0.1158  0.0521 -0.1202
16162W        W31293  17.701  12.382  15.947  0.0011  0.1332  0.1235
16163W        W31294   5.246  13.764  14.275  0.1312  0.1368 -0.3608
16164W        W31295  17.779   5.524   5.251  0.1017  0.0884  0.0680
16165W        W31296   9.698   7.997   3.440  0.0575 -0.1368  0.0176
16166W        W31297   1.272  16.049   4.321 -0.0166  0.3537 -0.1684
16167W        W31298  10.101  18.060  12.527  0.4696  0.2491  0.0075
16168W        W31299   2.505   0.313  12.836  0.0283 -0.2017  0.3510
16169W        W31300  16.392   8.432   4.344  0.1893 -0.0052 -0.1294
16170W        W31301   9.198  16.866   1.055  0.0754  0.1615 -0.0879
16171W        W31302  17.818  16.762  13.048  0.1359 -0.0787 -0.4070
16172W        W31303  12.840   0.051  12.445 -0.1546  0.1110 -0.2733
16173W        W31304   4.043  17.124  13.088  0.1383 -0.1419 -0.0707
16174W        W31305   7.786  14.667   5.037  0.2200 -0.0672  0.1296
16175W        W31306   7.563   6.359   5.309  0.1731  0.0143 -0.0768
16176W        W31307  11.276   6.830   1.183  0.0611 -0.0072  0.0753
16177W        W31308   4.884   6.081   1.206 -0.1899  0.1526 -0.1934
16178W        W31309  14.031  14.648  16.214  0.0543 -0.1477  0.2494
16179W        W31310   6.408   4.120   1.971  0.2435 -0.0496  0.1892
16180W        W31311   8.091   2.707  15.201  0.5449  0.2866 -0.4035
16181W        W31312  15.058   7.053   0.493  0.0948  0.1233 -0.0512
16182W        W31313   3.814  12.342   0.751 -0.1714 -0.2337  0.1846
16183W        W31314  10.591   7.105  15.412  0.1856 -0.0511 -0.1736
16184W        W31315   9.069  16.353   5.303  0.1176  0.1274 -0.1916
16185W        W31316   6.830   6.683  16.117 -0.2663  0.3483  0.1522
16186W        W31317  10.736  14.290  16.070 -0.0499 -0.2497  0.3471
16187W        W31318   0.119  14.382  13.477 -0.2236  0.1111  0.0471
16188W        W31319   3.558   0.986   3.818 -0.2200  0.1529  0.0966
16189W        W31320  17.515   0.776   4.780 -0.1000 -0.1546  0.2157
16190W        W31321   8.495   3.276  15.850 -0.1777  0.1088 -0.1961
16191W        W31322  13.403  12.723  11.983 -0.3320  0.0963 -0.1374
16192W        W31323  14.742   0.318  12.059  0.3535  0.2375  0.1428
16193W        W31324   0.957  11.919   1.717 -0.0061  0.2030  0.1562
16194W        W31325   9.511  15.817  13.988 -0.0243  0.0322  0.0650
16195W        W31326  14.575   2.907   2.102  0.3163  0.1040  0.0974
16196W        W31327   6.919  17.095   2.268 -0.1275  0.1994 -0.1514
16197W        W31328   4.754   2.709   3.749 -0.1071 -0.0035  0.1742
16198W        W31329   1.037  11.247   4.587 -0.1110  0.0268 -0.1103
16199W        W31330   4.506  10.197  11.507 -0.2296  0.0558 -0.2363
16200W        W31331  10.097   1.782   3.371  0.0092 -0.2065  0.2536
16201W        W31332   2.226  10.294  13.183  0.0640 -0.0699  0.1350
16202W        W31333   6.072   3.339  12.165 -0.1695 -0.1656  0.5247
16203W        W31334   2.861   1.331   5.454  0.1655 -0.0105  0.3712
16204W        W31335  14.899  12.086   1.768 -0.0398 -0.1815  0.0123
16205W        W31336   0.720  15.811   0.400  0.5219 -0.1766 -0.1461
16206W        W31337   6.466  12.898  15.816 -0.2623  0.1348 -0.1451
16207W        W31338   9.714  11.474  15.823  0.2610 -0.3319  0.1130
16208W        W31339   1.766  16.925   4.283  0.5495  0.0920  0.2601
16209W        W31340  14.508   8.497   4.536 -0.0576  0.0097  0.1358
16210W        W31341  16.751  13.554   3.812 -0.1657  0.0451  0.0696
16211W        W31342   5.503   0.386   2.267 -0.1304 -0.0175 -0.1111
16212W        W31343  14.985  15.516   1.036 -0.2192 -0.1000  0.3777
16213W        W31344  12.046  14.833  16.345  0.1198 -0.0660 -0.0069
16214W        W31345   7.187   5.337  15.363  0.0145 -0.1278 -0.0974
16215W        W31346   6.708   5.347   3.013  0.2507 -0.1357  0.0865
16216W        W31347  11.283  11.336   2.433 -0.1121  0.2130  0.0123
16217W        W31348  15.794   0.798  15.663 -0.0002  0.2898 -0.3613
16218W        W31349   9.365   3.677   9.723 -0.2596  0.0654 -0.0582
16219W        W31350   5.543   3.464  11.084 -0.2582  0.1639  0.0318
16220W        W31351   3.904  10.060   5.096  0.0942 -0.0414  0.2078
16221W        W31352  15.827   7.827   3.158 -0.0224 -0.0195 -0.0250
16222W        W31353  12.996   8.115   0.159 -0.0044  0.4275  0.0293
16223W        W31354  13.256   9.502   2.626  0.0295 -0.0246 -0.0965
16224W        W31355   1.696   7.953   5.208  0.0476  0.1623  0.2131
16225W        W31356  11.579  17.894   4.877  0.1762  0.2691 -0.0519
16226W        W31357   9.800   0.329  14.912  0.0470 -0.1766 -0.0173
16227W        W31358   7.565  10.425   0.383  0.1180 -0.0493 -0.0289
16228W        W31359   5.465  15.385  15.899 -0.1005 -0.2254  0.0069
16229W        W31360  15.044   7.160   4.580 -0.0480  0.2871  0.1662
16230W        W31361  12.981   8.636   2.263 -0.1648 -0.3851  0.2043
16231W        W31362  14.805  10.439   4.347  0.1505  0.0531 -0.1828
16232W        W31363  16.974   5.756  12.302 -0.1604 -0.4706  0.1787
16233W        W31364   7.860   2.944  14.798  0.3305  0.3421  0.3859
16234W        W31365   4.429   3.532  12.556  0.0369  0.2168  0.0481
16235W        W31366  14.939  12.455   1.336  0.1160  0.0588 -0.4452
16236W        W31367  14.827   0.080  14.292  0.0792  0.0385  0.2782
16237W        W31368  15.976  14.929   3.005 -0.1592 -0.0347  0.1485
16238W        W31369   8.708   2.582   3.893 -0.1149 -0.2491 -0.0238
16239W        W31370   7.272   3.269  11.574  0.1256 -0.0730 -0.3514
16240W        W31371  10.579   6.879  15.918  0.1507  0.0521 -0.3490
16241W        W31372  11.463   2.008  12.418  0.2590 -0.3832 -0.1199
16242W        W31373  14.814   7.792  11.677  0.2809  0.3070  0.0269
16243W        W31374   1.666   1.965   1.385 -0.3494 -0.1122 -0.0204
16244W        W31375  11.135  16.922  10.145 -0.2200  0.2336  0.5709
16245W        W31376   4.569   6.480  15.209  0.2286 -0.2605  0.1628
16246W        W31377  12.283   8.828   1.104 -0.0927 -0.0758 -0.2176
16247W        W31378  10.708  13.135  12.346 -0.1314  0.1168 -0.1323
16248W        W31379  15.273  10.823  11.378  0.0401 -0.0021 -0.2080
16249W        W31380  12.704   8.650   2.666 -0.0150 -0.0693 -0.1463
16250W        W31381  13.277  10.165  15.961  0.1493 -0.1585  0.0228
16251W        W31382  11.691   0.773   5.684 -0.3660  0.2838  0.0959
16252W        W31383   2.003   4.029  12.318 -0.3714  0.1188 -0.2588
16253W        W31384   9.550   3.530  13.555 -0.1629  0.1079  0.2825
16254W        W31385   7.383  14.643  12.034 -0.1628 -0.0156 -0.3111
16255W        W31386  11.034  16.255  13.200  0.2070  0.1940 -0.3409
16256W        W31387  16.078  16.994  13.763  0.1052 -0.0731  0.2675
16257W        W31388   4.169  11.205  12.635 -0.1323  0.1239 -0.3441
16258W        W31389  14.084  16.126  13.421 -0.0555  0.0418  0.0630
16259W        W31390   4.430   9.918  13.227 -0.0134  0.0866  0.0587
16260W        W31391   2.692   6.159   5.272 -0.5689 -0.0733  0.0700
16261W        W31392  16.721  17.698   4.013 -0.0855 -0.0441  0.3112
16262W        W31393  11.700   4.674   1.601  0.1799  0.0597 -0.2100
16263W        W31394  10.745  16.292  14.362 -0.4298  0.2230  0.1077
16264W        W31395   5.645   7.499  13.560  0.1201  0.0550 -0.1378
16265W        W31396   4.313   7.190  15.818 -0.2032  0.2741 -0.1506
16266W        W31397  11.171   5.917  11.640 -0.4146 -0.0559 -0.1448
16267W        W31398   3.951  10.176  11.478 -0.1424 -0.0249  0.0699
16268W        W31399   6.812  17.591   4.874  0.1270  0.0527  0.0079
16269W        W31400   7.883  16.003   0.436  0.1889  0.2284  0.0732
16270W        W31401   0.081  13.091  14.386  0.1262 -0.1409  0.0950
16271W        W31402  12.237   6.167  12.002 -0.0810 -0.1667 -0.0140
16272W        W31403   7.112  11.471  12.280 -0.0551  0.2894  0.0693
16273W        W31404   4.404  14.348  14.401  0.0069  0.1332  0.1908
16274W        W31405   5.772  15.170  13.103  0.2411  0.2618 -0.1395
16275W        W31406   8.614   3.830  13.275  0.1891  0.4411  0.1815
16276W        W31407  15.804   5.620   3.745  0.2094 -0.0645  0.1083
16277W        W31408   4.606   4.097   2.446  0.0296 -0.1238 -0.3055
16278W        W31409  14.980  18.009   0.530  0.2637  0.0585  0.0229
16279W        W31410  12.900  11.834   4.762  0.0604  0.0517 -0.4480
16280W        W31411   0.300   3.572   4.835 -0.0742  0.3036 -0.3035
16281W        W31412   1.843   3.861   0.373 -0.1371  0.0698 -0.1797
16282W        W31413  10.573  11.175   1.224  0.1746  0.0518  0.0221
16283W        W31414  17.012   9.202   1.732 -0.0647  0.3720  0.3237
16284W        W31415   2.949   5.260  13.972  0.1661 -0.3743  0.0361
16285W        W31416   1.011   9.069   0.160 -0.0390  0.0584  0.1434
16286W        W31417   6.341   6.414  10.500 -0.1376 -0.1227  0.0606
16287W        W31418   0.857  14.605   2.415  0.1586  0.4637  0.2648
16288W        W31419   4.236   8.621   4.568  0.3725  0.0887 -0.3095
16289W        W31420   5.187  15.075   1.864  0.0424  0.1029 -0.1333
16290W        W31421   7.616   3.587   1.600 -0.0283 -0.2498  0.1931
16291W        W31422   1.935   6.014  12.367  0.0733  0.3432 -0.1178
16292W        W31423  13.308   3.467  16.176 -0.3108 -0.0247  0.2835
16293W        W31424   6.602  12.386   1.450 -0.2138 -0.0763 -0.1774
16294W        W31425   4.673   5.069   0.355 -0.1955  0.0530 -0.0342
16295W        W31426   8.312   9.726  14.818 -0.0719 -0.2341  0.0195
16296W        W31427   8.510   4.957  10.557  0.3531 -0.1618  0.1984
16297W        W31428   2.292   0.044  14.245 -0.1844  0.1405 -0.1205
16298W        W31429  17.147  17.683   0.927  0.1065 -0.2273  0.0506
16299W        W31430   4.137  12.164  12.573 -0.1909  0.5590  0.0684
16300W        W31431   9.308   7.862   4.870 -0.1372 -0.1146 -0.2144
16301W        W31432   9.350  13.540  16.274  0.1533 -0.0764 -0.5049
16302W        W31433  10.853   9.895   3.490 -0.1399  0.0087  0.4635
16303W        W31434   3.615  18.066   1.689  0.3070 -0.0091  0.0769
16304W        W31435  13.588   0.439   3.431  0.0926 -0.1621  0.1232
16305W        W31436   6.329  16.403  14.511  0.0209 -0.0060  0.0832
16306W        W31437  16.656   1.292  15.056 -0.1054 -0.1451 -0.0886
16307W        W31438   5.687  14.698   0.311 -0.1405  0.0730 -0.0497
16308W        W31439   4.751  17.899  12.946 -0.0663 -0.0765 -0.0422
16309W        W31440  11.330   3.896  12.105  0.3487  0.0097  0.0752
16310W        W31441   7.834   4.411  15.425  0.1400 -0.1652 -0.1123
16311W        W31442   4.248  11.881  15.779 -0.0409  0.1735  0.2489
16312W        W31443   4.985   7.340   0.306  0.2259  0.0624  0.0727
16313W        W31444  14.570   1.470   0.363 -0.1225 -0.0585  0.2084
16314W        W31445   2.293   2.666  12.792 -0.0053  0.2330 -0.3000
16315W        W31446  14.879   3.552  15.514 -0.2891  0.0885  0.0865
16316W        W31447  13.556   4.909  15.291  0.0707  0.2889  0.1416
16317W        W31448   5.856  14.749   1.475 -0.2529 -0.1474 -0.2466
16318W        W31449  12.815   3.617   2.305 -0.0550  0.0893 -0.2237
16319W        W31450  16.238  13.361   5.294 -0.1625 -0.0696  0.1465
16320W        W31451  13.711  15.410   5.143  0.2320 -0.1853 -0.1245
16321W        W31452   5.800  17.767  16.112  0.0879  0.0292  0.0320
16322W        W31453   0.682   3.412  15.781  0.0181 -0.1476  0.2668
16323W        W31454  14.325   8.566   2.267  0.0112  0.0523  0.2078
16324W        W31455  11.607   0.222  15.038 -0.0380  0.0389  0.2077
16325W        W31456   8.749   6.495  13.105 -0.4125 -0.1336  0.1747
16326W        W31457   0.268   2.718  12.824  0.1172 -0.0156 -0.2395
16327W        W31458   7.830   7.703   1.790  0.0149  0.3115  0.0451
16328W        W31459  15.336  17.592   2.783  0.0891  0.1431 -0.1045
16329W        W31460   1.109   7.012  13.872 -0.1822  0.0822  0.2417
16330W        W31461   0.023  15.027  15.951  0.1467  0.1872  0.1564
16331W        W31462   6.870   4.517   5.334 -0.1099 -0.0501 -0.0461
16332W        W31463   8.956   9.193  15.577  0.0576  0.0401 -0.0564
16333W        W31464   4.633   7.779  14.912 -0.4551  0.2567 -0.3936
16334W        W31465   9.147   7.197   0.708 -0.2559  0.0459  0.2387
16335W        W31466   8.226  14.129   0.909 -0.0119  0.0415  0.0094
16336W        W31467   9.351   8.479  15.380  0.3415 -0.2531  0.0716
16337W        W31468  12.729  18.067  13.814 -0.1733 -0.0232  0.1311
16338W        W31469   5.453  11.921  12.184  0.0669 -0.3139  0.4124
16339W        W31470   5.624  15.591  12.936  0.1104 -0.1628 -0.1856
16340W        W31471   3.819   6.393   0.711  0.1976 -0.1682  0.0476
16341W        W31472   1.298  13.827  14.674  0.1834 -0.1109  0.1234
16342W        W31473  14.713   9.551  13.436  0.0766 -0.1476  0.1900
16343W        W31474  16.913   2.090   4.838 -0.1982 -0.3152 -0.3012
16344W        W31475  10.498  13.679   4.672 -0.0111 -0.0960  0.2218
16345W        W31476   6.331   6.777  11.794 -0.1204  0.2258  0.3708
16346W        W31477   4.604  17.388   1.654  0.0958  0.0486  0.0893
16347W        W31478   6.217   0.534   5.677  0.0107 -0.1675 -0.1857
16348W        W31479   0.697   3.758   2.635  0.0392  0.2170 -0.0285
16349W        W31480   5.197   6.734   5.271 -0.1922 -0.4262  0.1497
16350W        W31481   5.480  13.659   0.142 -0.2230  0.0483 -0.4592
16351W        W31482  15.447   5.123  13.345 -0.0805 -0.1969 -0.2465
16352W        W31483  16.075   0.442  15.386  0.0307  0.4371  0.0247
16353W        W31484   6.197   9.583   5.044 -0.1311 -0.0958 -0.1519
16354W        W31485  14.536  13.455   1.236 -0.4412  0.0157  0.0029
16355W        W31486  15.186   1.501   1.335 -0.0099 -0.1004  0.0379
16356W        W31487  11.559   3.417   0.093 -0.4074 -0.2128 -0.2740
16357W        W31488  17.919   3.654  15.849 -0.0441  0.2145  0.0057
16358W        W31489  13.327   2.873   5.456  0.2934  0.2021 -0.1274
16359W        W31490   3.532  17.639  10.109  0.2966 -0.0444 -0.2203
16360W        W31491  16.156  11.873   0.563  0.2285  0.0679  0.4181
16361W        W31492  11.784   8.835   5.314 -0.3441 -0.0349  0.1532
16362W        W31493  14.116  14.530  14.854  0.1303 -0.0177 -0.2833
16363W        W31494  15.953   9.837   4.815  0.2606  0.1007  0.0866
16364W        W31495  11.404  12.039   4.554  0.0933  0.0769 -0.0038
16365W        W31496  11.841   1.668   3.074  0.0869 -0.0236 -0.1932
16366W        W31497  10.157   3.713  12.410 -0.2027 -0.0347 -0.2663
16367W        W31498   1.290  11.609  12.770 -0.3334  0.1514 -0.4279
16368W        W31499  17.841  10.420  15.437 -0.0263 -0.0222  0.0553
16369W        W31500   7.623   1.463   0.680  0.0740  0.1430  0.3242
16370W        W31501  13.399  10.369  14.148  0.2459  0.2128 -0.3025
16371W        W31502  16.006   4.987  11.399 -0.1705  0.1983  0.0366
16372W        W31503  17.978   0.227   0.248  0.0204  0.3254  0.0264
16373W        W31504   0.060   7.137  16.336  0.0051  0.2458 -0.0489
16374W        W31505   1.465   3.903   6.170  0.2037  0.0709  0.1345
16375W        W31506  15.951  10.540   0.094 -0.2265  0.2255  0.2063
16376W        W31507  13.537  17.081  13.198 -0.1212  0.1215 -0.2873
16377W        W31508  15.987  10.907   5.041  0.1073 -0.1586 -0.1761
16378W        W31509   4.447   8.140   3.221  0.1202  0.2740 -0.0346
16379W        W31510   0.272  15.596   0.182 -0.0573 -0.0683 -0.3234
16380W        W31511  15.057   4.679   0.637  0.2205 -0.1011 -0.2436
16381W        W31512   4.682   2.693  11.957  0.3370 -0.2938 -0.0930
16382W        W31513  18.067  15.305   5.503 -0.0080 -0.2125 -0.0612
16383W        W31514  11.883  16.865  13.539  0.0086 -0.0711 -0.1546
16384W        W31515  16.387   7.528   3.758 -0.0677 -0.1188  0.1060
16385W        W31516  17.561   6.786  11.727 -0.0684  0.0319 -0.2621
16386W        W31517  15.964   7.144   1.693 -0.0743 -0.6434  0.2950
16387W        W31518  17.619  14.314  16.416 -0.0674 -0.1130  0.1841
16388W        W31519   1.703   6.988   0.210  0.1315  0.0177 -0.0042
16389W        W31520  15.047  11.295   4.449 -0.1224 -0.2525 -0.0100
16390W        W31521   0.324  16.900   5.196 -0.1766 -0.0104  0.5262
16391W        W31522  13.016  15.535   0.500 -0.0779 -0.3521 -0.0430
16392W        W31523  11.450  12.754   6.555  0.1212  0.1163 -0.0866
16393W        W31524   4.619   3.861   1.572  0.1948  0.2909  0.1238
16394W        W31525  10.670   2.371  15.781 -0.0023  0.0987 -0.1371
16395W        W31526   3.272  17.845   0.834  0.1364  0.2273  0.1484
16396W        W31527   8.550   7.046  16.204  0.1534 -0.1986 -0.1147
16397W        W31528   3.740  13.089   1.986 -0.3042  0.0351  0.4843
16398W        W31529   7.556  12.878  14.410 -0.0136 -0.1647  0.4170
16399W        W31530  11.329  16.150   4.380  0.0514  0.0267  0.0601
16400W        W31531  15.431  13.246  16.200 -0.1099  0.1289  0.0385
16401W        W31532  11.475  15.216   4.974 -0.0675  0.0216 -0.0295
16402W        W31533   3.835  17.778   2.105  0.1510 -0.0596  0.0307
16403W        W31534   6.007   8.854   4.267  0.3704  0.0157  0.0782
16404W        W31535  16.651   3.084   4.704  0.3462  0.0485 -0.2083
16405W        W31536   8.475  13.086  14.156  0.4205  0.0197 -0.0386
16406W        W31537  11.238   8.363   0.107 -0.2034 -0.1430  0.0755
16407W        W31538   2.402   5.003   3.259 -0.0413  0.0650 -0.2496
16408W        W31539   7.235  12.303   4.198  0.4053 -0.2536  0.0137
16409W        W31540   6.674  17.178  14.736 -0.0595  0.1368 -0.0874
16410W        W31541  13.056  17.045   3.709 -0.2796  0.1644  0.0723
16411W        W31542   4.894   5.433   3.421 -0.1149 -0.0014 -0.1485
16412W        W31543  10.987  10.322   1.433  0.1061  0.0031 -0.4405
16413W        W31544   9.287  15.316  14.435 -0.0228 -0.2332 -0.1206
16414W        W31545   6.316  12.870  14.272  0.0922 -0.0818 -0.1326
16415W        W31546   4.062   3.971  12.416 -0.1087  0.2375  0.0569
16416W        W31547  10.512   8.368   0.585 -0.2070 -0.4590 -0.1858
16417W        W31548   6.666  16.446   4.187 -0.1099  0.2096 -0.0112
16418W        W31549  14.247   2.282   4.244 -0.1532  0.1104  0.3609
16419W        W31550  12.513  12.900   1.079  0.0002  0.3858 -0.2654
16420W        W31551   1.250   0.960   1.606 -0.0405 -0.1896 -0.4197
16421W        W31552   6.409   4.914  11.559 -0.1552 -0.2954 -0.0401
16422W        W31553   4.336  10.577   5.608 -0.0940  0.3518  0.0802
16423W        W31554   3.162   1.167   4.044 -0.0786  0.1008  0.0227
16424W        W31555  10.318   4.363  13.558 -0.1588 -0.1382 -0.3037
16425W        W31556  12.222  13.831  15.794  0.1040 -0.2450 -0.5970
16426W        W31557   1.403   9.178  13.894 -0.4016  0.1316  0.1508
16427W        W31558   6.044   8.650  13.925 -0.2018  0.1788 -0.1667
16428W        W31559   1.136  17.408   2.435 -0.0241  0.0400 -0.1985
16429W        W31560  11.795   1.096   5.305 -0.0241  0.0818  0.2346
16430W        W31561   5.807  14.278  11.752 -0.2490 -0.1288  0.0488
16431W        W31562   7.628   2.590  15.183  0.3740 -0.0536  0.0286
16432W        W31563   0.282   3.455   2.661  0.1137  0.0724 -0.2010
16433W        W31564  16.507   7.566   5.758  0.0335  0.0303  0.2286
16434W        W31565  17.680   1.023  11.914 -0.1513  0.0257  0.0451
16435W        W31566   6.784  10.517  12.221  0.0645 -0.1964  0.1574
16436W        W31567  13.902   6.462   0.456 -0.2948 -0.1632  0.0333
16437W        W31568   3.612  10.481  12.972  0.2277 -0.0972 -0.1847
16438W        W31569   8.359  12.086  15.131  0.0748 -0.3259 -0.0201
16439W        W31570   2.467   5.419  14.033 -0.0914 -0.0332 -0.0765
16440W        W31571  10.217   3.497  14.259 -0.2248 -0.0586 -0.0102
16441W        W31572  15.869   4.828   4.413 -0.0883 -0.0252 -0.0231
16442W        W31573  16.194   7.886   0.054  0.1628  0.0214  0.1061
16443W        W31574  10.409  14.060  13.436  0.0992  0.1096 -0.1702
16444W        W31575  16.378   2.048   0.310  0.1948 -0.0672  0.1092
16445W        W31576   4.931   5.169   1.202  0.1197  0.0006 -0.1302
16446W        W31577   8.627  10.813   1.139 -0.2747 -0.1925 -0.1731
16447W        W31578  13.477  17.399   4.103  0.2153  0.1155 -0.0206
16448W        W31579   0.675  12.051   5.612  0.2137  0.1100 -0.0890
16449W        W31580  10.286  16.439   5.293  0.3306 -0.0646  0.0035
16450W        W31581   2.314  11.738  14.428  0.0235  0.0524 -0.1700
16451W        W31582   3.737   2.163  15.303  0.0777  0.2435  0.4189
16452W        W31583   2.425  15.447  12.144 -0.0443 -0.1694 -0.2577
16453W        W31584  16.319  11.430  13.505  0.2196  0.2700  0.0111
16454W        W31585   3.580   7.047  15.484  0.1520 -0.3317 -0.1443
16455W        W31586   2.819  10.707  14.263  0.1416 -0.1775 -0.2139
16456W        W31587   6.884  13.472  14.454  0.1065 -0.2335 -0.0083
16457W        W31588  13.844  17.876  13.391  0.2821 -0.2451 -0.0291
16458W        W31589   8.568   0.125  12.974 -0.0129 -0.2787 -0.3175
16459W        W31590   3.807   2.770   3.183  0.2891  0.2424  0.1700
16460W        W31591   3.460  10.413  11.540 -0.0525 -0.1734 -0.3033
16461W        W31592   1.649  15.619   0.604 -0.1559  0.0408  0.0237
16462W        W31593   4.116   8.340  13.047  0.0967  0.0367 -0.2557
16463W        W31594  10.709  14.728  12.867  0.0857  0.0986  0.3152
16464W        W31595  12.561   0.148   0.307  0.1020 -0.2406  0.0714
16465W        W31596  11.448   8.680  12.808 -0.2525  0.2889  0.1611
16466W        W31597   4.284  16.636  13.168 -0.1532 -0.0844  0.2039
16467W        W31598   8.262  14.637   9.994  0.1255 -0.3703 -0.0047
16468W        W31599   7.661  12.158  15.496  0.3163  0.0639  0.0075
16469W        W31600  17.623   3.909   4.430  0.3038  0.3834 -0.1409
16470W        W31601   8.364  15.873   1.968 -0.1016 -0.3048  0.0061
16471W        W31602  10.345  11.310  13.620 -0.0933  0.1153 -0.1043
16472W        W31603   3.251  17.665  14.823  0.0210  0.3452  0.0164
16473W        W31604   1.959  12.970   3.823  0.1483  0.4958  0.0347
16474W        W31605  16.877  17.602  12.353  0.0741  0.0771  0.1792
16475W        W31606  16.279  10.157  14.092  0.1166 -0.0009  0.4323
16476W        W31607   9.515  13.075  11.540 -0.3504  0.0689 -0.0698
16477W        W31608  17.598   8.216   3.256 -0.1827  0.0228  0.0881
16478W        W31609  12.954   7.721  16.237 -0.1281 -0.0049  0.0191
16479W        W31610  15.722  16.952  11.437  0.1836  0.0561  0.0763
16480W        W31611  10.506   6.394   3.166  0.0611  0.1666 -0.2674
16481W        W31612   7.965  17.732  12.596 -0.3395  0.3524 -0.1583
16482W        W31613  11.438   8.879   1.399 -0.0533  0.0769  0.0326
16483W        W31614  11.180  11.831   2.533  0.0155 -0.3641  0.2014
16484W        W31615   6.412   1.098  13.632  0.3115  0.1876  0.1457
16485W        W31616  15.199   0.179  12.759  0.2405 -0.1072  0.0272
16486W        W31617   9.890   1.933   2.363  0.1639 -0.1991  0.0529
16487W        W31618  17.712   4.663  14.964 -0.2227 -0.0291  0.0642
16488W        W31619  12.906   9.380   4.106 -0.2058 -0.0650 -0.2123
16489W        W31620  11.180  10.868  12.025 -0.2179 -0.1009  0.3540
16490W        W31621   5.451  14.465   0.789  0.3266  0.1457 -0.0491
16491W        W31622   5.804  16.720   5.507 -0.0830 -0.3147  0.1758
16492W        W31623   0.434  11.989   1.303 -0.2706  0.0532  0.0409
16493W        W31624   9.970  15.468   3.712  0.0377 -0.0413  0.1213
16494W        W31625   9.949   3.633   0.284 -0.1704 -0.0923  0.3855
16495W        W31626   3.586  10.274  16.454  0.0113  0.3259 -0.1264
16496W        W31627  18.081   3.829   5.077  0.1447  0.0515 -0.2959
16497W        W31628  17.357   5.242   6.506 -0.3545  0.4705 -0.0113
16498W        W31629   7.966   1.353  14.895  0.1159 -0.3955  0.1305
16499W        W31630   1.723   9.929   3.595 -0.0423  0.0536  0.1545
16500W        W31631  11.039   4.775   2.349  0.1434 -0.0993  0.0504
16501W        W31632   4.342  14.718  10.985 -0.2856  0.0362 -0.1675
16502W        W31633  17.483  10.180  16.264  0.0564  0.1455 -0.1614
16503W        W31634  14.436  16.183  12.511 -0.2387 -0.0411 -0.2582
16504W        W31635   4.762  16.751   1.947 -0.1015  0.3962 -0.0822
16505W        W31636   1.724   3.347   1.754 -0.1415  0.0876 -0.0283
16506W        W31637   9.356   3.039  16.414 -0.4835 -0.2445  0.2586
16507W        W31638  12.804   5.899  12.610 -0.1106 -0.0181 -0.2275
16508W        W31639   4.206   3.381   1.630 -0.3616 -0.2047  0.0424
16509W        W31640   0.408  13.996  15.786  0.3766 -0.1741 -0.0849
16510W        W31641   5.030  14.226  13.274  0.3024 -0.1307 -0.0906
16511W        W31642   8.933   8.487  13.588  0.1533  0.3328  0.1441
16512W        W31643   8.185  13.489   2.641 -0.1342 -0.1234  0.1089
16513W        W31644   2.403  14.761  14.622  0.0472  0.2755 -0.0794
16514W        W31645  14.751   5.436   2.281  0.2699  0.0453 -0.1078
16515W        W31646   8.485  13.248  13.650  0.0263 -0.2988 -0.0596
16516W        W31647  17.806   8.670   4.981 -0.2351  0.0491 -0.0203
16517W        W31648  11.605  13.850  12.366 -0.0670 -0.1740  0.0003
16518W        W31649  12.424   9.750   0.726 -0.1856  0.0711  0.0483
16519W        W31650  11.605  11.598  13.342 -0.3246 -0.1101  0.1246
16520W        W31651  16.830  16.515   2.559 -0.0715  0.0197  0.1244
16521W        W31652   0.767  11.711  14.333 -0.0339 -0.2042 -0.1847
16522W        W31653  12.772   1.368   4.207 -0.1335  0.1180  0.1038
16523W        W31654   0.725  11.361   5.057  0.0111  0.2372 -0.6055
16524W        W31655  16.979   0.234   3.352 -0.0273 -0.1177  0.1357
16525W        W31656  11.129  11.050   5.917  0.2174 -0.0479  0.3957
16526W        W31657  10.047   2.097   4.196  0.0697 -0.0362  0.0455
16527W        W31658  11.431   2.854   5.491  0.1216  0.0460  0.0159
16528W        W31659  16.195   0.466   0.930 -0.1748  0.0093 -0.1283
16529W        W31660   4.727  18.077   2.443 -0.1118 -0.0766  0.0636
16530W        W31661   5.139  13.800   4.735  0.0926 -0.4803  0.0279
16531W        W31662  10.385   1.352   3.368 -0.3321 -0.0704  0.1238
16532W        W31663  15.883  16.593   1.415 -0.0740 -0.2489  0.2415
16533W        W31664   1.376   5.586  13.784 -0.2066  0.1046 -0.0404
16534W        W31665   8.337   3.636  10.930 -0.1351 -0.0110  0.2657
16535W        W31666   5.641   9.096  10.943 -0.0843 -0.1027 -0.2658
16536W        W31667   7.238   0.385   3.658 -0.3318  0.1272  0.3214
16537W        W31668   2.584   7.229   1.644  0.2248  0.0652 -0.3182
16538W        W31669   3.101   0.081  13.714  0.0131  0.1523 -0.2764
16539W        W31670  11.212   0.779   1.792  0.1854 -0.1619 -0.5345
16540W        W31671   3.147  15.546  14.614  0.0304  0.1332  0.3376
16541W        W31672  12.285   6.406  15.211 -0.2574 -0.2248  0.0806
16542W        W31673   2.530   1.633  14.772  0.1242  0.1013  0.1393
16543W        W31674   8.425  10.234   3.749 -0.3258  0.1677  0.1592
16544W        W31675   0.471   6.450   4.402  0.0565 -0.1586  0.3128
16545W        W31676   1.010   5.236  12.901 -0.0140 -0.1035 -0.2807
16546W        W31677  12.083  10.881   4.986  0.2306  0.0436 -0.0292
16547W        W31678  17.615  12.187   2.606 -0.1911  0.5018  0.0539
16548W        W31679  11.160  14.828  13.096 -0.0333  0.1708  0.1404
16549W        W31680   9.823   0.111  10.905  0.0981 -0.4244 -0.1626
16550W        W31681   0.426  15.090   0.504 -0.0741 -0.1355  0.1190
16551W        W31682   6.395  14.139   3.023  0.3185  0.2796 -0.0096
16552W        W31683   0.706  10.043   4.293 -0.2469 -0.0534  0.0191
16553W        W31684   3.847   0.223   5.686 -0.0877  0.3085 -0.0729
16554W        W31685  15.910   8.615  16.210  0.1443 -0.1545  0.2107
16555W        W31686   7.548  16.800   1.718 -0.1028 -0.2573  0.0514
16556W        W31687  14.879   8.842  13.188  0.2079  0.2208 -0.4462
16557W        W31688   3.685   9.077   1.580  0.5133  0.3020 -0.1863
16558W        W31689  17.096  17.262  12.784 -0.2301 -0.1838 -0.0603
16559W        W31690  15.077   5.834   4.230 -0.2413  0.0220  0.0197
16560W        W31691  10.807   8.776  15.205 -0.1700 -0.2556  0.0145
16561W        W31692   9.584   0.925  11.221 -0.4557  0.0609 -0.1876
16562W        W31693  15.676   1.003  13.893 -0.3744  0.1788  0.1793
16563W        W31694  12.006   9.868  14.883 -0.1174 -0.1425  0.3264
16564W        W31695   9.630   3.326  14.818 -0.0384 -0.3242 -0.3859
16565W        W31696   4.548  14.813  15.366  0.1458  0.0458  0.3931
16566W        W31697  15.033  14.605   4.875  0.0261  0.0771 -0.2091
16567W        W31698   1.931   3.713   1.462 -0.1170  0.3638  0.4544
16568W        W31699  12.587   3.376   0.545 -0.1124  0.0870  0.1129
16569W        W31700  10.241   0.162  12.999  0.1323  0.1246  0.4413
16570W        W31701   4.772   8.957  15.101 -0.1068 -0.0183 -0.0101
16571W        W31702   5.200   9.726   5.391 -0.0176 -0.0487 -0.2382
16572W        W31703  14.212   9.145  15.747  0.3136 -0.1869 -0.1434
16573W        W31704  10.904  10.519  14.840  0.1011 -0.1310  0.1324
16574W        W31705  17.585   0.666  10.232  0.0760 -0.3164 -0.0053
16575W        W31706   8.324  17.292   2.044 -0.1216  0.0859 -0.0772
16576W        W31707   9.747  11.607   3.272  0.2744  0.2594 -0.0329
16577W        W31708   3.806  10.786  12.593 -0.1945  0.0758  0.1538
16578W        W31709   7.429   7.090  12.586  0.2250  0.0604  0.1179
16579W        W31710  10.165  17.328  11.695 -0.0796  0.0270  0.0014
16580W        W31711   3.534   9.623   5.015  0.1682 -0.1625  0.0607
16581W        W31712  14.105   4.724  13.545  0.1856  0.0762  0.2795
16582W        W31713   3.424  11.420   5.709  0.2428  0.2043  0.1767
16583W        W31714  10.143   6.774   2.404 -0.0753 -0.0467 -0.0782
16584W        W31715   5.942  12.712  15.794  0.2798 -0.0654 -0.0761
16585W        W31716  15.422   1.896  13.690 -0.1472  0.2262 -0.1229
16586W        W31717   6.191  14.984  15.474  0.1839 -0.2072  0.4090
16587W        W31718   0.389  13.894  16.305  0.3910  0.0462 -0.0531
16588W        W31719  11.074   7.322  11.593  0.0079  0.0555 -0.0613
16589W        W31720  12.280   7.079   3.265 -0.2434 -0.2654  0.1981
16590W        W31721   1.003  14.510  13.408  0.0541  0.0741 -0.0536
16591W        W31722  12.197  10.277  15.107  0.0996  0.0371  0.2747
16592W        W31723  15.071   8.596   3.309 -0.0177  0.0568  0.5644
16593W        W31724  16.373  10.062   2.376  0.2478  0.4448  0.3039
16594W        W31725  10.387  14.279  12.625 -0.0332 -0.0895 -0.0531
16595W        W31726  15.054  16.167   4.110 -0.4230 -0.1720  0.0438
16596W        W31727  15.880   6.723   3.036 -0.1301  0.2792  0.0567
16597W        W31728  10.676   6.592   3.762 -0.1637 -0.0857  0.0656
16598W        W31729  12.817  13.590  11.439 -0.0795 -0.2530 -0.3124
16599W        W31730  17.061   5.607  12.890  0.1966 -0.0473 -0.4426
16600W        W31731   4.946  13.021   5.084  0.0541 -0.0042 -0.3071
16601W        W31732  17.513  15.790   0.572 -0.1071  0.1407 -0.3503
16602W        W31733   6.986   8.781  14.951 -0.2573  0.3193 -0.1162
16603W        W31734   6.032  17.777   1.880  0.1662 -0.3714 -0.0101
16604W        W31735   2.825   4.852   5.065  0.0814  0.0383 -0.0595
16605W        W31736   8.194  13.231  15.027 -0.0491  0.1043 -0.0878
16606W        W31737  14.166  13.079  16.305 -0.0428 -0.2389  0.2192
16607W        W31738   1.873  11.285   5.727 -0.0130  0.0902 -0.2096
16608W        W31739   5.790  15.012  12.427 -0.0962 -0.2400  0.0419
16609W        W31740   7.780   5.514   4.213 -0.1421  0.0142 -0.0768
16610W        W31741  16.182  12.251  13.918  0.0814  0.0792  0.0046
16611W        W31742  15.616  10.333  15.863 -0.0391  0.4593 -0.1420
16612W        W31743   9.763  12.565   1.033 -0.0214 -0.0040 -0.0056
16613W        W31744  11.370   1.205  13.033  0.0256  0.0976 -0.2884
16614W        W31745   0.812  14.645   4.666  0.2395 -0.3158 -0.0626
16615W        W31746  16.203  12.901  16.033  0.3631 -0.4756  0.1080
16616W        W31747  11.234  14.552   1.508  0.0272  0.3531 -0.1014
16617W        W31748   3.000   5.966  11.134  0.0336  0.1867 -0.1095
16618W        W31749   1.434  16.591   4.494  0.0112  0.0548 -0.1826
16619W        W31750  10.338   9.265  14.542  0.1680  0.0285  0.0466
16620W        W31751   8.895  15.822  12.084 -0.0723 -0.0806  0.0238
16621W        W31752  14.935  15.153   4.934  0.1405  0.3825  0.0092
16622W        W31753  11.500   3.474   4.550  0.1204  0.0010 -0.0867
16623W        W31754   3.319  14.981   4.593  0.0088  0.1253  0.1361
16624W        W31755   3.663  17.873  15.087  0.2761 -0.0892  0.0658
16625W        W31756   1.703   3.142  11.669  0.1198 -0.2077  0.2324
16626W        W31757   5.279   5.121   2.616  0.0420  0.0323  0.1536
16627W        W31758   5.468  11.009  11.984  0.2050 -0.0257 -0.1937
16628W        W31759  15.736   0.134   5.164  0.0146 -0.2595  0.0923
16629W        W31760   6.315  10.157  14.839 -0.1990  0.0230  0.1599
16630W        W31761  16.798  10.801   0.397  0.0180 -0.1666  0.0755
16631W        W31762  10.820  16.935  12.934 -0.2395 -0.4941 -0.1520
16632W        W31763  14.993  13.101   6.539  0.1072 -0.0129  0.0341
16633W        W31764  15.507   0.910   3.719 -0.1061  0.3683  0.2198
16634W        W31765   8.294   1.541   1.728  0.1974  0.1154  0.1334
16635W        W31766  14.248   8.044   6.015  0.0337  0.0206 -0.1878
16636W        W31767   9.325  12.011   0.627  0.0281 -0.3566 -0.3542
16637W        W31768   0.613  15.618  14.822  0.0021 -0.3880  0.2354
16638W        W31769   3.973   4.463   4.157  0.1044  0.1851 -0.2832
16639W        W31770  10.751   1.561   0.406  0.2583 -0.1383  0.0351
16640W        W31771   5.981  18.073   3.909 -0.1195  0.1657  0.1146
16641W        W31772  16.635  15.220  12.543  0.3036  0.1552  0.3254
16642W        W31773  11.530   1.907   3.440 -0.2079  0.0343  0.0792
16643W        W31774   3.029  16.308  12.374 -0.0864 -0.0854 -0.1102
16644W        W31775  13.671   5.020   3.264 -0.1334  0.1013 -0.2827
16645W        W31776   5.835  13.118   2.205  0.0160 -0.1429  0.1553
16646W        W31777  13.332  11.855  13.038 -0.1816 -0.3444  0.0444
16647W        W31778   2.571  10.178  15.636  0.1373 -0.1571 -0.2380
16648W        W31779   3.200   5.770  15.312 -0.2825 -0.1573  0.2161
16649W        W31780  17.489  17.382  15.985 -0.0869  0.2663  0.0990
16650W        W31781  15.697   2.443   1.346  0.0310 -0.1050 -0.1303
16651W        W31782  16.504   6.557   2.831  0.0311 -0.0217 -0.0228
16652W        W31783  13.208   1.657  12.986  0.2162 -0.0270 -0.1966
16653W        W31784   9.104   2.491   1.792 -0.1496  0.0945 -0.0868
16654W        W31785   8.664   2.220  14.007  0.1430 -0.0173  0.1251
16655W        W31786  12.027  11.259  15.869  0.0327 -0.3089 -0.0891
16656W        W31787  16.614  13.902   2.492 -0.2050 -0.0104  0.2279
16657W        W31788   7.419  17.237   0.953  0.0390 -0.4111  0.0560
16658W        W31789   8.873  17.591  12.244 -0.1409 -0.0989  0.1405
16659W        W31790   3.941  10.518   1.291 -0.0998 -0.1546  0.0734
16660W        W31791   4.439   5.902  10.962  0.3052  0.2877 -0.1653
16661W        W31792  10.228   2.889   0.945  0.1375  0.0839  0.0131
16662W        W31793   6.148  13.028  12.399  0.1392 -0.0734 -0.2154
16663W        W31794   3.880   1.656  15.920 -0.0737 -0.1983  0.2025
16664W        W31795   5.900   7.258   2.398 -0.0322  0.0688 -0.0010
16665W        W31796  15.812   4.954  10.566 -0.0719  0.1458 -0.2865
16666W        W31797   6.890   6.780   2.470 -0.0825 -0.0272 -0.2669
16667W        W31798   2.445  15.171   0.357  0.0245  0.1269  0.0269
16668W        W31799   6.860   6.048  13.131  0.2079 -0.1880 -0.0996
16669W        W31800  15.555  16.854   2.704 -0.2156 -0.0102  0.1595
16670W        W31801  15.877   5.600  15.748  0.1687  0.1199  0.1261
16671W        W31802   1.081  13.576  16.061 -0.3161  0.2277  0.2847
16672W        W31803  12.068  17.385  14.863  0.2652  0.2595  0.1765
16673W        W31804  16.667  14.303   0.678 -0.0582  0.1820  0.1329
16674W        W31805   9.122  15.852  16.297 -0.2619 -0.2142 -0.0400
16675W        W31806  12.048   7.179   5.114  0.2675  0.0959 -0.1474
16676W        W31807   6.498   4.720  13.710 -0.0642 -0.1526  0.1280
16677W        W31808  15.052  17.654  14.888  0.1947 -0.0436 -0.1282
16678W        W31809  15.883  10.723   1.948  0.2543 -0.5103  0.1699
16679W        W31810   3.734  14.568   2.135  0.0996  0.1532 -0.0119
16680W        W31811  13.310  10.286   4.436  0.0059 -0.1581  0.2778
16681W        W31812  12.969  11.236   0.494 -0.2413 -0.0701  0.0876
16682W        W31813  10.264   8.549   4.604 -0.3061 -0.0242  0.1871
16683W        W31814  10.283   7.062  14.569 -0.1627 -0.3143 -0.1162
16684W        W31815  14.832   0.670   4.371  0.4551  0.0658 -0.0656
16685W        W31816   8.878  15.687   2.975 -0.3020  0.0872 -0.2290
16686W        W31817   8.568  11.458   1.933  0.1010 -0.0133  0.3184
16687W        W31818  17.618   6.111  13.450  0.1535  0.1538 -0.1128
16688W        W31819  10.236   7.235   2.563 -0.0024  0.0963  0.1248
16689W        W31820   0.141  13.572   4.733  0.0373 -0.1470 -0.0892
16690W        W31821  13.116   6.883   1.898 -0.2194  0.1590 -0.0361
16691W        W31822   8.291   9.295  12.150  0.3991 -0.0689 -0.0096
16692W        W31823   3.590   8.691  12.165 -0.2175  0.0381  0.1849
16693W        W31824  15.013  10.234  12.125 -0.0164 -0.1174 -0.1665
16694W        W31825   5.466  16.740   3.076  0.1590  0.1090  0.0447
16695W        W31826   1.758   9.693   1.714 -0.2778 -0.5042  0.0080
16696W        W31827  13.371   2.633   3.185  0.2676 -0.0724 -0.1278
16697W        W31828  16.107   4.306  13.674 -0.1171  0.2311 -0.2632
16698W        W31829   2.268   9.325   0.100  0.1706 -0.1963  0.1091
16699W        W31830   2.082   3.298   1.216  0.1064 -0.1078 -0.0103
16700W        W31831   2.608  16.825  12.993  0.1807 -0.1699 -0.0232
16701W        W31832   7.299   1.415   1.247 -0.3154 -0.0071 -0.0049
16702W        W31833  14.477   7.259   2.360 -0.2870 -0.1607 -0.1145
16703W        W31834   0.949  13.807  13.514  0.0042 -0.2863 -0.0196
16704W        W31835  16.076  12.363  15.339 -0.0390  0.1419 -0.0646
16705W        W31836  13.582  12.317   6.005 -0.2275 -0.1014  0.0377
16706W        W31837   9.134  11.889   4.680  0.2498  0.3437  0.1062
16707W        W31838  14.997  13.259   2.506  0.0837  0.1761 -0.3547
16708W        W31839   7.646  10.322   3.200 -0.1069 -0.0456  0.0480
16709W        W31840  13.668   7.049  16.161  0.2932 -0.3345  0.2723
16710W        W31841  11.841  14.803   3.505 -0.0476 -0.3027  0.0714
16711W        W31842  17.814  18.003   2.298  0.1935 -0.0472 -0.0736
16712W        W31843   7.760  16.808   3.398  0.2856 -0.0217 -0.1414
16713W        W31844   3.800   4.144   1.028 -0.0430  0.0387 -0.0789
16714W        W31845   3.514   2.111   2.640 -0.1470  0.2814 -0.2273
16715W        W31846   8.363  12.777   2.025 -0.1281 -0.0249 -0.0086
16716W        W31847   0.331  12.185  11.667  0.2624 -0.0229 -0.1169
16717W        W31848   6.219  10.187   2.701  0.3879  0.0034  0.0626
16718W        W31849  16.987   3.937  15.165 -0.1365 -0.1771  0.1220
16719W        W31850  17.366   2.280   5.142 -0.3140  0.1963  0.1271
16720W        W31851  14.443  11.593  15.311  0.2189  0.0165 -0.0164
16721W        W31852   2.772  13.570   0.929  0.2682 -0.1455  0.2793
16722W        W31853   4.421   3.967   4.803 -0.0567 -0.1041 -0.2739
16723W        W31854   7.705   2.973  15.560 -0.0330  0.0117  0.3088
16724W        W31855   3.707   6.635  16.103  0.1005 -0.0762  0.0360
16725W        W31856  11.468   1.760  14.775  0.0604 -0.0701 -0.1553
16726W        W31857   0.131   1.351   1.353 -0.1131 -0.1342 -0.0707
16727W        W31858  11.010   3.787  13.395  0.3494 -0.3835 -0.2119
16728W        W31859   4.736   5.512   2.513 -0.1112 -0.0364 -0.3019
16729W        W31860  14.326  15.222  12.984  0.1377  0.1484  0.1066
16730W        W31861  12.592  16.927   0.919  0.0415  0.0267 -0.0421
16731W        W31862   4.008   4.024   3.447 -0.0784 -0.4584  0.1243
16732W        W31863  12.511  15.946   0.998  0.1867  0.1073 -0.4017
16733W        W31864   1.662  15.307  15.178  0.0957  0.0141 -0.2432
16734W        W31865   2.575   6.708   0.373  0.2707 -0.3183 -0.1510
16735W        W31866   5.782  18.000   0.967 -0.0272  0.0266  0.2785
16736W        W31867   0.576   6.039   4.653 -0.0243  0.2441  0.0458
16737W        W31868  17.996  10.451  14.871  0.3728 -0.1529 -0.1768
16738W        W31869  10.514   8.929  14.177 -0.2753 -0.0483 -0.1796
16739W        W31870   5.893   9.195  12.327 -0.0891 -0.0702 -0.2162
16740W        W31871   9.431  17.819  14.442  0.0224 -0.0934 -0.0771
16741W        W31872   3.226   5.923  13.091  0.1171  0.1970 -0.0420
16742W        W31873   1.099   6.123  12.811 -0.0036 -0.3389  0.4138
16743W        W31874   3.936   4.613  15.340  0.2831 -0.1880 -0.2125
16744W        W31875  14.963  13.503  13.652  0.1338 -0.1063 -0.1166
16745W        W31876   4.657   1.264   3.830  0.4364 -0.4124  0.0130
16746W        W31877  15.672   1.019   1.442 -0.2417 -0.0372  0.1068
16747W        W31878   6.785   1.211   4.009  0.1000 -0.0264 -0.0057
16748W        W31879   3.336  15.680   4.719  0.1135 -0.0603 -0.2476
16749W        W31880   3.991  11.754   2.896  0.0592  0.0264 -0.2635
16750W        W31881   1.765  16.267   3.042  0.2458 -0.0451 -0.3490
16751W        W31882  15.957   7.756   3.671 -0.2010 -0.1389  0.2571
16752W        W31883  15.991  17.671   2.213  0.0293  0.0212 -0.2298
16753W        W31884   2.478   4.587   1.316  0.0645 -0.1089  0.0625
16754W        W31885   0.161   1.844   5.045 -0.1436 -0.1869 -0.2164
16755W        W31886   4.760   9.964  12.389  0.1980 -0.2460 -0.1263
16756W        W31887   1.443  16.345  14.938 -0.0205 -0.2437 -0.3718
16757W        W31888   2.587  15.008  15.055 -0.1330 -0.2378 -0.0584
16758W        W31889   4.513   1.467  14.749  0.0177  0.3579  0.1516
16759W        W31890   3.471  11.339  14.797  0.1936  0.4037 -0.0521
16760W        W31891   7.053   7.471   3.214 -0.2489 -0.2585  0.0443
16761W        W31892   4.464  11.824   1.953 -0.2521 -0.2097 -0.1582
16762W        W31893  15.422   4.139  12.942  0.0808  0.0463 -0.0689
16763W        W31894   0.804   0.211  14.436 -0.0478 -0.0238  0.1969
16764W        W31895   1.590  17.565   5.714  0.2180  0.0535 -0.1822
16765W        W31896   1.786   9.548  14.494 -0.1084  0.1112 -0.2768
16766W        W31897   2.989  13.517  11.811 -0.0812 -0.0041 -0.4416
16767W        W31898   0.662  13.983   1.427  0.0830 -0.2867 -0.1391
16768W        W31899  14.083   0.640  12.711 -0.0162 -0.0650  0.2806
16769W        W31900  11.937  16.126  13.759 -0.0165  0.0260 -0.0869
16770W        W31901   1.067  13.943   6.087  0.2009  0.0943  0.1145
16771W        W31902   2.946  13.546  16.234 -0.0585  0.1786 -0.1088
16772W        W31903  15.112   5.195  13.763  0.0128  0.0237 -0.0089
16773W        W31904   3.086   7.850  16.372  0.0540 -0.0312 -0.2800
16774W        W31905   7.721   1.263  16.179  0.1583 -0.3482  0.0871
16775W        W31906   2.214   8.350   1.446 -0.0528 -0.1105  0.2529
16776W        W31907   3.200   2.092   5.574 -0.3483  0.0541  0.0731
16777W        W31908   7.811   3.381   4.055  0.1490  0.1490 -0.0577
16778W        W31909   8.893   7.311  15.142  0.0224  0.2508 -0.1794
16779W        W31910  11.225  14.829  15.705 -0.3949  0.3372 -0.2319
16780W        W31911  12.667   0.802   2.371  0.0040  0.1039  0.1519
16781W        W31912   9.579  11.527  16.285  0.4324 -0.2293  0.0788
16782W        W31913  10.154  17.755   4.004 -0.0059 -0.1313  0.1922
16783W        W31914   7.755   1.598   3.711  0.2183  0.2567 -0.0192
16784W        W31915   8.724   4.401  12.060  0.2270  0.1541 -0.2121
16785W        W31916   7.540  11.666   1.151  0.1655  0.0124 -0.2967
16786W        W31917  14.743   6.150   0.360  0.0823 -0.1080 -0.1471
16787W        W31918  17.476   5.277  14.836 -0.2567  0.2309  0.2853
16788W        W31919  13.776   3.111   5.013  0.0026  0.1150 -0.2864
16789W        W31920   9.568  13.021   0.772  0.0264  0.1862  0.1479
16790W        W31921   4.639  11.902  12.553  0.0697 -0.0011  0.3078
16791W        W31922   9.111   0.758  12.862  0.2332 -0.2292  0.2483
16792W        W31923   0.070   9.689   2.636 -0.0831 -0.1964  0.0274
16793W        W31924   7.856   4.026   4.540 -0.1256 -0.0127 -0.1062
16794W        W31925  15.916   8.957  14.781 -0.4094 -0.0330  0.0275
16795W        W31926  12.573  11.744  10.877 -0.1503 -0.3038  0.2134
16796W        W31927   2.851  13.200  11.349 -0.1192  0.0751  0.1745
16797W        W31928  13.434   8.364   5.606  0.3140  0.2902  0.0054
16798W        W31929  10.591   7.453  14.420 -0.0014 -0.0381  0.1147
16799W        W31930   3.050  15.939  13.776 -0.3811 -0.1483  0.1802
16800W        W31931   7.665   1.289   4.734  0.0166 -0.1547 -0.2075
16801W        W31932  14.017   7.544   2.254 -0.1098  0.2051  0.0832
16802W        W31933  14.548  16.631   0.070 -0.0271 -0.3427 -0.0098
16803W        W31934  12.690   7.700   3.448 -0.0061  0.3170  0.3257
16804W        W31935   9.702  17.766  16.275 -0.0149 -0.0037  0.0335
16805W        W31936  13.338   0.159   4.508 -0.1217 -0.0808  0.0888
16806W        W31937  14.586   7.969   4.411 -0.1976 -0.0495  0.0582
16807W        W31938  17.819   1.534  10.348 -0.2319  0.1479  0.1157
16808W        W31939   9.533  12.373  13.358 -0.1210  0.1072  0.2876
16809W        W31940   5.944  10.501  12.844 -0.1400  0.0603  0.2928
16810W        W31941   1.455   6.484   1.318  0.0428  0.2478  0.0352
16811W        W31942   2.904   5.581   3.453  0.1550 -0.3968  0.2231
16812W        W31943   2.222   6.449  14.341 -0.1249  0.1376 -0.2089
16813W        W31944   4.758   9.141   1.418  0.2201 -0.1164 -0.1164
16814W        W31945  16.513   2.812   0.852  0.2081 -0.1114  0.1517
16815W        W31946   3.477  14.427   5.338 -0.0422  0.0255 -0.1528
16816W        W31947   6.586   6.401  11.114  0.0511 -0.3108 -0.0243
16817W        W31948  13.155  11.193   4.069  0.0117 -0.1667  0.0892
16818W        W31949  11.054  15.129   1.857 -0.0234  0.1506 -0.2446
16819W        W31950  17.527  10.152  13.942  0.0323 -0.0545 -0.2376
16820W        W31951   8.896  13.372  14.679 -0.2134  0.2950  0.1263
16821W        W31952   4.390  13.811  11.558 -0.4525 -0.2750 -0.1343
16822W        W31953  14.607   9.135  14.393 -0.0755  0.2890 -0.3969
16823W        W31954  17.213  11.510  14.621  0.1019 -0.0360  0.0440
16824W        W31955  17.770  16.315   5.675 -0.3294  0.2984  0.0375
16825W        W31956  15.789   4.528  13.999 -0.1549  0.1600 -0.2900
16826W        W31957   6.360   1.366   0.404 -0.2751  0.1684  0.2417
16827W        W31958   3.865  15.697  12.827 -0.1980  0.1272  0.0708
16828W        W31959  15.857   6.984   5.485  0.4837 -0.2193  0.0850
16829W        W31960   3.964   1.433  10.540 -0.0541  0.3112 -0.0627
16830W        W31961   5.781   2.074  14.300 -0.0549  0.0880  0.0704
16831W        W31962  11.235   0.452  14.034  0.2771 -0.0965  0.0001
16832W        W31963   3.774  15.230   0.059 -0.0866 -0.1952  0.1658
16833W        W31964   9.778   1.668   0.939  0.2079  0.0903 -0.1103
16834W        W31965   2.474   9.069  11.682  0.1298  0.1989 -0.0933
16835W        W31966  17.230   3.609  15.557  0.0421  0.1677  0.0801
16836W        W31967  15.347  15.768   1.357 -0.1295  0.1900  0.0832
16837W        W31968   2.777  15.572   5.686 -0.1064  0.2210 -0.0550
16838W        W31969   2.952   0.515  13.682  0.0246  0.0625  0.3345
16839W        W31970   9.637   6.167  11.326  0.2350  0.1962 -0.0229
16840W        W31971   0.930  15.065   2.798  0.2404 -0.0086  0.2276
16841W        W31972  17.650   1.055  14.283 -0.2151 -0.1755  0.1886
16842W        W31973   9.111  16.964   4.591  0.1448  0.2497 -0.1196
16843W        W31974  17.919   8.225   6.138 -0.1706 -0.2129  0.0208
16844W        W31975  14.385   5.143  12.152  0.0753 -0.0123  0.0118
16845W        W31976   5.615   0.606   4.738  0.1780  0.1465 -0.2600
16846W        W31977  12.087   4.087   4.717  0.0636  0.1561 -0.1302
16847W        W31978   9.795   4.560   2.364  0.2026 -0.0256 -0.0356
16848W        W31979   2.737   8.052  15.148  0.2979 -0.1055 -0.1526
16849W        W31980   2.279   8.560  11.775 -0.0981  0.0682 -0.2226
16850W        W31981   1.856   4.631   4.537  0.4172  0.1698 -0.2211
16851W        W31982   1.873  16.794   3.702 -0.0357 -0.3965  0.5259
16852W        W31983  12.670   8.456  13.272 -0.3116 -0.2701 -0.0455
16853W        W31984  13.994   4.980  14.779  0.0788  0.2803  0.0660
16854W        W31985   4.156   2.594  13.726 -0.2171 -0.1664 -0.1313
16855W        W31986  10.443  16.081  13.081 -0.0710 -0.0602 -0.2168
16856W        W31987   0.886  11.011   0.179 -0.1022  0.3708 -0.1459
16857W        W31988  16.343  16.520   5.959  0.1864 -0.3775  0.2907
16858W        W31989  16.464   0.246  11.204  0.0738 -0.1232 -0.0185
16859W        W31990  14.701  17.910  13.024 -0.1164  0.0417 -0.0546
16860W        W31991   7.214   8.689  15.707  0.0865 -0.2398 -0.1732
16861W        W31992   3.535   4.972  15.481 -0.2283 -0.0784  0.2208
16862W        W31993   2.204  15.017  16.011  0.1663  0.0017  0.2432
16863W        W31994   0.790   9.968  10.697  0.1286  0.3632 -0.1663
16864W        W31995   8.713  13.736  11.484  0.4056 -0.1112 -0.1114
16865W        W31996   6.415  16.486   3.408 -0.2188  0.0274 -0.1847
16866W        W31997  16.909  15.293  14.671 -0.0499 -0.0495 -0.1012
16867W        W31998  16.598  16.699  16.227  0.3609  0.1758 -0.0299
16868W        W31999   9.642  10.335   4.061  0.0965 -0.0361  0.0018
16869W        W32000   6.007  11.906  11.039  0.3719  0.0185  0.0368
16870W        W32001   4.972  17.152  12.424  0.0659 -0.1529  0.0377
16871W        W32002   3.227   2.098   0.115 -0.1444 -0.1662 -0.1129
16872W        W32003  10.875  11.531  13.139  0.3222  0.2485 -0.0038
16873W        W32004   9.532   8.242   5.029  0.1291  0.0157 -0.0556
16874W        W32005   9.538   6.061  15.794 -0.1459 -0.2216  0.2564
16875W        W32006   8.426   4.968  11.586 -0.0445  0.0374  0.1317
16876W        W32007  13.351  14.595   0.407 -0.0101  0.3775 -0.0189
16877W        W32008  15.017  13.329  15.799  0.0579  0.0569  0.0574
16878W        W32009  15.166  12.775   2.304 -0.1309 -0.1965 -0.1187
16879W        W32010  11.432   4.491   3.871  0.1576 -0.1038 -0.1437
16880W        W32011   6.420   8.848   3.967 -0.0806 -0.5216 -0.0409
16881W        W32012   6.549   1.839   5.597  0.2454  0.0575 -0.0474
16882W        W32013  11.235  14.050  15.416 -0.0501  0.1926 -0.0415
16883W        W32014  16.954  15.183   3.742 -0.0142 -0.3825 -0.1680
16884W        W32015   6.099  13.554  11.232  0.0609 -0.2271 -0.1051
16885W        W32016   7.484   7.632  12.840  0.2167 -0.0068 -0.0720
16886W        W32017   6.655   6.173  13.682 -0.1239  0.1385 -0.0816
16887W        W32018   1.931  10.946   1.776 -0.2001 -0.1485  0.0548
16888W        W32019   2.408   2.491   1.474  0.1271  0.2118 -0.1086
16889W        W32020   2.029  14.383   0.298 -0.2126 -0.4181  0.1288
16890W        W32021   3.215  10.863   4.972  0.2495 -0.1200  0.1347
16891W        W32022  17.595   0.214  13.171 -0.1412 -0.0394  0.1427
16892W        W32023  15.259   7.799  13.278  0.1650  0.0741  0.0114
16893W        W32024  15.178   1.144  11.512 -0.0226  0.0867 -0.0367
16894W        W32025  16.517   9.512   3.186  0.1529  0.1176  0.0662
16895W        W32026   4.590   0.111   0.390 -0.2254 -0.3993  0.0502
16896W        W32027  17.054   3.091  11.398 -0.0121 -0.1502 -0.0027
16897W        W32028   7.677  16.991   4.914  0.0369  0.0329 -0.2518
16898W        W32029   5.533  17.464   6.090 -0.2308 -0.0934  0.1307
16899W        W32030  10.034   8.033   1.985  0.0040 -0.1226 -0.0920
16900W        W32031   2.008  10.303  11.035 -0.2859  0.1192 -0.0016
16901W        W32032  12.934  15.681   1.143 -0.0504  0.0815  0.2616
16902W        W32033  15.981  16.865   4.829 -0.0913 -0.0737 -0.1136
16903W        W32034  12.011   0.408  12.187 -0.0307  0.0013  0.0247
16904W        W32035   5.212   3.944   2.359  0.2245  0.2770 -0.1001
16905W        W32036  17.594   0.097  12.526 -0.0468  0.2211 -0.1439
16906W        W32037   0.306  12.577   1.435  0.2237  0.0838  0.1002
16907W        W32038  10.800   6.057  12.374  0.0404 -0.0018  0.1184
16908W        W32039   5.428  16.002  12.702  0.0714  0.2717 -0.2962
16909W        W32040  13.222   8.600   2.830 -0.3335 -0.0063 -0.0097
16910W        W32041  12.444  17.192  11.274 -0.3194  0.0930  0.0832
16911W        W32042  16.807  17.758  12.883 -0.0721  0.1511 -0.0494
16912W        W32043  16.830  15.051  11.049  0.1716  0.3692  0.2417
16913W        W32044  11.751   9.637   3.207 -0.3993 -0.2836 -0.0111
16914W        W32045   2.591  15.220  11.722  0.2120 -0.0960  0.1333
16915W        W32046   2.348   3.461  12.036  0.0610 -0.0875 -0.1541
16916W        W32047  13.575   3.934  16.100  0.2668  0.0764 -0.0124
16917W        W32048   5.553  15.459   2.989  0.0598 -0.3086  0.2237
16918W        W32049   4.949  10.175   5.036  0.3492  0.1505 -0.2464
16919W        W32050  13.066  10.683  16.104 -0.3613 -0.2446  0.0914
16920W        W32051   7.235   1.477   2.802 -0.1390 -0.2412  0.0797
16921W        W32052   5.175  17.795  10.813  0.2210 -0.1168  0.1480
16922W        W32053   1.341   3.306   0.618 -0.3860  0.4829  0.0975
16923W        W32054  11.853  12.949   2.807  0.1666 -0.0378 -0.1130
16924W        W32055   9.175   1.131  13.416 -0.0494 -0.2190 -0.0275
16925W        W32056   4.662  13.570   3.002  0.0897 -0.0993 -0.0688
16926W        W32057   0.312   4.026  12.837  0.3298 -0.2803  0.1051
16927W        W32058   8.315  14.298   5.672  0.2449  0.1394 -0.1462
16928W        W32059  14.561   7.408  10.859  0.1985  0.0023 -0.0153
16929W        W32060   1.329  16.210   2.131 -0.0583  0.2949  0.2927
16930W        W32061   9.778   7.766   5.164  0.1592  0.1881 -0.1561
16931W        W32062   6.153  11.717  11.521  0.0930  0.0195 -0.1564
16932W        W32063   9.913  10.752  14.912 -0.0950 -0.0060 -0.2072
16933W        W32064   5.833  16.759   0.562  0.2185  0.0645  0.0892
16934W        W32065  12.316   8.927  11.446  0.0712  0.0313 -0.0869
16935W        W32066  12.117  17.465  14.069  0.0918  0.1570 -0.3355
16936W        W32067   4.484  10.979  12.099 -0.0947 -0.1465 -0.0545
16937W        W32068  15.594   5.235   0.106  0.1179  0.0937  0.1143
16938W        W32069   5.657   2.813   2.593  0.1804  0.0285 -0.0449
16939W        W32070   0.173  12.503  12.768  0.1319  0.1499  0.0093
16940W        W32071  17.210   7.604  14.101 -0.1888 -0.0127 -0.1312
16941W        W32072   5.686   7.479  15.433  0.2091  0.0059 -0.2238
16942W        W32073  12.184   2.760  13.385 -0.1208 -0.1004  0.1661
16943W        W32074   9.421  15.732  14.698 -0.0509  0.1300 -0.2318
16944W        W32075   6.956   9.677   5.246 -0.1969  0.3926 -0.1095
16945W        W32076  13.614   9.675  12.420 -0.2073 -0.0034  0.1577
16946W        W32077  17.962   5.764   1.288  0.0771  0.0187  0.0098
16947W        W32078   0.799  17.406  12.677 -0.0373  0.1338  0.0816
16948W        W32079   1.267   7.107  15.508  0.1404  0.1076 -0.2747
16949W        W32080   9.451   9.564   0.004  0.0161  0.0986  0.2358
16950W        W32081   8.585  15.931  11.414 -0.0911  0.1478 -0.2346
16951W        W32082   7.956  16.573   5.372 -0.2139 -0.1953  0.1066
16952W        W32083   0.113   8.528  11.718  0.1370 -0.1349 -0.0778
16953W        W32084   9.970   9.775   1.502 -0.0996 -0.1348 -0.0092
16954W        W32085   8.873  10.580  13.030  0.0847  0.1897  0.0025
16955W        W32086   8.422   7.356  11.432  0.0873 -0.1370  0.0840
16956W        W32087   1.115  17.029  16.126 -0.0387  0.0271 -0.1004
16957W        W32088  10.508  16.289   0.300 -0.3193 -0.0364 -0.0207
16958W        W32089   1.951  17.702  16.060  0.0589 -0.3131 -0.4009
16959W        W32090   9.908  12.545   0.561 -0.0947  0.0482  0.0712
16960W        W32091   3.323  17.256  11.152  0.1971 -0.2910 -0.3104
16961W        W32092   4.539  12.388  12.730  0.0916  0.1599  0.2441
16962W        W32093   1.950   5.077  12.680 -0.3600 -0.0159 -0.0859
16963W        W32094   5.880  11.437  15.788 -0.2966 -0.1488 -0.1923
16964W        W32095  11.902  10.599  14.759 -0.2167 -0.2121 -0.0760
16965W        W32096   2.614   9.398   0.795  0.0874 -0.1452  0.1637
16966W        W32097  11.182  13.337   5.575 -0.0511  0.1687 -0.1297
16967W        W32098  15.286  16.394   2.561  0.4774 -0.0952  0.0464
16968W        W32099  11.956   1.424   4.910  0.0871 -0.2645 -0.0227
16969W        W32100  13.879  11.610   3.861 -0.0226  0.1627  0.4952
16970W        W32101   8.941   5.148   0.875 -0.0353 -0.0912 -0.1918
16971W        W32102   9.214  17.676  16.315  0.1841 -0.1311  0.2473
16972W        W32103   8.233  10.379   1.837  0.4279 -0.0548 -0.2558
16973W        W32104   1.526   8.077   2.119  0.3053 -0.0211  0.0144
16974W        W32105   9.772  11.259   5.109 -0.0776 -0.1081  0.2518
16975W        W32106   3.823  11.079   1.543  0.1413  0.3219  0.2353
16976W        W32107  13.530  10.976   2.239  0.1250 -0.2508  0.0671
16977W        W32108   3.579  17.735  15.669  0.1724  0.1075  0.2344
16978W        W32109   7.029   0.745  11.353 -0.1743 -0.0992  0.1210
16979W        W32110  14.516   2.612   5.508 -0.0233  0.2986 -0.1418
16980W        W32111   2.808   5.693   0.057 -0.1780  0.2942 -0.1337
16981W        W32112   1.354   7.822  14.256  0.1612  0.0482  0.0873
16982W        W32113  12.255  17.690  16.022  0.2534 -0.0039 -0.0308
16983W        W32114   9.624  14.422   2.538 -0.2148 -0.0231  0.4093
16984W        W32115  15.245  14.507  11.418  0.3626  0.1632  0.0860
16985W        W32116   3.530   0.101  11.241  0.1023  0.0993  0.1152
16986W        W32117   5.780   8.231  11.052  0.2041 -0.2258 -0.1061
16987W        W32118   7.418   7.147  13.974 -0.0167 -0.0990  0.1915
16988W        W32119   1.795   3.440   4.787 -0.0312  0.0206 -0.0876
16989W        W32120  16.519  14.763  11.292 -0.5952 -0.2587  0.1136
16990W        W32121  16.053   4.066  14.584  0.0139 -0.0860 -0.2446
16991W        W32122   5.378  12.395  15.394 -0.0453 -0.1255  0.0989
16992W        W32123   4.774  12.098   3.129 -0.0902  0.0125  0.1661
16993W        W32124  12.712   3.264  11.452 -0.0305  0.0570  0.1294
16994W        W32125   9.179   5.224   2.006 -0.1525 -0.1370 -0.0408
16995W        W32126  11.242  13.132  13.354  0.4455 -0.0190  0.2312
16996W        W32127  16.928  11.342  15.126 -0.1529 -0.1124 -0.0212
16997W        W32128  15.508   8.111  14.321 -0.1271  0.2411 -0.1719
16998W        W32129  10.658  13.432  14.054  0.0152  0.1971  0.0784
16999W        W32130  14.542   1.521   4.732 -0.1558  0.1198 -0.1220
17000W        W32131  14.121   6.434   5.123  0.1578  0.0870 -0.1713
17001W        W32132   5.434   9.448  11.958 -0.0982 -0.1031 -0.0761
17002W        W32133   6.681   9.874   1.762  0.1222 -0.2081  0.1098
17003W        W32134  10.005  10.890   0.607  0.0331  0.1699 -0.2190
17004W        W32135  12.059   1.370  15.391  0.1511 -0.0915  0.0572
17005W        W32136  13.844   4.883   2.306 -0.3176  0.0255  0.0761
17006W        W32137   2.949  18.042  12.508 -0.0345 -0.1193 -0.1187
17007W        W32138  15.589  12.399  14.814 -0.1177 -0.0101  0.0383
17008W        W32139  15.971   8.736   3.448 -0.2020 -0.1753 -0.0706
17009W        W32140  17.191   9.043   1.285  0.1648  0.3794 -0.0721
17010W        W32141  16.798   5.409   4.585 -0.0105 -0.2719  0.0115
17011W        W32142  11.995   0.807  10.195  0.0825 -0.1219 -0.1530
17012W        W32143  10.000   1.208  13.073 -0.1699 -0.2133  0.0867
17013W        W32144  12.325   6.273   3.785 -0.0400  0.1471 -0.2247
17014W        W32145   7.011  17.042   0.115 -0.0944 -0.1423  0.2225
17015W        W32146   4.165  10.685  10.822 -0.1006 -0.0550 -0.1837
17016W        W32147  15.693  10.539   1.087  0.0260  0.1609  0.1394
17017W        W32148  11.834  16.541   2.530 -0.0501  0.1479 -0.2239
17018W        W32149  17.913  17.772   0.146  0.2109 -0.3784  0.1417
17019W        W32150   4.734   7.662   0.716 -0.2194 -0.0446  0.0581
17020W        W32151  11.880   4.641  15.531  0.0295 -0.0547 -0.0916
17021W        W32152   2.606  11.776   0.057 -0.1754  0.3463  0.0572
17022W        W32153   1.162   4.862  14.241  0.2349 -0.1268  0.1820
17023W        W32154   7.883  10.414  15.613  0.1301  0.0813  0.2506
17024W        W32155   9.245   5.393   0.561  0.2513  0.2586 -0.3010
17025W        W32156  13.319  12.204  12.100  0.0693  0.3272  0.1024
17026W        W32157  10.410   3.234  14.676 -0.2487 -0.1137  0.0216
17027W        W32158  17.196  16.534  12.410 -0.5638 -0.2363  0.0116
17028W        W32159  15.930   3.982  15.882 -0.0569  0.0090  0.3055
17029W        W32160   9.227   7.726  11.136  0.0089 -0.2566 -0.1236
17030W        W32161  12.870  15.224  14.578  0.0613  0.0641 -0.1160
17031W        W32162  12.807  15.137   1.399 -0.0233  0.2916 -0.1239
17032W        W32163   5.570   7.513  14.557  0.2112  0.0431  0.0729
17033W        W32164   3.640   2.495  13.620 -0.3166 -0.3948 -0.0761
17034W        W32165  10.166  11.479   0.554 -0.0806  0.1184 -0.1637
17035W        W32166   3.738   7.133  11.717  0.1870 -0.0420  0.0956
17036W        W32167   2.047   6.200   0.503 -0.0963  0.1806  0.1550
17037W        W32168   5.762  18.050   2.376 -0.1015  0.0277  0.0685
17038W        W32169   2.924   4.099   2.897 -0.0446  0.1113  0.1874
17039W        W32170  10.830   9.871   5.863 -0.3072 -0.1190 -0.0659
17040W        W32171  13.032  13.870  15.653  0.1614  0.0769 -0.2079
17041W        W32172   7.177  10.423  12.650  0.1169 -0.1085 -0.0162
17042W        W32173  12.047   8.502  15.719  0.0967 -0.1374 -0.3519
17043W        W32174  16.822   3.624   2.850 -0.1020  0.0967  0.0490
17044W        W32175  16.947  16.201   3.411  0.4095 -0.0620 -0.2259
17045W        W32176   3.108   8.480  15.712  0.0059 -0.1725 -0.0199
17046W        W32177   5.352   4.226  14.690  0.1614  0.0180  0.1101
17047W        W32178  13.488  10.923  13.986 -0.0137 -0.1647  0.0372
17048W        W32179  10.555   2.242   4.583  0.3006 -0.3542  0.3660
17049W        W32180  14.869  17.048  12.084  0.0163  0.2743  0.2724
17050W        W32181   5.914   5.626  12.168 -0.0600  0.1001 -0.1730
17051W        W32182   0.330  11.088  13.379 -0.1797  0.0289 -0.1285
17052W        W32183   3.220  14.297   3.402  0.1653 -0.1107 -0.0826
17053W        W32184   8.438   4.981  15.694 -0.0569 -0.0327  0.2048
17054W        W32185   2.294   0.148  11.911  0.1981  0.1289 -0.3081
17055W        W32186   2.870  14.413   1.021  0.2438 -0.0869  0.0481
17056W        W32187   5.178   0.096  12.913  0.0792 -0.4009 -0.0439
17057W        W32188  10.135   7.121  15.089 -0.1254 -0.0721  0.0381
17058W        W32189  15.607   4.729   3.675  0.0882 -0.2376 -0.2636
17059W        W32190  18.057   6.745   0.336  0.0055 -0.1794  0.0891
17060W        W32191   2.776   1.701   6.286 -0.0664 -0.1349  0.0839
17061W        W32192  17.068  11.744  11.703  0.0519  0.1417  0.0259
17062W        W32193   4.231   9.460   3.312 -0.0469 -0.1978 -0.1144
17063W        W32194  17.450  15.332   0.277  0.0245 -0.1579 -0.1490
17064W        W32195  17.536   3.376   4.239 -0.1402 -0.2417  0.0894
17065W        W32196   1.678   2.434   1.529  0.1880 -0.1675 -0.1325
17066W        W32197   5.518  12.046  13.650  0.0527  0.0260  0.0993
17067W        W32198   2.665  14.712  13.625 -0.0170 -0.0534  0.1365
17068W        W32199   2.694  12.590   5.018  0.1230 -0.0636  0.1766
17069W        W32200   0.306   7.494   1.561 -0.0989 -0.1151 -0.2664
17070W        W32201   3.242  11.224   4.600 -0.0692  0.3806  0.3307
17071W        W32202  16.921   1.372  12.270  0.0092  0.1273 -0.0627
17072W        W32203   2.241   7.905  12.956 -0.2069 -0.0388 -0.1528
17073W        W32204   3.949  14.121   9.816  0.1671 -0.1455 -0.1593
17074W        W32205  10.904   0.956  13.287 -0.0228  0.1422 -0.0273
17075W        W32206  11.411  12.057   3.184 -0.0804  0.0208  0.0336
17076W        W32207  11.943  11.111   5.442  0.1161  0.0174  0.2251
17077W        W32208  10.236  15.878  13.473  0.1010  0.5436 -0.1557
17078W        W32209   4.404  14.487   2.783 -0.0801  0.1351  0.3254
17079W        W32210  18.090   1.964  10.303 -0.2482 -0.3464 -0.1129
17080W        W32211   7.441   7.183  12.089 -0.1571  0.0633  0.2472
17081W        W32212   7.730   5.667   5.057  0.0567  0.0409  0.5013
17082W        W32213   3.790   2.356   1.309 -0.1980  0.4001 -0.0394
17083W        W32214  15.681  11.223   1.776 -0.3766  0.1028  0.0062
17084W        W32215   0.947   1.046   0.756  0.2842 -0.0958  0.0615
17085W        W32216   3.857   4.514  13.293 -0.1471  0.0528 -0.2386
17086W        W32217  15.493  15.031  14.439  0.4429  0.0491 -0.0530
17087W        W32218   5.527   8.385   3.645  0.2500 -0.2507  0.0880
17088W        W32219  13.681  10.625   2.607 -0.0861 -0.1448 -0.1094
17089W        W32220  17.990   3.743   2.883  0.0703  0.0137 -0.0905
17090W        W32221   5.236  15.153  15.464 -0.2099  0.0317 -0.1984
17091W        W32222   8.612  17.344  15.617 -0.0326  0.0546  0.0133
17092W        W32223   5.370   7.342   1.550  0.0649  0.2502  0.1434
17093W        W32224  10.371   5.269   0.588  0.1081  0.2018 -0.1956
17094W        W32225   4.916  17.876   3.747 -0.0172 -0.0584 -0.0906
17095W        W32226   3.234   1.285  11.286 -0.2369  0.1164 -0.2512
17096W        W32227   2.987   0.636   3.190 -0.0916  0.3216  0.0500
17097W        W32228   5.620  12.944  14.784 -0.2594 -0.0692 -0.0458
17098W        W32229   9.439  12.451   5.430 -0.2499  0.2365  0.1853
17099W        W32230   3.977   8.798  11.250  0.1028 -0.0201  0.1515
17100W        W32231   8.393  12.892   1.336  0.4027  0.0946  0.1398
17101W        W32232  16.169   2.559   1.181 -0.1982 -0.2574  0.0316
17102W        W32233   2.225   8.465   0.894  0.1197  0.0260 -0.0301
17103W        W32234   7.690  15.496   3.050 -0.1754  0.0461 -0.0607
17104W        W32235   2.689  14.276   4.746 -0.0999  0.1283 -0.0762
17105W        W32236  15.833   3.772  13.562 -0.2441  0.1640 -0.0258
17106W        W32237  11.475  11.207   3.340 -0.0761 -0.0882 -0.0167
17107W        W32238   2.726   2.645  12.592  0.0923  0.2637 -0.1116
17108W        W32239   9.094  12.842   0.965 -0.0374  0.0824  0.0462
17109W        W32240  13.397   3.371  15.299  0.1587 -0.2650  0.1949
17110W        W32241   6.574   0.453   0.311  0.1398 -0.1100  0.1341
17111W        W32242   2.012  15.562  12.415  0.1408  0.2378 -0.1902
17112W        W32243   6.124  14.049  14.696  0.0726 -0.1917  0.1313
17113W        W32244  15.201   6.206   3.374 -0.0486  0.0749  0.2792
17114W        W32245  10.450   6.318  14.565 -0.2563 -0.0303 -0.2286
17115W        W32246   1.054   8.328  11.936  0.1072  0.0251 -0.1741
17116W        W32247  12.269  13.123   0.214  0.1788 -0.0367 -0.0318
17117W        W32248  17.708   5.098   3.305  0.2993 -0.0447 -0.3386
17118W        W32249  11.766   8.471  15.291  0.3044  0.0917 -0.2898
17119W        W32250  17.916   6.356   1.953 -0.3208 -0.0556 -0.1494
17120W        W32251   6.015  15.305  13.581  0.0785 -0.1402 -0.1666
17121W        W32252  11.809   8.654   0.884 -0.2790  0.4134  0.0807
17122W        W32253  15.113   2.923  15.970 -0.0806 -0.1384 -0.2246
17123W        W32254   3.400  16.840  14.249 -0.1962  0.1388 -0.0456
17124W        W32255  18.096  10.181   3.613  0.0979 -0.0807  0.0498
17125W        W32256   8.279  13.113  11.293  0.1277  0.1394 -0.0326
17126W        W32257   8.815  12.308  16.293  0.1566  0.0732  0.2426
17127W        W32258   6.063  13.743   4.821 -0.0214 -0.0777  0.1004
17128W        W32259   1.921   4.131  11.008 -0.1085  0.0472 -0.0570
17129W        W32260  14.468  12.563   1.230 -0.1680  0.0581  0.0440
17130W        W32261   9.966   9.599  15.783 -0.0939 -0.0690  0.0570
17131W        W32262   5.019   4.167   0.692  0.2844  0.1708  0.1658
17132W        W32263   5.830   5.558  16.252  0.1123  0.0544 -0.0393
17133W        W32264   5.169   2.137  13.825  0.1588  0.1364  0.2112
17134W        W32265   0.426   0.742   2.765  0.2510 -0.0654  0.1422
17135W        W32266  10.467  13.914  12.928  0.0709 -0.0006 -0.0236
17136W        W32267   6.143   5.532   4.784 -0.0889  0.1158  0.0538
17137W        W32268   4.550  15.432   4.096 -0.2324 -0.0595 -0.0093
17138W        W32269   3.325   7.067  13.440 -0.4192 -0.0178  0.0380
17139W        W32270  14.938   1.237  15.498 -0.2568  0.0246  0.1051
17140W        W32271   9.331   7.124  11.639 -0.1045  0.1998 -0.0376
17141W        W32272  13.421  13.248   1.092  0.2528  0.3534 -0.1192
17142W        W32273  14.456   2.247  14.540 -0.0088 -0.1606 -0.2539
17143W        W32274   4.158   8.097  12.541  0.1168  0.1473 -0.1612
17144W        W32275   3.587   1.790   5.677 -0.2843 -0.1744 -0.1033
17145W        W32276  10.330  10.231  10.493  0.2766  0.0076  0.0563
17146W        W32277  17.955  13.713   2.764  0.2734  0.1197  0.0319
17147W        W32278   5.179  11.373  10.989 -0.0776  0.0417  0.0644
17148W        W32279  16.775  16.954   1.478 -0.0138  0.1540 -0.2825
17149W        W32280   0.430  15.265  11.609 -0.1304  0.0577 -0.3675
17150W        W32281   9.163   5.107  13.255 -0.1429  0.3900  0.1577
17151W        W32282   9.494   3.285   0.761 -0.1031  0.3467  0.0168
17152W        W32283  13.314  15.764   1.906 -0.1155  0.3049 -0.1601
17153W        W32284   3.662  15.784   3.982 -0.1311 -0.0990 -0.0024
17154W        W32285  14.532  16.618   2.745 -0.0801  0.0640  0.0207
17155W        W32286   4.135   3.985   1.714  0.0498 -0.1324 -0.0515
17156W        W32287   4.546   7.751  14.400  0.0416  0.1302 -0.2696
17157W        W32288  14.278   8.683   1.398  0.0069 -0.5309  0.1585
17158W        W32289   6.881  12.704  14.955  0.1730  0.0106 -0.0055
17159W        W32290   8.962   5.819   3.624 -0.1423 -0.3106 -0.0031
17160W        W32291  14.860  14.484  12.244 -0.4297  0.0507  0.0371
17161W        W32292   3.704   5.078  15.882  0.0057 -0.0449  0.0966
17162W        W32293   0.741  14.099   4.159  0.0319 -0.2502 -0.0449
17163W        W32294  13.685  10.631   4.418  0.2274  0.1994  0.0378
17164W        W32295  15.096   0.073  14.904 -0.0577  0.0623 -0.0325
17165W        W32296   7.424   3.322  10.808  0.2247 -0.2148  0.2052
17166W        W32297  14.517  11.181   4.575 -0.1131  0.1224 -0.2660
17167W        W32298   2.328  17.651  13.313  0.0190  0.1697 -0.1354
17168W        W32299   9.673  11.030  11.173 -0.3146 -0.0088  0.0176
17169W        W32300  13.691  15.525  12.323  0.0274 -0.0086  0.0693
17170W        W32301  14.230  13.025  12.871  0.0961 -0.2490  0.2116
17171W        W32302   2.369   8.098   4.132 -0.0949 -0.0272 -0.0183
17172W        W32303  13.174   9.293  16.182  0.0944 -0.2395 -0.2754
17173W        W32304  14.052   7.673   5.202  0.1265 -0.0649 -0.1883
17174W        W32305  17.240   6.909  12.125  0.0492  0.0719  0.1924
17175W        W32306  17.961  17.292  15.334  0.2594 -0.4042  0.3791
17176W        W32307  15.000   7.205  14.316 -0.0600  0.1068 -0.1029
17177W        W32308  10.647   6.476   1.969  0.1129  0.3139  0.2465
17178W        W32309   8.697   1.016  12.751 -0.1459 -0.4587 -0.0053
17179W        W32310   6.244  13.398   1.376 -0.2649 -0.1207  0.0825
17180W        W32311  17.424  11.781   3.697  0.2212  0.1016  0.2313
17181W        W32312   2.091  15.000   4.258 -0.0069  0.1566 -0.1021
17182W        W32313  16.300   9.658  12.068 -0.0852 -0.4566 -0.1651
17183W        W32314   9.386   7.936  12.231 -0.3242  0.0643  0.1244
17184W        W32315   3.329  13.642   5.547 -0.3100  0.0576 -0.1747
17185W        W32316  10.063   6.135  14.995 -0.0904 -0.0337 -0.1628
17186W        W32317  16.052   7.562   4.209  0.2993 -0.3416 -0.0987
17187W        W32318  17.647  16.968   1.381 -0.2249  0.0669  0.1107
17188W        W32319  15.603   0.067  16.043  0.0729  0.0447  0.0072
17189W        W32320  14.692   7.218   1.523  0.2246 -0.2339 -0.0279
17190W        W32321   7.931  17.808   3.650 -0.0033 -0.0804 -0.0508
17191W        W32322   6.718  13.709  12.503  0.0334 -0.2988  0.0057
17192W        W32323  12.364  15.067  14.646  0.0811 -0.0715 -0.3402
17193W        W32324   7.127   6.258  16.327  0.1261  0.2119  0.0303
17194W        W32325   5.447   1.708   1.489 -0.0221 -0.0296  0.4739
17195W        W32326  17.273  12.495  12.967 -0.1500 -0.1415  0.2358
17196W        W32327   1.057  12.430   3.004 -0.0252 -0.0313 -0.2358
17197W        W32328   6.011   8.028   3.148  0.0715 -0.1533 -0.0783
17198W        W32329   1.567   4.991   1.029  0.1677  0.3767 -0.1812
17199W        W32330  10.707   8.915  14.708 -0.0426  0.0240  0.0793
17200W        W32331  10.722  13.034  13.462 -0.2834 -0.1727 -0.3110
17201W        W32332   0.961   9.539   0.012  0.0677 -0.0883  0.1725
17202W        W32333  16.364  14.427  13.756  0.1719  0.0582 -0.2249
17203W        W32334  12.507  16.776  15.125 -0.0906 -0.0762  0.1416
17204W        W32335  12.205   7.091  15.645 -0.4132 -0.2811  0.3816
17205W        W32336   0.779  17.074   5.256  0.3281 -0.2027 -0.0940
17206W        W32337  10.144  14.128  15.403  0.2979 -0.3149  0.0127
17207W        W32338   8.474   0.176  10.812  0.1833 -0.2204  0.0135
17208W        W32339   5.841   5.164  13.436  0.1504 -0.1491  0.1117
17209W        W32340  11.652   3.602   0.949 -0.1177 -0.0920  0.0457
17210W        W32341   2.871   6.100  16.174  0.0297  0.1659  0.2738
17211W        W32342   7.426   6.697  11.997  0.2581  0.2405 -0.1542
17212W        W32343   5.674  15.773  11.991 -0.2799  0.1583 -0.1029
17213W        W32344  10.929   8.276  15.263 -0.0072  0.0757 -0.0756
17214W        W32345   4.971  16.574   1.021  0.1361  0.0731 -0.0211
17215W        W32346   4.956  10.301   3.105  0.4340 -0.3279 -0.0068
17216W        W32347  17.730  14.828   1.846 -0.3194  0.0046  0.1202
17217W        W32348   9.219  13.055  16.314 -0.2833 -0.2600 -0.2734
17218W        W32349  17.796  13.241  14.067  0.2041  0.0978  0.2118
17219W        W32350  10.198  16.430   2.300  0.1194  0.0555  0.2849
17220W        W32351  10.232   6.099  11.713 -0.1807  0.0090  0.0626
17221W        W32352   4.666  11.368  12.354  0.1489 -0.2170 -0.0557
17222W        W32353   3.353  12.025  10.478 -0.0510  0.1367  0.1466
17223W        W32354   7.090  11.117   3.201  0.0840 -0.2697 -0.0201
17224W        W32355   7.372  16.596   5.427  0.2743  0.3220  0.0211
17225W        W32356   3.439  16.849   3.420 -0.3285 -0.1821  0.0585
17226W        W32357  17.853  15.551  15.018 -0.0500  0.1098  0.4184
17227W        W32358  13.223  12.290  15.490  0.1676 -0.2072  0.0189
17228W        W32359   2.000  13.973   2.426  0.0789 -0.1991  0.3331
17229W        W32360   7.208  10.520   3.939 -0.4401 -0.0527  0.0415
17230W        W32361   4.453   9.815   5.944 -0.1796 -0.3016  0.3310
17231W        W32362  15.368   7.955   3.551 -0.1348  0.1758  0.1586
17232W        W32363  17.576   8.010  11.417  0.0508 -0.2060  0.2051
17233W        W32364   4.701  10.976  12.683  0.1652 -0.0154 -0.3084
17234W        W32365  13.733   5.649  13.104  0.4314 -0.0077 -0.3606
17235W        W32366  14.377  13.955   0.407 -0.1557 -0.1416 -0.1218
17236W        W32367   5.575  11.193   3.397 -0.0448  0.1147  0.1316
17237W        W32368   6.980   0.179   3.229  0.0353  0.0402 -0.1893
17238W        W32369   2.629  16.863  12.071 -0.3539  0.3868 -0.0894
17239W        W32370   8.378   7.304  12.912 -0.1346  0.1048  0.0673
17240W        W32371   0.361   1.503   0.481  0.0678 -0.0820 -0.0388
17241W        W32372   5.528  18.097  13.294 -0.3832 -0.1673  0.1697
17242W        W32373  11.332   4.817   4.202 -0.0700 -0.2243  0.0991
17243W        W32374  15.223  16.355  12.762  0.0713 -0.0730  0.0690
17244W        W32375   9.115   1.474  15.077  0.2722 -0.0361 -0.2792
17245W        W32376  15.526  16.321   2.160  0.0902  0.3481 -0.1173
17246W        W32377  16.389  16.854  12.902  0.2812  0.0467  0.2313
17247W        W32378   6.803  12.171  12.986 -0.2670 -0.1717  0.0338
17248W        W32379  12.016   9.693   2.370  0.1433  0.0411 -0.0150
17249W        W32380   8.884  14.560  12.662 -0.0043  0.4093 -0.1117
17250W        W32381   4.700   6.382   0.350 -0.0575  0.0878  0.2241
17251W        W32382  10.315  14.485  14.456  0.0151  0.3346  0.0689
17252W        W32383   2.052  14.202   1.973  0.0655  0.0014  0.0421
17253W        W32384   9.718  17.413  14.989 -0.0938  0.0256  0.0303
17254W        W32385  17.068  17.905  11.891  0.1318  0.0122 -0.0624
17255W        W32386   8.673   2.860  13.284  0.0399  0.2123 -0.4378
17256W        W32387  13.833  16.971   4.869 -0.3579 -0.1900  0.0495
17257W        W32388  17.819   1.819   2.811  0.1197 -0.0806 -0.1182
17258W        W32389  15.779   5.415  10.676 -0.2781 -0.2374  0.0395
17259W        W32390   1.654   5.196  13.620 -0.1853 -0.1418  0.0108
17260W        W32391   8.987   6.220  10.747 -0.1935 -0.1318  0.1225
17261W        W32392  16.740  14.387  13.292  0.1496  0.0062  0.0116
17262W        W32393   8.922  17.685  14.825  0.2185  0.1091  0.0184
17263W        W32394   1.107   4.014   4.412  0.1931 -0.0689 -0.1980
17264W        W32395  16.285   7.881   6.134 -0.0667  0.1175 -0.2818
17265W        W32396   5.280   1.291   5.868 -0.1886 -0.1880 -0.2893
17266W        W32397   2.636   2.641   3.699 -0.1659 -0.1108  0.1676
17267W        W32398  15.096   8.760   2.144  0.0068  0.0447 -0.2506
17268W        W32399   3.348   9.378  15.831 -0.0321 -0.0653  0.1944
17269W        W32400   7.940  10.002   0.507 -0.0540  0.1295 -0.1264
17270W        W32401   4.130  15.122   2.532  0.3665  0.2089 -0.1580
17271W        W32402   4.225   9.197   4.623  0.0955  0.0683 -0.0826
17272W        W32403   0.719  15.606   1.744 -0.0558 -0.2066  0.4078
17273W        W32404   9.029   6.156  12.150 -0.3388  0.0548  0.0118
17274W        W32405  14.403   2.410  14.061  0.1218  0.0730  0.3082
17275W        W32406  14.302  17.517  16.244 -0.0383  0.0407 -0.1679
17276W        W32407   8.181  16.765  11.370 -0.5135 -0.0399 -0.0016
17277W        W32408   2.692  14.328  11.603 -0.1204  0.1131 -0.3402
17278W        W32409  15.998  16.696  15.092 -0.2250 -0.1575  0.1242
17279W        W32410   8.151   8.037   2.359  0.4030  0.0495  0.0902
17280W        W32411  10.899  12.099   4.473 -0.0398 -0.1299 -0.1764
17281W        W32412   2.665   7.977  16.130  0.2253  0.0579  0.0985
17282W        W32413  15.320  11.738   5.800 -0.0376  0.0683 -0.0366
17283W        W32414  11.376  10.212   5.920  0.0044 -0.0614 -0.1250
17284W        W32415   0.003  16.082  10.966  0.0447  0.1973 -0.1628
17285W        W32416  12.833   0.862  11.949 -0.2027 -0.0448  0.0389
17286W        W32417   6.927   3.186  12.740 -0.1920  0.1836  0.2516
17287W        W32418  16.968   6.141   3.852  0.0927  0.0645  0.1278
17288W        W32419  10.423  16.695   1.840 -0.0242  0.2641 -0.0931
17289W        W32420  10.849   5.254   1.858  0.0951  0.0595 -0.0564
17290W        W32421  17.948   2.920   3.381 -0.1360 -0.1274  0.0501
17291W        W32422  11.353  10.692   5.656 -0.0645 -0.1640 -0.0528
17292W        W32423   7.949  12.538  14.256  0.0513 -0.2272  0.0225
17293W        W32424  14.185   6.683   4.690 -0.2168 -0.3164  0.0358
17294W        W32425   5.291  17.505  11.736  0.0946 -0.0589 -0.0781
17295W        W32426  17.222  13.245  13.634  0.0924  0.0178 -0.2070
17296W        W32427  15.956   1.706  12.428 -0.1772  0.1125  0.1537
17297W        W32428  15.262   2.043   1.416  0.1925 -0.1276  0.1426
17298W        W32429   9.506  14.518  12.997 -0.1373 -0.2294 -0.0734
17299W        W32430   4.077  17.426  12.250 -0.0523 -0.0004 -0.2331
17300W        W32431  14.726  12.970   1.418  0.2743  0.1309  0.2039
17301W        W32432  15.884   5.655   0.939  0.1375 -0.4927 -0.1591
17302W        W32433   2.130   9.255  13.067 -0.0399 -0.1317  0.0751
17303W        W32434   0.457   8.272  11.281 -0.4614 -0.0498 -0.2339
17304W        W32435  16.686   7.898   4.149  0.2667 -0.1277 -0.0793
17305W        W32436  11.873  14.045  13.261 -0.0532 -0.2213 -0.2216
17306W        W32437   2.368  13.486   0.641 -0.6588 -0.4824 -0.0016
17307W        W32438   5.679   2.622   5.036 -0.0040 -0.1257  0.4142
17308W        W32439  16.567   7.900   1.229 -0.0439 -0.2529 -0.1162
17309W        W32440   5.147   6.486   1.180  0.2090  0.2261 -0.0472
17310W        W32441  13.357   7.701  14.943  0.1170 -0.1075  0.0334
17311W        W32442  16.336  13.196   3.839  0.1397 -0.1408  0.0526
17312W        W32443   0.882  13.322  13.408  0.1746 -0.1246 -0.0565
17313W        W32444   3.944   6.265   9.907 -0.3027 -0.1219  0.2353
17314W        W32445   6.497   0.836   4.847 -0.1385  0.0315 -0.1913
17315W        W32446   7.273   7.208   4.949 -0.2614  0.0187  0.2025
17316W        W32447   2.979  15.649  15.642 -0.1218  0.0863  0.0509
17317W        W32448   3.433  17.032   1.879  0.0225  0.1249 -0.2573
17318W        W32449   9.355  12.235  12.140  0.1898  0.2446 -0.1474
17319W        W32450   8.382   2.809  11.468  0.0913 -0.3078 -0.0251
17320W        W32451  12.040  17.049  15.372 -0.1762  0.2112 -0.2593
17321W        W32452  10.619  17.842   4.212  0.2703 -0.2839  0.2799
17322W        W32453   5.150   2.841  10.668 -0.0852 -0.0039  0.1335
17323W        W32454  15.419   4.425   4.615  0.2325 -0.0320 -0.0044
17324W        W32455   6.228  16.456  12.312  0.3099  0.0954  0.1891
17325W        W32456   0.055   7.995   0.039  0.0150  0.2365 -0.1519
17326W        W32457  17.828   6.584   3.781 -0.0445 -0.0595  0.1546
17327W        W32458   0.874   3.480   0.729  0.0256 -0.1079  0.0724
17328W        W32459   8.713   0.530  14.920  0.0123 -0.3252 -0.0512
17329W        W32460   8.103   9.454  14.339  0.1763 -0.1400  0.3242
17330W        W32461  17.145   8.013  11.749 -0.1001  0.2620  0.0173
17331W        W32462   4.023   6.239  13.145 -0.3553 -0.1544  0.0701
17332W        W32463  13.822   9.180  12.209  0.2121 -0.0628  0.0278
17333W        W32464   3.591  10.073   3.188  0.0711  0.2144 -0.0284
17334W        W32465  16.151  15.651   2.510 -0.1828 -0.2254  0.3275
17335W        W32466  17.645  17.840  10.788 -0.0163  0.1052 -0.2190
17336W        W32467  17.175   6.971   2.623  0.4254 -0.0305  0.1101
17337W        W32468  13.827   6.659  14.044 -0.0249  0.3481 -0.1519
17338W        W32469  11.822   8.766  12.203 -0.2993  0.0627  0.3521
17339W        W32470   0.284   4.049   4.757  0.0139 -0.0906  0.2593
17340W        W32471   3.188  16.569   3.056  0.0127  0.2373  0.3384
17341W        W32472   2.924   1.726   3.930  0.2914  0.1659 -0.1128
17342W        W32473   3.125   8.722   3.968  0.0002  0.1062  0.0718
17343W        W32474   7.370  13.213  11.215  0.1003 -0.0693  0.2526
17344W        W32475  12.781   6.679   5.414 -0.1788 -0.0373  0.3359
17345W        W32476  15.384   1.666   5.219  0.3887 -0.2800 -0.1297
17346W        W32477   6.920   5.956  14.992  0.2940 -0.1805  0.1176
17347W        W32478   0.275  13.967  13.934 -0.3036 -0.0047  0.2369
17348W        W32479   9.112   0.279   0.925  0.0158 -0.0527  0.0881
17349W        W32480   0.089   0.500   3.026  0.1376 -0.0805  0.4517
17350W        W32481  16.769   0.116   3.836 -0.1053 -0.0303  0.2334
17351W        W32482   8.720   5.743  12.459 -0.2109 -0.0584 -0.1349
17352W        W32483   2.864   6.954  13.303  0.1678  0.0307  0.0186
17353W        W32484   7.750   6.805   5.066  0.0292  0.0868  0.3202
17354W        W32485   0.050   9.434  14.178 -0.0191 -0.2913  0.0967
17355W        W32486   5.694  10.938   0.718  0.3495  0.2140 -0.2488
17356W        W32487   1.921   7.222   4.136 -0.1305 -0.0562 -0.0452
17357W        W32488  17.793  10.677   2.501  0.1874 -0.3847 -0.0307
17358W        W32489  16.194   6.154  13.730 -0.0702 -0.1448  0.0908
17359W        W32490   1.382  11.179   3.462 -0.1711 -0.1436  0.0384
17360W        W32491  17.740   1.697  12.494  0.2552  0.2480 -0.0172
17361W        W32492   7.068  10.451   0.199 -0.1959 -0.1755  0.1374
17362W        W32493  14.705   1.184  10.656  0.2947 -0.1085  0.3503
17363W        W32494   2.717   4.459   2.473 -0.1672  0.0030  0.0979
17364W        W32495   1.218  10.712  12.413  0.1027 -0.0627 -0.0488
17365W        W32496  16.974  12.022  13.245  0.1593 -0.1546 -0.1620
17366W        W32497  14.018  12.574  16.345  0.0781 -0.1880 -0.1508
17367W        W32498   4.636  12.432   4.492  0.2210 -0.0040  0.0309
17368W        W32499   3.029   6.973  14.572  0.2368 -0.2016 -0.2923
17369W        W32500   8.569  10.650   2.760 -0.0171 -0.1039 -0.0975
17370W        W32501   9.011   0.040   2.009  0.1092 -0.2069 -0.1787
17371W        W32502   7.669  17.990   6.046 -0.0855 -0.2111 -0.1439
17372W        W32503   6.079   4.605  15.088  0.3740 -0.0026 -0.3467
17373W        W32504   9.229   4.821   3.428  0.2435 -0.1156 -0.2761
17374W        W32505   2.769  12.807   5.604  0.1202 -0.1217  0.0808
17375W        W32506  11.877   4.655  12.439 -0.1765  0.1076 -0.0193
17376W        W32507   1.252   7.760   1.781 -0.1430 -0.3285  0.2779
17377W        W32508  11.554  14.607   5.021 -0.0706 -0.1102  0.0941
17378W        W32509   2.106  14.506   4.154  0.0533 -0.0189 -0.0413
17379W        W32510   4.926   8.005   4.464  0.2335  0.1841  0.0700
17380W        W32511   8.729  14.626  13.982  0.2066 -0.2435 -0.0212
17381W        W32512   2.894   5.781   0.721  0.1655  0.1889 -0.2103
17382W        W32513   1.300  12.348   1.650  0.0342  0.0385 -0.1561
17383W        W32514  11.184  15.733  15.855 -0.0390 -0.1596  0.0074
17384W        W32515  14.801   3.327  15.013  0.2559 -0.0256 -0.0827
17385W        W32516   5.659   7.388   0.231  0.1157  0.2220  0.0829
17386W        W32517   1.913  12.189   0.751 -0.0206 -0.1258  0.1401
17387W        W32518   1.735   5.832   4.101 -0.1344  0.1176 -0.0707
17388W        W32519  12.032  12.513  13.839  0.0567 -0.4539 -0.1418
17389W        W32520   4.532  10.570   0.034  0.3203 -0.0322 -0.3958
17390W        W32521   6.946  14.518   3.279  0.0786 -0.3735  0.0444
17391W        W32522  15.900  10.516  12.335  0.2136 -0.4492  0.0790
17392W        W32523   8.255   5.183   0.161 -0.3046 -0.0607  0.2094
17393W        W32524   5.386  14.531  11.774  0.0695 -0.0677  0.0672
17394W        W32525   0.011  13.475   0.314 -0.5050  0.0552 -0.0782
17395W        W32526   7.606   8.987   3.306 -0.0920 -0.0125 -0.0118
17396W        W32527  16.759   0.512   2.984  0.1198 -0.0495 -0.4700
17397W        W32528   2.961   2.931  15.073  0.0368  0.0279  0.0481
17398W        W32529  10.910   4.428   1.881  0.2070 -0.2454  0.2737
17399W        W32530   0.321  15.279   2.007 -0.0112 -0.1252 -0.3364
17400W        W32531   2.216   2.256   3.542  0.2623 -0.2271  0.0721
17401W        W32532   8.861  11.523   2.376  0.0234  0.0736  0.1699
17402W        W32533  13.785  12.491  12.255 -0.2352  0.2664  0.0060
17403W        W32534  15.544   0.307   4.152 -0.0959  0.2895 -0.2705
17404W        W32535  16.775   3.192  10.366 -0.1357 -0.0316  0.1283
17405W        W32536   5.123  12.164  15.011  0.0608  0.1758  0.3799
17406W        W32537  13.800   3.499  11.530 -0.1082 -0.0155  0.1085
17407W        W32538   6.724   8.525  16.381 -0.1495  0.4328  0.1328
17408W        W32539  17.230   4.962   4.006  0.1675 -0.2820  0.1840
17409W        W32540  13.853  15.614   1.117 -0.1950  0.1484 -0.0169
17410W        W32541  15.280   8.329  11.039  0.2101  0.2694  0.0756
17411W        W32542  18.019  11.330   4.151 -0.1325  0.0503 -0.0010
17412W        W32543  14.104  17.407   0.403  0.1235  0.2166 -0.1427
17413W        W32544  16.062  17.241  12.955  0.3390  0.2713  0.0879
17414W        W32545  12.857   4.346  16.122  0.2151 -0.1261 -0.1919
17415W        W32546  12.783   4.715  15.765  0.1233  0.0176 -0.0044
17416W        W32547   8.441   0.068   0.147 -0.0404 -0.0599 -0.0232
17417W        W32548  13.090   0.323   1.210 -0.1829  0.0568  0.1429
17418W        W32549  10.864  10.252  12.955 -0.1062 -0.1036 -0.0293
17419W        W32550   7.228   2.331  14.396 -0.2846 -0.0889 -0.0411
17420W        W32551   0.460  17.629   1.339 -0.1957 -0.1339 -0.1121
17421W        W32552   1.344  14.447  12.582 -0.0469  0.1100 -0.0414
17422W        W32553  15.471   4.912  15.440 -0.2777 -0.0014 -0.1200
17423W        W32554   8.547  16.820   1.871  0.2457  0.0137 -0.1421
17424W        W32555  18.074   6.506   2.443  0.0295  0.1711  0.1097
17425W        W32556  17.024   3.186   6.514  0.2472  0.0946 -0.1061
17426W        W32557  17.967   5.222  15.366  0.0197 -0.0417 -0.0794
17427W        W32558  16.358  10.619  12.214 -0.1393  0.1119  0.3575
17428W        W32559   5.552   1.391  11.491  0.0049 -0.3435 -0.0428
17429W        W32560   8.852   1.951   0.438 -0.0942  0.1965  0.0935
17430W        W32561   2.886  15.436  16.143  0.1270  0.2335 -0.1945
17431W        W32562   4.537   2.907  13.702  0.3144 -0.1575  0.3485
17432W        W32563   6.815  17.461  14.165  0.1525 -0.1725  0.0856
17433W        W32564  12.086   7.120   2.765 -0.3609 -0.0315 -0.0239
17434W        W32565   5.706   1.194   3.347 -0.1001 -0.4801  0.0665
17435W        W32566  14.149   1.562  12.827 -0.2482 -0.1015 -0.0217
17436W        W32567  12.564   0.216   4.594 -0.0795  0.0999 -0.0161
17437W        W32568  16.709   3.969   2.279 -0.0097  0.0393 -0.0208
17438W        W32569   6.753   9.530  15.597  0.0530 -0.1588  0.2150
17439W        W32570  14.860  16.752   1.939 -0.3083  0.4447 -0.2162
17440W        W32571  14.529   9.489   5.055  0.1011  0.3304 -0.2234
17441W        W32572  16.493  13.635   0.069  0.2166  0.0115  0.1472
17442W        W32573   3.119  12.722   0.999 -0.0929  0.0740 -0.1704
17443W        W32574  10.002  14.560   5.073 -0.1113 -0.0561  0.0506
17444W        W32575  15.324   3.347   2.168 -0.2222 -0.2646 -0.0334
17445W        W32576   9.554   4.164  11.265 -0.0165  0.0980 -0.1038
17446W        W32577   1.278   6.693   0.282 -0.1470 -0.0688 -0.2582
17447W        W32578  16.154  12.270  14.815  0.1306 -0.2024  0.2583
17448W        W32579   3.249   9.239   3.235 -0.0268 -0.3160  0.1381
17449W        W32580   4.651  13.868  13.188 -0.0913  0.0169 -0.0017
17450W        W32581   2.747  15.046  14.469  0.2857 -0.1073 -0.0745
17451W        W32582   3.434   9.163  10.596 -0.1237  0.2274  0.1286
17452W        W32583   8.309   6.548  12.454 -0.3185  0.0752  0.1927
17453W        W32584  10.504   4.823   1.951 -0.0780  0.2643 -0.3545
17454W        W32585   0.279  14.765  14.655 -0.1922  0.0970  0.1398
17455W        W32586  10.629   0.631  15.082 -0.0722 -0.0693  0.0242
17456W        W32587  16.783   3.010  13.179 -0.2806  0.1088  0.1490
17457W        W32588   5.376  14.496   3.983  0.1263  0.1219 -0.0480
17458W        W32589  15.538   0.725   1.823 -0.2668  0.0219  0.2032
17459W        W32590   9.107   4.552   3.018 -0.0497  0.2298  0.0846
17460W        W32591   0.456  17.937  13.502 -0.0120  0.1688 -0.0021
17461W        W32592  14.873   9.313  13.064 -0.2379 -0.0091  0.0429
17462W        W32593   5.355   0.311   5.776 -0.3290  0.2376  0.0279
17463W        W32594  15.274  13.696  16.225  0.1028 -0.0249 -0.0182
17464W        W32595   6.699  15.224  14.212  0.1549 -0.3937 -0.0758
17465W        W32596  10.348  14.451  13.100  0.0109 -0.1408 -0.1604
17466W        W32597   7.359   5.111   2.548  0.0614  0.0496  0.0254
17467W        W32598  15.849   0.850   0.089  0.1595 -0.2042  0.2308
17468W        W32599   3.612  14.414  15.537  0.0297 -0.0390  0.2102
17469W        W32600  13.040  14.999   4.459  0.2338 -0.1968 -0.1045
17470W        W32601   3.062  11.368  13.030  0.1399  0.0619  0.0029
17471W        W32602   4.937  15.094  12.489  0.0113 -0.0603  0.0695
17472W        W32603  17.779   9.714   4.757  0.0886  0.1479  0.0396
17473W        W32604   7.199   1.715   3.326  0.0362  0.3024  0.3790
17474W        W32605   2.207   2.528  15.121  0.0649  0.3608 -0.1221
17475W        W32606   2.544   3.932   4.419  0.2566  0.1830 -0.0275
17476W        W32607   0.261  11.597  12.566  0.0078 -0.0568  0.2145
17477W        W32608   4.466  14.340  15.573 -0.3203 -0.3435 -0.0893
17478W        W32609   1.292  14.934  11.643 -0.0150 -0.2057 -0.0246
17479W        W32610  16.064   7.664  15.980 -0.2750 -0.1269 -0.1057
17480W        W32611   3.742  17.512   1.709 -0.0129 -0.0940  0.0219
17481W        W32612  17.651  16.270   0.680  0.1906  0.0495  0.3500
17482W        W32613  17.701   1.668  14.202 -0.0058  0.1252 -0.0064
17483W        W32614  18.050  14.043  15.573 -0.2292 -0.3318 -0.0377
17484W        W32615  16.682   4.417   0.980  0.2285 -0.0871 -0.3234
17485W        W32616  13.759   5.223  11.706 -0.1107 -0.0685  0.2072
17486W        W32617   0.303  16.003  15.662  0.1174  0.1167  0.0759
17487W        W32618  14.742  10.964  11.571  0.0793 -0.0877 -0.0368
17488W        W32619   5.849  12.105  11.438  0.2274 -0.0978 -0.2090
17489W        W32620  11.418  10.062  11.889 -0.1426 -0.2012 -0.1825
17490W        W32621   4.258   9.166  10.719  0.3407  0.2663 -0.0279
17491W        W32622  17.945   6.286  15.710  0.3061 -0.1269  0.0418
17492W        W32623  11.619  15.572  16.195  0.0506  0.0118  0.1633
17493W        W32624   9.214  12.990  15.382 -0.0325  0.1070  0.0447
17494W        W32625   4.258  11.497  15.351 -0.0473 -0.0659  0.1916
17495W        W32626  16.494   5.989   4.512 -0.1327  0.1053 -0.1790
17496W        W32627   4.034   4.264   4.716 -0.0744 -0.0255 -0.1676
17497W        W32628  11.404   6.310  14.752  0.2607 -0.2498  0.0389
17498W        W32629  13.688  11.402  14.149  0.2285  0.0360 -0.2649
17499W        W32630   3.491   8.539  13.558 -0.1892  0.1409 -0.0116
17500W        W32631   4.401   1.778   4.854  0.0924 -0.1120  0.0009
17501W        W32632  11.207  12.447   0.882 -0.1440 -0.1774  0.0480
17502W        W32633   4.006  14.715  15.538 -0.3908 -0.1124  0.2043
17503W        W32634  11.581   7.955   5.311 -0.0525 -0.0586 -0.3282
17504W        W32635   5.103   3.310  10.912 -0.0205 -0.2814  0.0974
17505W        W32636   4.563   7.561  11.745  0.1593  0.0073  0.0389
17506W        W32637   7.440  12.119  16.012  0.0345 -0.3313  0.0143
17507W        W32638   8.325   1.496   2.917  0.0071 -0.3416  0.0926
17508W        W32639   1.446   2.822  13.502 -0.3100  0.2058  0.2016
17509W        W32640   6.426  17.525  13.122  0.1235  0.0562 -0.2342
17510W        W32641  11.394  12.816  12.933 -0.1058  0.1115 -0.2477
17511W        W32642   2.169   7.781  16.399 -0.3563 -0.0523  0.0473
17512W        W32643   7.751  12.163  16.389 -0.0058  0.0342 -0.2090
17513W        W32644  13.774   3.954   0.656 -0.3417  0.1000 -0.1323
17514W        W32645   0.558  10.459   4.932  0.2339  0.4028  0.1289
17515W        W32646   4.989   9.145  16.364 -0.1833 -0.0654 -0.2512
17516W        W32647   9.534   0.046   0.664  0.1914 -0.0853 -0.0275
17517W        W32648   1.539  16.760  14.139 -0.0537  0.2261  0.3044
17518W        W32649   1.512   2.388   5.176 -0.4405 -0.1571 -0.1074
17519W        W32650  14.209   5.394   3.278 -0.3697 -0.1563  0.2070
17520W        W32651  10.625  17.905   2.402 -0.2179 -0.0094 -0.0376
17521W        W32652   7.084   3.296  16.440 -0.3353 -0.3246 -0.0234
17522W        W32653   7.928  12.040  12.374 -0.0899 -0.1214  0.0685
17523W        W32654   4.284   3.325   4.162  0.0770  0.1113 -0.1034
17524W        W32655   8.799   1.164   0.963  0.1472  0.1187 -0.2832
17525W        W32656   4.654  15.742   0.405  0.3225 -0.4633  0.0890
17526W        W32657   6.591  10.894  15.474 -0.1528 -0.1588 -0.0947
17527W        W32658   0.716   0.090   0.455 -0.2408  0.2041 -0.1471
17528W        W32659  15.099   6.786   2.247 -0.2189  0.3336 -0.3413
17529W        W32660   3.863   2.733  15.693 -0.1126  0.2037 -0.2744
17530W        W32661  15.457   6.741  14.816 -0.0951  0.1272  0.0433
17531W        W32662   5.988   9.711  13.329  0.1504 -0.1113  0.1495
17532W        W32663   4.572  17.232  12.160 -0.0588 -0.1736 -0.1928
17533W        W32664  17.423  15.519  11.516 -0.1479 -0.1183  0.0982
17534W        W32665   9.354  17.560  12.421  0.0720 -0.2078  0.3874
17535W        W32666   8.869   4.166   1.625 -0.0542 -0.3491  0.1097
17536W        W32667  12.373  12.903  14.731  0.0268 -0.1185 -0.2620
17537W        W32668   3.151  16.581  14.622 -0.1328 -0.1033 -0.3213
17538W        W32669   8.009   5.274  15.836 -0.3118 -0.4718 -0.1777
17539W        W32670   0.685   4.240  12.564  0.0317 -0.0248 -0.4157
17540W        W32671  16.228   6.478  14.158 -0.0790 -0.3011 -0.0442
17541W        W32672  11.048  17.782   1.604 -0.3597  0.1669 -0.2284
17542W        W32673  15.309  13.215  15.319 -0.0613 -0.1800 -0.0712
17543W        W32674   9.751  12.873  13.210 -0.0631 -0.0850  0.2297
17544W        W32675   3.394   6.572  15.707 -0.0612 -0.2713 -0.0952
17545W        W32676   6.903  14.663   6.028  0.1888 -0.1968  0.1378
17546W        W32677  14.773  14.512  10.459 -0.1634  0.2518 -0.0111
17547W        W32678   2.890   5.571  15.946 -0.1947 -0.0779 -0.0990
17548W        W32679  16.092   0.408  13.395 -0.3720 -0.1810  0.2124
17549W        W32680   7.945   1.269   6.237  0.0319 -0.0131  0.1658
17550W        W32681   9.213   6.947   2.475 -0.2596 -0.1933 -0.0487
17551W        W32682   7.835   9.665   1.053 -0.1611 -0.0716 -0.0460
17552W        W32683   3.239   2.194   1.917 -0.0424  0.1610  0.0308
17553W        W32684  12.526  14.556  15.049 -0.0724  0.1152 -0.0164
17554W        W32685  12.340   3.383  15.696 -0.2895  0.2817 -0.0103
17555W        W32686   1.888   0.587   0.049 -0.1077  0.4564  0.2606
17556W        W32687  16.020   7.403  13.115 -0.1783 -0.2593  0.0101
17557W        W32688  14.662  17.776  13.942 -0.1593  0.1428  0.0338
17558W        W32689   9.272  15.935   5.532  0.0294  0.0483  0.1544
17559W        W32690   5.183   7.907   5.366 -0.1089 -0.1223  0.1408
17560W        W32691   1.087  15.713  11.947  0.0230  0.1314  0.1394
17561W        W32692  15.720   1.851   2.068 -0.0579  0.4752  0.0317
17562W        W32693  13.233   9.353  15.707 -0.1335 -0.0687 -0.0239
17563W        W32694   6.959   3.923   3.326  0.5451  0.0437 -0.2092
17564W        W32695  16.469   5.002  15.504 -0.1258 -0.3924 -0.1059
17565W        W32696   5.093   5.139   0.680  0.3157 -0.0057 -0.1336
17566W        W32697  12.664  14.519  13.366 -0.1066 -0.0238 -0.0805
17567W        W32698   3.707  16.480  15.536  0.0171  0.0475  0.1218
17568W        W32699  13.037   9.267  13.027  0.2876  0.2758  0.3351
17569W        W32700  16.280  17.994  14.733 -0.3337 -0.1176  0.1243
17570W        W32701   2.703   3.821  12.913 -0.1050 -0.0047 -0.2172
17571W        W32702   3.493   1.416  14.811  0.0645  0.0837 -0.2186
17572W        W32703   6.851  10.811   4.267  0.0036  0.1050 -0.0490
17573W        W32704  14.775  15.713  13.462  0.0288  0.1414 -0.0580
17574W        W32705   5.159   0.856  15.341 -0.3475  0.1296  0.0955
17575W        W32706   8.878   1.402  13.724 -0.1835 -0.0487 -0.4486
17576W        W32707  10.359  17.782  15.004  0.1372 -0.1859  0.0131
17577W        W32708   7.673  11.456  11.710 -0.2405  0.0613 -0.0580
17578W        W32709   2.144  12.416  10.684 -0.0457 -0.0517  0.0319
17579W        W32710  15.839   3.027   2.756  0.0333 -0.0651 -0.1799
17580W        W32711   1.991   4.258   0.580  0.0657 -0.0247 -0.3586
17581W        W32712   4.489   0.079   5.571 -0.2229  0.3362  0.1058
17582W        W32713   5.981  16.476  15.606 -0.0767  0.0421  0.2783
17583W        W32714  11.662  15.940   3.953 -0.3008 -0.2513 -0.1436
17584W        W32715  10.876   6.923   5.331  0.3882  0.2218 -0.0369
17585W        W32716   3.795  14.535  15.076  0.3261 -0.2044 -0.0710
17586W        W32717   0.734   9.871  14.809  0.1785  0.0672  0.0341
17587W        W32718   4.059  14.813  11.740  0.1535  0.1031  0.3165
17588W        W32719   7.627   2.427   3.240  0.0395 -0.2527 -0.2232
17589W        W32720  14.550   5.598  15.875  0.1988  0.3637 -0.1843
17590W        W32721   2.084   4.194   1.219 -0.1399  0.2440  0.1131
17591W        W32722  10.502  11.100   3.311  0.0077 -0.0202  0.2688
17592W        W32723  13.493  10.777   3.768  0.1317  0.0159 -0.3510
17593W        W32724   5.459  10.122   3.213 -0.0200 -0.2827  0.0395
17594W        W32725  12.388   3.614  16.152  0.0997 -0.2481  0.3371
17595W        W32726   8.935   6.294   0.837  0.1432  0.0560 -0.2107
17596W        W32727   1.551  15.716  14.608  0.0128  0.1440  0.0085
17597W        W32728   6.104  10.955  13.079 -0.1280 -0.0173  0.1024
17598W        W32729  10.476  14.872  14.785 -0.2088  0.2619  0.1320
17599W        W32730   3.530   9.547  11.535  0.1457  0.1820  0.2037
17600W        W32731   2.519   2.716  13.600 -0.0354 -0.2285 -0.2070
17601W        W32732   5.613   2.230  14.723 -0.0551  0.0898  0.3214
17602W        W32733   4.309  17.798  16.302 -0.1412  0.0451 -0.0386
17603W        W32734   0.713  18.045   0.974 -0.5659 -0.0633  0.0915
17604W        W32735   1.915  10.255  14.847 -0.3078  0.0748 -0.4038
17605W        W32736  12.736  13.805   0.768 -0.0047 -0.2032  0.3077
17606W        W32737  17.651  13.041   2.267  0.1570  0.1090  0.2816
17607W        W32738   9.861   3.195   1.100 -0.2059  0.0697 -0.0365
17608W        W32739  17.004  13.081   4.956 -0.1822  0.0111  0.1410
17609W        W32740   8.819  16.040  15.866 -0.2262  0.3904  0.0255
17610W        W32741   5.903   4.881  11.577  0.0987  0.2547 -0.0335
17611W        W32742   5.623   6.009  14.294  0.3256 -0.2434  0.2137
17612W        W32743  13.309  14.452  10.433 -0.0700 -0.0081 -0.2758
17613W        W32744  11.059   0.383  16.029 -0.5218 -0.1167 -0.2785
17614W        W32745   2.733  16.621   2.308 -0.1311 -0.1881 -0.2681
17615W        W32746  14.893  12.900  14.740 -0.0556 -0.2500 -0.1997
17616W        W32747  12.969  18.100   2.184  0.0101 -0.2590 -0.0172
17617W        W32748   0.366   2.750   3.506 -0.0091 -0.3487 -0.2602
17618W        W32749   5.764   0.574  14.639  0.2219  0.3872  0.0347
17619W        W32750  16.829   5.237  14.020  0.0983 -0.0633 -0.3311
17620W        W32751  16.300   2.353  13.080  0.0679  0.1552 -0.2084
17621W        W32752  10.035  15.829  14.084 -0.0972  0.0832  0.2016
17622W        W32753   8.752   1.725  13.036 -0.1509  0.3383  0.0926
17623W        W32754   3.484  17.723  11.161 -0.0349  0.1755 -0.0042
17624W        W32755  16.298   6.765  11.537  0.1515  0.2720  0.3802
17625W        W32756   4.742  13.000  16.413 -0.2029  0.0136  0.0090
17626W        W32757   0.137  13.639   6.130 -0.1833 -0.3199  0.0405
17627W        W32758   6.655  10.690  16.421  0.2564  0.1514 -0.1521
17628W        W32759   2.240  17.663   4.873  0.1256 -0.0248 -0.2107
17629W        W32760  16.867  13.123   4.176  0.1233  0.1269  0.0467
17630W        W32761   3.716  10.348   9.521 -0.1582 -0.0554 -0.0211
17631W        W32762  17.633   0.394  14.771  0.0143  0.1747 -0.1305
17632W        W32763   8.237   7.994   0.530  0.0387  0.3862  0.0210
17633W        W32764  16.457  16.699  14.874  0.1786  0.0653 -0.2058
17634W        W32765   6.069  17.981  13.071  0.1285  0.1676 -0.3284
17635W        W32766   8.569   8.040   4.177 -0.0101  0.2090  0.0808
17636W        W32767   9.099   9.756   4.312 -0.0864  0.1022 -0.1410
17637W        W32768   6.783   7.381  13.084 -0.0357  0.1490 -0.0649
17638W        W32769   0.709   4.214   1.704  0.0463 -0.2809 -0.1402
17639W        W32770   3.762   7.821  16.057  0.0094  0.0098 -0.2755
17640W        W32771   1.153   8.509   4.523 -0.0994 -0.0245  0.0468
17641W        W32772  13.243   1.013  11.675  0.3844 -0.2098 -0.0969
17642W        W32773   3.538  10.462   0.968  0.0877 -0.1415 -0.2994
17643W        W32774   9.784   3.307  16.266  0.0120  0.4233 -0.0461
17644W        W32775   0.505   9.361  14.676 -0.0439  0.1719  0.1237
17645W        W32776  14.015   2.784  11.824  0.0206 -0.2104  0.3694
17646W        W32777  14.856   6.661  13.978  0.2125 -0.0670 -0.2854
17647W        W32778   6.270  12.467  13.948 -0.3276  0.2414  0.1744
17648W        W32779  17.461   8.108   4.699  0.1067  0.2363  0.0356
17649W        W32780  16.113   5.022   1.982  0.1342  0.2832  0.0297
17650W        W32781   7.334  16.750   1.294 -0.0307 -0.0884  0.4180
17651W        W32782   2.501  15.625   1.793 -0.0344  0.0179 -0.2265
17652W        W32783   1.351   8.426   3.691  0.3200  0.3175  0.1454
17653W        W32784   1.759  10.162   4.938  0.3514 -0.1576  0.2197
17654W        W32785   0.255   3.044   1.564  0.0162 -0.0805 -0.1079
17655W        W32786   5.454  10.199  15.586  0.2600  0.3098  0.0425
17656W        W32787   2.669   5.062   0.113  0.1120  0.1590  0.4481
17657W        W32788   7.100   6.216  14.163 -0.1062 -0.1124  0.1583
17658W        W32789  13.849   7.355   1.753 -0.1485 -0.0528  0.3419
17659W        W32790   6.138   4.419  11.682  0.3850  0.0612  0.0479
17660W        W32791  11.934   0.035   2.824 -0.1212  0.4472 -0.1008
17661W        W32792  10.518  13.657  13.673 -0.0204 -0.1393 -0.3449
17662W        W32793  13.095   8.457  12.145  0.1021  0.3005  0.3303
17663W        W32794   2.140   6.148   5.125 -0.4852 -0.2572 -0.0398
17664W        W32795  16.381   6.739  13.231  0.2862  0.0789  0.0353
17665W        W32796   9.432   9.394  11.017  0.0522 -0.1508  0.0238
17666W        W32797  15.584   5.202  11.590 -0.1768 -0.0671 -0.1175
17667W        W32798   7.923   8.168   5.772  0.0214  0.2513  0.1360
17668W        W32799   0.196   5.110   2.504 -0.3610 -0.0379 -0.1377
17669W        W32800  17.246  16.325  15.425  0.0084 -0.0850 -0.0350
17670W        W32801   7.798   9.954  15.462  0.1484  0.0907  0.3756
17671W        W32802   4.899  11.519   2.290 -0.0663 -0.0446 -0.2602
17672W        W32803   5.910  18.023  14.775 -0.3014 -0.2420 -0.0808
17673W        W32804  16.708  15.009  10.340  0.0759  0.3835  0.0484
17674W        W32805   8.133   6.057   5.001  0.1336 -0.3380  0.1218
17675W        W32806  15.626   1.649   1.163  0.1213  0.2022 -0.1354
17676W        W32807  12.056  17.691  12.829 -0.1559  0.1417  0.3482
17677W        W32808  15.163   4.081   5.370 -0.0540  0.1525  0.1224
17678W        W32809   5.975   8.259  12.420  0.0011 -0.0080 -0.0427
17679W        W32810   6.915   1.095   1.285 -0.1519 -0.1338  0.0285
17680W        W32811  15.899   7.641  11.524 -0.1816  0.0442 -0.4637
17681W        W32812  16.701  10.845   2.389  0.0938 -0.2344  0.2587
17682W        W32813  13.081  12.446   1.324  0.0319  0.0684 -0.3551
17683W        W32814  12.700   3.305   1.023 -0.0472  0.5103 -0.2586
17684W        W32815  14.550   4.012   1.386  0.0197 -0.3031  0.1555
17685W        W32816  14.539  12.648  12.205  0.0417 -0.0696  0.0812
17686W        W32817  17.757   3.419  15.416 -0.3542 -0.1478 -0.1781
17687W        W32818  17.867   0.695  15.422  0.1353 -0.3433  0.3700
17688W        W32819   1.578  18.103   3.716 -0.1007  0.3119 -0.0650
17689W        W32820  15.519  13.081  12.094 -0.0719 -0.0358  0.1914
17690W        W32821  18.031  16.857   0.600 -0.3317 -0.1308 -0.0106
17691W        W32822   3.687   2.925  14.408 -0.0891 -0.3009 -0.0501
17692W        W32823   6.874   7.084  14.803 -0.3379 -0.0868 -0.1118
17693W        W32824   9.132  13.816  11.054  0.1656 -0.1827 -0.0721
17694W        W32825   5.476   4.031   0.979 -0.2853 -0.1506  0.2226
17695W        W32826   6.462   9.671   0.487  0.0329 -0.1697  0.0413
17696W        W32827   8.470   7.546   4.230 -0.3013  0.0460 -0.0776
17697W        W32828  11.603   9.040  10.104 -0.1743 -0.1922 -0.2467
17698W        W32829   4.458   4.255   0.998 -0.0735  0.0007 -0.1661
17699W        W32830   8.388   2.156  12.385 -0.5137 -0.2730 -0.0251
17700W        W32831  13.557  11.071   3.294 -0.0717 -0.1929  0.0082
17701W        W32832   1.282  13.724  14.197  0.0290  0.2451  0.0168
17702W        W32833   6.088   2.021  10.802 -0.1999  0.0293  0.3724
17703W        W32834   8.776   4.425   4.945  0.4251 -0.2003  0.0156
17704W        W32835  17.021   2.312  11.025 -0.0166 -0.0277 -0.0803
17705W        W32836   6.123  15.943   4.779 -0.1049  0.0005  0.2000
17706W        W32837   5.490   6.066   2.764 -0.0769  0.1594  0.0105
17707W        W32838   8.816  17.528   5.311  0.0976 -0.0971 -0.0975
17708W        W32839  17.137   1.507  14.970 -0.1256  0.1157 -0.1222
17709W        W32840  11.567  14.932   4.006  0.1012  0.0324 -0.3816
17710W        W32841   0.929  13.378   3.027 -0.1573  0.0384  0.2403
17711W        W32842  12.352   6.383   3.267  0.2350 -0.1101 -0.0074
17712W        W32843  13.032   7.087   2.712 -0.2410 -0.0813 -0.2334
17713W        W32844  13.028   5.722  14.811  0.0345  0.1668 -0.0122
17714W        W32845   1.642   3.495   3.729 -0.0105  0.2016  0.1725
17715W        W32846   6.573  14.861   2.017  0.1637 -0.2950 -0.2473
17716W        W32847  14.063   7.124  14.619 -0.2912 -0.0746 -0.2823
17717W        W32848   7.709   7.989  12.023 -0.1099 -0.0146  0.1583
17718W        W32849  17.763  11.410   3.708 -0.1408 -0.0770  0.4430
17719W        W32850   4.943   4.380   2.286  0.1108  0.1605  0.2735
17720W        W32851   7.591   7.966   1.181  0.0174 -0.1465  0.1730
17721W        W32852  13.644   1.611  15.529 -0.2876 -0.1705 -0.0544
17722W        W32853   1.811   6.924  11.843  0.2265  0.1690  0.3206
17723W        W32854   8.159   3.185   1.857  0.0989 -0.0487 -0.0280
17724W        W32855   9.264   7.418   1.675  0.1383 -0.1809 -0.1172
17725W        W32856  10.459  15.700   0.189  0.3191 -0.1362  0.3734
17726W        W32857   6.907  17.885   0.603  0.2327  0.0173 -0.5020
17727W        W32858   0.450   5.848   1.547  0.0834 -0.4698  0.6928
17728W        W32859  12.475   1.850   0.040 -0.1897  0.1430 -0.0382
17729W        W32860   4.614  14.935   1.730 -0.2523 -0.0789  0.4577
17730W        W32861   2.296  10.386   1.963 -0.1921  0.0857  0.1883
17731W        W32862   5.582   2.148   3.609  0.0471 -0.0713 -0.0371
17732W        W32863   1.792  17.753  15.599  0.0070  0.0718  0.0333
17733W        W32864   2.460   4.068   1.583 -0.0653  0.1225  0.3068
17734W        W32865   7.869  10.618   4.182  0.3480  0.4134  0.3296
17735W        W32866   4.201  10.955   1.213  0.1102  0.3066  0.1702
17736W        W32867  12.926   5.107  15.500 -0.1197 -0.1629 -0.2930
17737W        W32868   9.903  10.101  15.674 -0.1453 -0.0911 -0.1657
17738W        W32869  13.728   5.483   4.207 -0.0177  0.2057  0.2034
17739W        W32870   6.110   2.737  12.542  0.3323 -0.2310  0.0032
17740W        W32871  16.812   7.388   1.675 -0.0627  0.0646  0.0719
17741W        W32872   0.179  13.655  10.759  0.2645  0.0670  0.3606
17742W        W32873  10.247  17.538  12.603  0.0527 -0.2050 -0.1605
17743W        W32874   7.777   0.167   1.974 -0.1076 -0.0080 -0.0542
17744W        W32875  15.777  13.910  13.085 -0.1181  0.1275 -0.1029
17745W        W32876   9.355   8.868   0.712  0.1048  0.4883 -0.0560
17746W        W32877  17.576   1.487   0.621 -0.1502  0.1778  0.1789
17747W        W32878   8.895  11.048   1.967  0.1433 -0.0593  0.0064
17748W        W32879   0.832   1.607  15.595  0.0056  0.1139 -0.0010
17749W        W32880   2.475  17.139  13.400  0.0947  0.0169  0.0131
17750W        W32881  16.713   9.652   1.532 -0.0352  0.2724  0.0419
17751W        W32882  14.338  15.432  10.396  0.1457  0.1396 -0.4104
17752W        W32883  12.289  16.282   2.663  0.3172 -0.0283 -0.0458
17753W        W32884   9.730   4.944  16.379 -0.0286  0.1445 -0.0552
17754W        W32885   4.436   6.615  12.651 -0.2568  0.1890 -0.0399
17755W        W32886  12.815  11.804  16.272 -0.0690  0.0007 -0.4438
17756W        W32887  10.947   6.021   2.238 -0.0040  0.2160  0.0215
17757W        W32888   2.909  16.469   1.208  0.1013  0.1753 -0.1188
17758W        W32889  10.984   0.474   0.548  0.0523 -0.3554  0.0086
17759W        W32890   5.284  13.439   5.593 -0.5149  0.1167 -0.2668
17760W        W32891   6.980   4.144   1.941 -0.1102 -0.0753 -0.1477
17761W        W32892  14.871   2.974   4.320  0.0144  0.0637 -0.2902
17762W        W32893   2.037  10.512   1.553 -0.1053  0.1070  0.0771
17763W        W32894   1.070  15.411  13.899 -0.0448 -0.1852 -0.1753
17764W        W32895  11.017  13.705   4.614  0.3614 -0.1567 -0.1436
17765W        W32896  10.858  14.742   3.608  0.1946  0.0311  0.0759
17766W        W32897  11.492  14.723  13.990  0.3536 -0.2424  0.1798
17767W        W32898  18.087  15.510   1.618  0.0216 -0.1611 -0.2557
17768W        W32899  13.268  11.846   6.071  0.1928 -0.0486 -0.1210
17769W        W32900  13.903  10.540   5.815  0.0703  0.0609 -0.2092
17770W        W32901   3.891  14.054  14.405  0.1709  0.1299  0.0632
17771W        W32902   8.925  14.887   3.636 -0.2239 -0.0810 -0.1106
17772W        W32903   1.537   1.666   4.442  0.0788  0.2207 -0.1856
17773W        W32904   2.768  12.089  12.291  0.2125  0.2899  0.3525
17774W        W32905   8.366   7.341  14.919 -0.3839 -0.2128 -0.2229
17775W        W32906   7.800  14.901   2.756 -0.1518  0.1448 -0.2153
17776W        W32907  10.835  15.312   1.415 -0.1109  0.0043 -0.0821
17777W        W32908  12.446   8.222   2.651 -0.1959 -0.2396  0.2336
17778W        W32909   7.128  17.948  12.846  0.1053  0.0400  0.0560
17779W        W32910   5.644  11.975  15.030 -0.2014  0.2557  0.1532
17780W        W32911   7.469   1.121  14.986 -0.1070  0.1608  0.0083
17781W        W32912   8.600   4.420  10.891 -0.1365  0.1056 -0.0995
17782W        W32913  13.459   5.158  12.245 -0.1082 -0.0076  0.0916
17783W        W32914  18.006   7.188   3.716 -0.0420 -0.2746  0.3441
17784W        W32915   7.422  17.364   2.267 -0.3710  0.0046  0.1767
17785W        W32916  18.017  13.429   3.208  0.1950  0.0881 -0.0010
17786W        W32917   9.525  13.927  12.335 -0.1197  0.2860 -0.0984
17787W        W32918   0.786   1.638  11.253  0.0548  0.0183 -0.0295
17788W        W32919  10.160  15.818   2.524 -0.1497  0.2052 -0.1081
17789W        W32920  16.785   8.028  15.496  0.2047 -0.0242 -0.2055
17790W        W32921   9.118   8.028   0.166 -0.2385 -0.1617 -0.3182
17791W        W32922  16.471  16.042  12.301  0.0116 -0.0354  0.0419
17792W        W32923  13.050  17.681  12.475  0.0647  0.0348  0.1348
17793W        W32924  14.073   1.543   3.328 -0.1813  0.3757  0.0105
17794W        W32925  14.147   8.761   5.366  0.1260 -0.1429  0.0166
17795W        W32926  15.190   8.572  15.220 -0.2153  0.3075  0.2708
17796W        W32927   7.007  13.411   4.415  0.1326  0.0190  0.1002
17797W        W32928   3.873   3.009   3.593 -0.1998 -0.0187  0.1216
17798W        W32929   8.706   3.407   0.312 -0.1273 -0.2457 -0.0433
17799W        W32930   8.590   3.465   1.633  0.3411 -0.2134 -0.0998
17800W        W32931  15.800   2.087   6.133  0.1977  0.1089  0.2079
17801W        W32932  10.163   9.898  11.479  0.0586 -0.1537 -0.2819
17802W        W32933   9.797   5.211   5.461  0.2410 -0.0881 -0.0264
17803W        W32934   8.707  14.854   1.223 -0.1222  0.3387 -0.0105
17804W        W32935  14.979   9.066   3.510 -0.1603 -0.1194  0.2929
17805W        W32936   0.658  15.064  10.348  0.0314 -0.0605 -0.1256
17806W        W32937  15.213   3.891  15.748  0.2596  0.1623  0.3582
17807W        W32938   9.385   9.942  12.257  0.0919  0.0635 -0.4179
17808W        W32939   0.518  15.576  10.361  0.2408  0.1614  0.0875
17809W        W32940  11.704   0.532   1.751  0.3522 -0.1340  0.1784
17810W        W32941  12.699  14.611   5.184  0.1766 -0.1586  0.2239
17811W        W32942   6.240   3.107   0.511 -0.1848  0.1901 -0.0601
17812W        W32943   2.079   6.317  11.277  0.0970  0.1643  0.0508
17813W        W32944   9.737   2.914   4.153 -0.2358  0.1422  0.0777
17814W        W32945  16.534   4.988   4.621  0.3233  0.3357 -0.3906
17815W        W32946   1.166   7.207   5.168 -0.0990 -0.3282  0.2241
17816W        W32947  14.553  17.584  15.003 -0.0034  0.1273  0.1070
17817W        W32948  11.611  13.750  12.860  0.2690  0.1454  0.0014
17818W        W32949  10.160   3.022  16.070  0.2033 -0.0878  0.1024
17819W        W32950   2.394  11.363   5.345  0.0861 -0.0460 -0.0047
17820W        W32951  16.172   6.302   4.328 -0.0012  0.2901 -0.1430
17821W        W32952   9.730   4.872   3.710 -0.0185  0.1999  0.1638
17822W        W32953  11.488   1.912   0.822 -0.0307  0.0216  0.0249
17823W        W32954  17.471  14.110  12.441  0.0254 -0.1228  0.3158
17824W        W32955   5.006  10.982   3.431  0.0825 -0.1057 -0.1228
17825W        W32956  15.135  13.565   2.135  0.0722  0.2835  0.0942
17826W        W32957  14.166   3.296  11.849  0.1333  0.1692 -0.3077
17827W        W32958  12.345  10.328  11.992 -0.0625  0.0753  0.1703
17828W        W32959   1.581   0.640  15.118 -0.1410 -0.0863  0.0290
17829W        W32960   9.840   8.009   0.220  0.3158  0.1977 -0.1142
17830W        W32961  14.665   7.975  10.506  0.1316 -0.0079  0.0800
17831W        W32962   5.209   9.080  11.524 -0.0423 -0.0377  0.0236
17832W        W32963  13.840  16.736  15.830 -0.0259 -0.0013 -0.0870
17833W        W32964  12.297  13.165   5.165  0.0059  0.2463 -0.1885
17834W        W32965   4.092   2.345   0.571 -0.0758 -0.0484  0.0080
17835W        W32966  16.390  15.824  15.748  0.0387  0.2412  0.3282
17836W        W32967  18.036  17.437   3.704 -0.0552  0.2018  0.1959
17837W        W32968  10.869  13.809  16.335 -0.0858  0.1955 -0.0790
17838W        W32969   2.216   9.233  13.568 -0.0969  0.4592  0.2387
17839W        W32970   3.876  17.299  15.493 -0.0371  0.4070 -0.2172
17840W        W32971  14.682  13.577  14.514 -0.0556  0.0281 -0.1381
17841W        W32972  10.200  15.785  11.078 -0.2059  0.0351 -0.2682
17842W        W32973   4.805  14.592  12.362  0.0150  0.0405 -0.3541
17843W        W32974   4.411  11.098  11.148 -0.0843  0.0246 -0.2119
17844W        W32975   5.281   9.730   0.287  0.0603  0.0105 -0.0063
17845W        W32976  12.217  16.234  14.166 -0.2343 -0.2303 -0.2160
17846W        W32977  12.724  11.518   1.290  0.2438  0.0840  0.0799
17847W        W32978  17.506  17.679   1.835 -0.1106  0.1338 -0.1222
17848W        W32979   5.172   9.172  14.015 -0.1136  0.0375 -0.2616
17849W        W32980  17.062   6.910  12.712  0.1597  0.2991 -0.1852
17850W        W32981  17.243   4.769  15.677  0.0305 -0.0335 -0.0208
17851W        W32982   9.447  17.439  13.620 -0.0890 -0.4232 -0.4639
17852W        W32983  13.389  14.916  14.737  0.2571 -0.0511 -0.2294
17853W        W32984  16.501   3.146   5.226  0.2067  0.3657  0.0285
17854W        W32985   4.235  12.278   2.327 -0.2130 -0.0842  0.1015
17855W        W32986  17.656  14.178   5.135  0.2929 -0.3278  0.1103
17856W        W32987   4.739   9.560  16.433  0.0179 -0.3201  0.1254
17857W        W32988   0.918  10.035  12.031 -0.0713 -0.1877 -0.0012
17858W        W32989  15.680   9.695   4.391  0.0081  0.0474 -0.3025
17859W        W32990   1.644   3.281   4.258 -0.0951 -0.0605  0.1177
17860W        W32991   2.669  12.358   3.363 -0.2172  0.1983  0.1273
17861W        W32992  13.232  13.526  14.450 -0.0148 -0.1100  0.0019
17862W        W32993   9.714   9.157   5.778  0.3062  0.3304 -0.0001
17863W        W32994  16.497   8.192   0.262 -0.0863 -0.1345  0.0332
17864W        W32995   7.478   8.704  13.248 -0.3127 -0.4101  0.1616
17865W        W32996   0.996   3.084  14.678  0.3001 -0.3360  0.2050
17866W        W32997  15.134  10.734  14.524  0.1600 -0.0691  0.1002
17867W        W32998  18.070   6.551  11.664 -0.2709  0.1737  0.3036
17868W        W32999   4.147   2.921   5.809  0.0446 -0.1112  0.0748
17869W        W33000   0.679   6.712  13.987 -0.0255  0.2857 -0.1273
17870W        W33001  16.269  17.375   1.236  0.0294  0.1666 -0.0218
17871W        W33002   1.041   1.088  12.641 -0.0436  0.0370  0.0067
17872W        W33003   5.261   5.625   3.646 -0.0632  0.1612  0.1616
17873W        W33004   1.469  17.634  11.526 -0.1391  0.2752 -0.1697
17874W        W33005  11.757  14.513  11.259  0.0018  0.0028  0.2137
17875W        W33006   8.707   0.727   3.767 -0.0165 -0.2010  0.0503
17876W        W33007   3.712  14.460   4.333 -0.0389  0.0725  0.2577
17877W        W33008  16.366  15.486  15.244 -0.1399 -0.1761 -0.0921
17878W        W33009   9.759   7.344   0.339 -0.0107 -0.0067  0.0073
17879W        W33010   4.992   4.626  10.801  0.2483  0.1265 -0.0387
17880W        W33011  10.303   8.790  12.290  0.1295  0.0449 -0.0330
17881W        W33012   7.095  10.729   5.316  0.2728 -0.2631  0.2544
17882W        W33013  12.310  16.216  12.446  0.1112  0.1844  0.1449
17883W        W33014  15.976   7.358  14.411 -0.3141  0.0189 -0.1280
17884W        W33015  13.433   1.015  16.345 -0.2060  0.0862 -0.0051
17885W        W33016  15.019  13.897   4.155  0.0721  0.2813 -0.1565
17886W        W33017  15.957   1.453   1.711  0.1044 -0.2585 -0.1096
17887W        W33018  14.403   7.003   3.320 -0.1880 -0.4942  0.0850
17888W        W33019   4.067   7.785   3.673  0.0359  0.0369  0.0654
17889W        W33020  13.300   6.616   4.681 -0.0186  0.0342  0.0711
17890W        W33021   2.010   6.166  11.852  0.0137  0.3447 -0.1090
17891W        W33022   6.358   4.022  16.373  0.0741 -0.1474  0.1359
17892W        W33023   8.664  13.079   5.029 -0.2024 -0.0264 -0.1661
17893W        W33024  11.997  13.853   5.615  0.3785  0.2120  0.4057
17894W        W33025  11.328  12.706  11.251 -0.1400  0.2592  0.0440
17895W        W33026  12.920   1.685  12.545  0.2273  0.1321  0.1116
17896W        W33027   7.588   1.666  11.235 -0.0905 -0.1304  0.2585
17897W        W33028   8.617   0.533   4.313 -0.1773 -0.2983 -0.1671
17898W        W33029  10.699  13.806   0.760  0.1215  0.1812 -0.0548
17899W        W33030  13.505   5.746  11.247 -0.1270 -0.1089  0.3300
17900W        W33031   8.212  10.857   2.454 -0.2106 -0.2249  0.1042
17901W        W33032   0.078   5.823  14.504 -0.1928  0.0846 -0.0496
17902W        W33033   9.206  17.801  15.223 -0.0876  0.0805  0.0385
17903W        W33034   8.991  10.803  16.236 -0.3004 -0.3880  0.1119
17904W        W33035   7.701   7.582  11.302  0.1133  0.1054  0.0583
17905W        W33036  11.703  10.001  12.387 -0.0530 -0.0024  0.1537
17906W        W33037  17.400  16.099  14.356 -0.0898 -0.1319 -0.0445
17907W        W33038   1.926   8.838   0.585 -0.1284 -0.2432  0.1049
17908W        W33039   1.799   5.164  11.613  0.1565  0.0986  0.1309
17909W        W33040  14.837   9.867   4.891  0.1096  0.2267 -0.0389
17910W        W33041   4.992   3.837   4.134  0.0465  0.1729  0.2095
17911W        W33042   6.817  14.706  15.088  0.4270  0.0830  0.1412
17912W        W33043  11.814   1.520  12.924  0.1155  0.2094 -0.2813
17913W        W33044   8.505   9.941  12.328 -0.1036  0.0310  0.1174
17914W        W33045  11.244  13.734   2.292 -0.0334 -0.2275  0.1395
17915W        W33046  11.836   8.390   3.946  0.2326 -0.0558 -0.0285
17916W        W33047   5.155   5.103   0.192  0.1223 -0.2379  0.0836
17917W        W33048  16.312   9.241   3.956  0.0079  0.1023  0.2263
17918W        W33049   7.863   7.300   4.916 -0.2220  0.1240 -0.0112
17919W        W33050  12.728   3.429   0.029 -0.2058  0.0006  0.0579
17920W        W33051   2.297  17.233  11.828  0.0991 -0.0981 -0.0239
17921W        W33052  15.677  17.828   4.919 -0.3036 -0.0866 -0.1635
17922W        W33053   5.812   0.599   1.989  0.1514  0.0204  0.4312
17923W        W33054   9.728   6.310  13.132 -0.0740 -0.0338  0.0550
17924W        W33055   9.865  14.137  13.188 -0.0191  0.1683  0.2533
17925W        W33056  12.631   2.558  13.233 -0.1004 -0.1858 -0.2158
17926W        W33057   6.277  12.929   1.272  0.2145 -0.0720 -0.0907
17927W        W33058   3.860   2.177   1.803  0.4823  0.1262 -0.2656
17928W        W33059   2.305   1.692  11.791  0.2917 -0.0708  0.2379
17929W        W33060   7.704   0.445   6.196 -0.2726 -0.1857 -0.1452
17930W        W33061   4.161   4.158   5.953 -0.0166 -0.1208 -0.1987
17931W        W33062   1.295  11.362  14.284 -0.1291 -0.0966  0.0785
17932W        W33063  16.965  14.028   2.073  0.1022 -0.2564  0.0441
17933W        W33064  14.600   7.269   5.024 -0.1466 -0.0602  0.0257
17934W        W33065  16.680  15.698  14.771  0.1574 -0.1978 -0.0252
17935W        W33066  13.347   5.083   2.888 -0.0641  0.1037 -0.1292
17936W        W33067   1.531   3.542   1.120  0.0204  0.1818 -0.2562
17937W        W33068   7.920  13.130   3.978 -0.1900  0.4037 -0.0120
17938W        W33069   3.208   1.816   6.017 -0.2664  0.2351 -0.2329
17939W        W33070   1.988   5.069  13.940 -0.2509  0.3344 -0.2222
17940W        W33071  16.662   5.192   2.005  0.0327 -0.2047 -0.1846
17941W        W33072   4.146  11.297   2.996  0.2342 -0.0448 -0.1210
17942W        W33073  17.859  11.464  15.929 -0.1166  0.1133 -0.0122
17943W        W33074  12.480  11.988   0.423 -0.3148 -0.0430  0.1860
17944W        W33075   3.119   9.066  10.959  0.3031  0.0395 -0.0363
17945W        W33076   3.503  12.355  12.231 -0.0782  0.0835 -0.3455
17946W        W33077   3.577   4.925  11.199 -0.3013 -0.0275 -0.0868
17947W        W33078   1.716  11.398   1.750 -0.3766 -0.1692 -0.0998
17948W        W33079  16.436   4.830   1.146  0.3687  0.1332  0.2940
17949W        W33080   0.891   4.723   1.534 -0.1571 -0.1074  0.0170
17950W        W33081   9.782   5.954  11.983 -0.0578 -0.2002 -0.0330
17951W        W33082   2.175   4.242   2.013  0.1763  0.0561 -0.0993
17952W        W33083  14.183  10.824  12.184  0.1378 -0.1365  0.1728
17953W        W33084   9.491  17.912  13.413 -0.0737 -0.1197 -0.0859
17954W        W33085  12.961   9.695  15.936 -0.1588  0.2015  0.2588
17955W        W33086   1.636  15.873  11.757 -0.0228 -0.0340 -0.1122
17956W        W33087  15.555  15.502  14.299 -0.2074  0.3624  0.0054
17957W        W33088  14.561  16.208   1.897 -0.1107  0.0173  0.0724
17958W        W33089   2.397  11.275   2.529  0.2895  0.0581  0.3125
17959W        W33090   4.847  16.690  10.306 -0.1107  0.2962  0.0540
17960W        W33091   3.894  15.971  14.200 -0.0859 -0.0006  0.0194
17961W        W33092   0.477   6.338   2.780  0.0748 -0.1975 -0.1291
17962W        W33093   7.881   0.902  13.179 -0.0590  0.2479 -0.0685
17963W        W33094  10.587   0.144  16.247 -0.1549  0.1120 -0.2399
17964W        W33095  12.375   6.211   1.647  0.0752  0.0226  0.1526
17965W        W33096   2.673   3.656  16.327  0.1776 -0.0574  0.1946
17966W        W33097  14.964  15.830  11.821  0.0312 -0.0615  0.0799
17967W        W33098  14.901   0.410  11.091  0.1331  0.0635  0.1666
17968W        W33099   3.282   4.603   5.165 -0.2079 -0.3511 -0.1841
17969W        W33100   0.319  10.276  12.833 -0.0050  0.0381 -0.3340
17970W        W33101   5.673   5.694  13.171 -0.0937  0.0621  0.1038
17971W        W33102  15.594   1.056  16.163  0.2786  0.0071 -0.3919
17972W        W33103   7.367   7.334  16.123  0.3421 -0.1340 -0.3465
17973W        W33104   3.123  17.399   1.149 -0.3398  0.0051  0.1414
17974W        W33105   6.449   5.388  14.899 -0.2099  0.2379  0.2663
17975W        W33106   1.272   7.076   0.761  0.0461 -0.0333 -0.0568
17976W        W33107   7.013   0.243   1.286 -0.1002 -0.1625  0.3248
17977W        W33108  16.238   8.406   1.763 -0.2281 -0.2088  0.2095
17978W        W33109   5.156  11.692   1.271  0.1343 -0.1879  0.0435
17979W        W33110   3.722   2.978  12.468  0.0759 -0.0852 -0.0396
17980W        W33111   8.313  11.774  14.694  0.1158  0.3213 -0.2180
17981W        W33112  12.553   2.085  11.664 -0.5062 -0.0069  0.0239
17982W        W33113  12.663   6.725   3.420 -0.1451  0.0110 -0.3629
17983W        W33114   9.438   7.225   2.901 -0.0709  0.0595 -0.2502
17984W        W33115  11.586  17.446   1.022  0.2224 -0.0105  0.0247
17985W        W33116  17.080  13.560  15.895  0.0164  0.3381  0.3417
17986W        W33117   0.582  12.567  13.036 -0.0373  0.2160 -0.0091
17987W        W33118  10.523  16.370  15.321  0.2254 -0.1260 -0.2393
17988W        W33119   1.008  17.902  12.009  0.3504  0.0554  0.0135
17989W        W33120   5.123   3.755   1.380  0.0678  0.0117 -0.2944
17990W        W33121   3.863   4.452  12.313  0.1183  0.0021 -0.2091
17991W        W33122  11.332  17.771   0.321 -0.0535  0.2917 -0.1554
17992W        W33123   7.804   3.128   1.519 -0.2757  0.1675  0.0540
17993W        W33124  17.920  15.400  13.343  0.0514  0.0036  0.1334
17994W        W33125  13.491   8.243  14.099  0.0040  0.0410 -0.1660
17995W        W33126   6.709   2.420  16.121 -0.0903  0.2380  0.0021
17996W        W33127   7.233   4.965  16.215  0.1222 -0.0731  0.1870
17997W        W33128  17.554   4.294  14.123 -0.1778 -0.1449  0.1258
17998W        W33129  16.453   2.516   1.660 -0.2015 -0.0068  0.2778
17999W        W33130   5.750   4.490  11.988  0.3606  0.0469  0.0893
18000W        W33131  17.843   8.689  14.402 -0.3085 -0.0109 -0.1347
18001W        W33132   1.031   4.352   0.737  0.0582  0.0975  0.0258
18002W        W33133  12.786  14.415  14.189  0.0187  0.0165 -0.1064
18003W        W33134  16.353   9.282   1.324 -0.0875 -0.0169  0.4220
18004W        W33135   6.440  11.932  14.761  0.1787 -0.0150  0.0834
18005W        W33136   8.045  13.952   4.108  0.2912  0.1602 -0.1018
18006W        W33137   0.058   1.904  15.798  0.1035 -0.2310  0.3043
18007W        W33138  15.249   0.279  16.454 -0.0330  0.1440  0.0688
18008W        W33139   5.126  12.783   3.723  0.0976 -0.1758 -0.2786
18009W        W33140   3.020   9.001  11.441  0.2251 -0.2651 -0.0382
18010W        W33141   9.675   4.331   2.822  0.0029 -0.1705 -0.2427
18011W        W33142  11.208  15.769  13.609  0.1015 -0.0742 -0.2228
18012W        W33143  17.071   3.723  13.931  0.0456  0.0657  0.2350
18013W        W33144  15.348   6.624   4.991  0.5933  0.1473  0.0310
18014W        W33145   5.982   0.131  13.446 -0.2014  0.1205  0.0170
18015W        W33146   7.693  11.572  12.210  0.2482  0.0640 -0.1626
18016W        W33147   5.400   5.980   3.291  0.0776  0.3089  0.2841
18017W        W33148   7.336  14.093  16.283 -0.1869 -0.1340 -0.1117
18018W        W33149   6.162  10.512   2.314 -0.2798  0.0146 -0.1612
18019W        W33150   7.997   9.316  16.146  0.0883 -0.1730  0.0481
18020W        W33151   7.506  14.215  12.507  0.3135  0.0573 -0.1039
18021W        W33152  17.065   4.787   1.795 -0.2635  0.6957 -0.2034
18022W        W33153  16.636  12.056   3.793 -0.1390  0.2006  0.0834
18023W        W33154   2.039   9.188  15.763  0.0417  0.3064  0.1378
18024W        W33155  13.633   6.084  12.891 -0.0307 -0.2865 -0.2403
18025W        W33156   0.506  17.105   3.302 -0.1255  0.0108 -0.0357
18026W        W33157   8.886  14.458   4.501 -0.3120  0.2044 -0.1622
18027W        W33158   5.218  16.010   3.745 -0.0009 -0.1117  0.0380
18028W        W33159   9.145   6.744   0.960  0.1843 -0.1877  0.0559
18029W        W33160   0.501  14.425  16.324  0.1215  0.2577 -0.3155
18030W        W33161  12.937  11.889  15.328  0.0129  0.2345 -0.0618
18031W        W33162  12.486   0.803  10.381 -0.2376 -0.0219  0.0842
18032W        W33163  15.487  12.978   4.807 -0.1510  0.1001 -0.0474
18033W        W33164  14.887  13.006   0.484 -0.0873 -0.0285  0.2814
18034W        W33165  13.448   4.943  13.989 -0.0252 -0.0779 -0.2396
18035W        W33166   7.257   2.759   2.214  0.0715 -0.0098 -0.0950
18036W        W33167   9.847   2.525  13.621 -0.0769 -0.0580  0.1124
18037W        W33168  13.474  10.625  11.772 -0.1649 -0.2483 -0.0519
18038W        W33169  15.412   3.308  13.539  0.0493 -0.1950 -0.0038
18039W        W33170   6.536  17.580   0.695  0.1594  0.0250  0.1153
18040W        W33171  13.195  14.501  14.497 -0.0670  0.0073  0.1320
18041W        W33172   9.212   6.226   0.241  0.1054  0.0749 -0.0382
18042W        W33173  12.255  16.367   5.552  0.3171 -0.0580  0.2389
18043W        W33174  14.984   1.478   4.985 -0.1981 -0.0367 -0.0210
18044W        W33175   3.820   0.923   1.211  0.0040 -0.0108 -0.1110
18045W        W33176   0.993   2.831   0.527  0.1240 -0.0858 -0.1163
18046W        W33177  16.549  10.704   0.875 -0.2294 -0.2497  0.0348
18047W        W33178  14.252  15.539   3.473  0.3373 -0.2907  0.2447
18048W        W33179   0.890  13.845  15.558 -0.0948 -0.0320 -0.0475
18049W        W33180  16.862  16.528  15.153 -0.0159 -0.4419  0.2359
18050W        W33181   3.836   4.375   5.570  0.1029 -0.1006 -0.1352
18051W        W33182  14.936   5.735   4.710  0.1202  0.2145  0.0423
18052W        W33183  17.045   0.320  14.172 -0.4447  0.1539  0.2618
18053W        W33184   4.272   2.322   2.137  0.2022 -0.0644  0.0163
18054W        W33185  15.182   4.883   4.733 -0.0835  0.1076  0.0152
18055W        W33186  13.511  13.956   4.331 -0.0795  0.1212  0.2004
18056W        W33187  16.919   8.781  12.278 -0.0678  0.1818 -0.1267
18057W        W33188  15.791  16.076   5.598 -0.3708 -0.2276 -0.0107
18058W        W33189   0.023  16.097   5.394 -0.1853  0.0593  0.2871
18059W        W33190   1.722   3.925  12.759  0.2145  0.0033 -0.1647
18060W        W33191   4.721  10.430   4.686  0.2411  0.3269 -0.0050
18061W        W33192   3.943  15.988  15.400 -0.0198 -0.0088 -0.1413
18062W        W33193   5.736   8.280  15.817  0.2893 -0.1605  0.4822
18063W        W33194   2.346  13.711   2.716  0.0273  0.0737  0.0124
18064W        W33195   9.423   1.737   2.596  0.1238 -0.1694  0.2176
18065W        W33196   6.185   0.702   6.638 -0.1180 -0.3432 -0.0402
18066W        W33197   6.676   2.429  14.979 -0.2339  0.0695 -0.0529
18067W        W33198   0.629   0.352   1.361 -0.0156 -0.0736  0.1061
18068W        W33199   5.868   3.042  12.896 -0.2131  0.1824 -0.4287
18069W        W33200   4.493   7.531   1.967  0.3421 -0.1197  0.2876
18070W        W33201  15.488   7.787   1.648 -0.1921 -0.1460 -0.2265
18071W        W33202   3.282   1.636   2.571  0.0414 -0.1370 -0.1816
18072W        W33203  17.344   0.452  12.655 -0.0685  0.0316 -0.3835
18073W        W33204   1.362   9.529   0.283  0.2159 -0.0153 -0.2608
18074W        W33205  10.212  17.792  11.476  0.0846  0.0537 -0.1651
18075W        W33206  13.147   2.765   1.748  0.2311  0.1678  0.0579
18076W        W33207   8.592  16.639  13.150  0.0435 -0.2313 -0.2735
18077W        W33208   2.481   6.256   0.758  0.0827 -0.2031  0.1891
18078W        W33209   7.813   9.087  14.151  0.0447  0.0455 -0.1538
18079W        W33210   3.559   8.465  15.443 -0.3264  0.0351 -0.1536
18080W        W33211   6.272  12.613  12.226  0.0227 -0.1805  0.0032
18081W        W33212   6.622  16.208  12.206 -0.2604  0.1133 -0.3242
18082W        W33213   9.559   9.117  13.361  0.3433  0.0331  0.3238
18083W        W33214   0.905  16.100  14.348  0.0591  0.3143 -0.1102
18084W        W33215   5.117  17.233  15.887 -0.0129 -0.3386  0.0708
18085W        W33216   5.368   8.289   1.706  0.0259 -0.0935 -0.0156
18086W        W33217   0.348   6.661   1.162 -0.0113 -0.0436  0.0865
18087W        W33218  15.736  11.145   0.526 -0.0415  0.1923 -0.0079
18088W        W33219  12.643  11.996   3.433 -0.0593  0.4082 -0.1497
18089W        W33220   4.544   7.688  15.847  0.2413 -0.0281 -0.0794
18090W        W33221  15.675   5.326  15.273 -0.1638 -0.2345 -0.2562
18091W        W33222   7.102  12.011   2.353  0.3294  0.3979 -0.0463
18092W        W33223   7.338   5.847  15.288 -0.0502 -0.0766 -0.0341
18093W        W33224   7.955   6.356  14.163 -0.1115  0.3064  0.2568
18094W        W33225  11.871  12.880   5.847  0.2520 -0.0656 -0.0131
18095W        W33226   9.608   2.288   4.122  0.1123 -0.3583 -0.1651
18096W        W33227  10.497  12.351  12.878  0.0245 -0.1568 -0.4130
18097W        W33228  16.211  17.450  13.541 -0.1397  0.1758 -0.2249
18098W        W33229   9.690   9.699   0.455  0.1236  0.1348 -0.1331
18099W        W33230   7.418  14.527   3.592 -0.2537  0.2904 -0.0546
18100W        W33231  17.712   8.302   4.301  0.5380 -0.0458 -0.0501
18101W        W33232   1.021   6.621  15.897  0.1186 -0.1160  0.1264
18102W        W33233  14.288   3.639   1.127 -0.2136  0.0630  0.1007
18103W        W33234   3.258   0.884  13.487 -0.4928  0.0117  0.0458
18104W        W33235  10.828  16.716  13.385  0.1903  0.0250 -0.4145
18105W        W33236   2.814   3.610   6.304  0.1219 -0.0026 -0.2672
18106W        W33237   1.565  10.589   1.805  0.1310 -0.0864  0.0835
18107W        W33238  13.797  13.112  12.325  0.0171  0.0986 -0.1191
18108W        W33239   2.827   4.201   1.960 -0.4039  0.1993 -0.0827
18109W        W33240   2.361  13.135  12.288  0.0091 -0.3670 -0.0079
18110W        W33241  17.523   5.155  11.616  0.3638 -0.1981  0.2657
18111W        W33242   7.430   2.157  11.258 -0.1174 -0.1075  0.2702
18112W        W33243  11.301   8.388   3.367 -0.0260  0.1136  0.1359
18113W        W33244   4.605   7.759   3.482 -0.5688 -0.0577  0.2896
18114W        W33245   7.803   1.269  15.335 -0.1223  0.0630  0.3536
18115W        W33246  11.572  11.890  15.058  0.5180 -0.1251  0.2994
18116W        W33247  16.294  17.335   0.736  0.1560 -0.3429  0.2963
18117W        W33248  15.342   3.750  16.244 -0.0041  0.2926 -0.0096
18118W        W33249   2.905  15.093   3.691 -0.1909 -0.2140 -0.0496
18119W        W33250   9.495  10.409   2.533 -0.0766 -0.1144  0.0195
18120W        W33251  17.342   8.025   0.132  0.2968  0.4364  0.1267
18121W        W33252   5.357   6.054  10.514 -0.3544  0.1408  0.0287
18122W        W33253   8.006   5.958  11.790 -0.1600 -0.0207  0.0509
18123W        W33254  11.190  15.252   3.155 -0.2005  0.0867 -0.0117
18124W        W33255   4.905   2.166  11.303 -0.0274  0.1775  0.1603
18125W        W33256   9.198   5.889   3.160 -0.0949  0.0515 -0.0213
18126W        W33257   5.269   5.379  15.731 -0.2480 -0.1960  0.1621
18127W        W33258   3.564  15.712   1.225 -0.2701  0.2360  0.0514
18128W        W33259  12.835   7.270   4.964 -0.0473  0.1118 -0.0060
18129W        W33260   3.592   6.057  15.423 -0.3819  0.0810 -0.1825
18130W        W33261   4.437   6.922   9.949  0.4911  0.1014  0.3749
18131W        W33262   4.439  11.828   0.702 -0.4481 -0.0375 -0.2623
18132W        W33263   6.735  16.192   4.720  0.0745 -0.1634  0.0660
18133W        W33264  11.113  17.788  12.431  0.0071 -0.6269  0.1743
18134W        W33265   2.283   4.938  11.380  0.1207 -0.0395 -0.0148
18135W        W33266   4.745   5.954  14.016 -0.2455  0.0439 -0.0004
18136W        W33267   0.736  11.484   0.229 -0.2065  0.1418 -0.1062
18137W        W33268   1.935   0.161   2.589  0.0640 -0.1541 -0.1670
18138W        W33269   7.412  16.156   0.374 -0.0370  0.2811  0.2296
18139W        W33270  15.389  11.830   3.114 -0.1028  0.3588 -0.0334
18140W        W33271   3.756   0.814  13.476 -0.4389  0.2229 -0.0390
18141W        W33272   6.306   2.365  11.440 -0.0719 -0.0607  0.0300
18142W        W33273  12.608   9.090  12.598 -0.1841 -0.3488  0.0718
18143W        W33274   1.351  16.893  14.577 -0.1591  0.1658  0.1481
18144W        W33275   2.837   4.157   0.038  0.1043 -0.3941 -0.1136
18145W        W33276   0.157   3.160   1.066  0.0279  0.1404  0.1374
18146W        W33277  18.077  15.176   0.352 -0.3314  0.1653  0.1792
18147W        W33278  17.916  12.941  12.775 -0.0660  0.1503 -0.6621
18148W        W33279  16.040   1.145  12.585 -0.0118  0.0772  0.1176
18149W        W33280  11.473   1.703  11.616  0.2363 -0.0026  0.1470
18150W        W33281   8.719   0.519  12.688  0.0157 -0.0031  0.0245
18151W        W33282  10.972  11.532   5.617  0.0117 -0.0309  0.0146
18152W        W33283   9.167   9.707   5.176 -0.0832  0.1216 -0.0994
18153W        W33284   5.457  10.429  12.821 -0.1405 -0.1358  0.0557
18154W        W33285  10.049  15.112  12.249 -0.2188  0.0218 -0.0220
18155W        W33286   4.658   6.751   5.181 -0.2321 -0.1120  0.1864
18156W        W33287   9.333  17.530  11.427  0.0032  0.1536  0.2834
18157W        W33288   3.578   2.403   4.815  0.0499 -0.3985  0.0072
18158W        W33289   6.956  12.146   1.703  0.1589  0.0105 -0.2160
18159W        W33290  10.711   9.125   3.006  0.0864 -0.2285  0.0966
18160W        W33291   5.449  12.871   2.391  0.1594  0.2073  0.1626
18161W        W33292   8.484   6.925   2.905  0.0090 -0.0347 -0.0792
18162W        W33293   2.861  14.906  12.689 -0.2374 -0.0283 -0.2929
18163W        W33294   8.658  12.397  13.376  0.1127 -0.0023  0.1775
18164W        W33295  16.607   6.821  14.111  0.2215 -0.2580 -0.3465
18165W        W33296   7.565   0.193   1.447  0.3141  0.1409  0.2457
18166W        W33297   8.983   5.440   4.861  0.0255 -0.0660  0.0788
18167W        W33298   6.210   5.102   1.653 -0.0105  0.2473 -0.1783
18168W        W33299   7.588   2.784   1.764 -0.0129  0.0787  0.0883
18169W        W33300   2.981   8.177  14.135  0.1809  0.1816 -0.1391
18170W        W33301  17.370  10.430   4.975 -0.0353  0.1554  0.1481
18171W        W33302   6.242  14.842  12.258 -0.1511  0.0782 -0.5109
18172W        W33303  14.040  16.623   5.815  0.2117  0.0874 -0.0974
18173W        W33304   8.073   4.614   2.939  0.0054  0.3164 -0.0638
18174W        W33305   1.504   8.310  12.139  0.1817  0.0966 -0.2687
18175W        W33306  15.561   5.287   4.950  0.0923  0.2856  0.0321
18176W        W33307  10.489   8.866  16.085 -0.3877 -0.0018  0.2119
18177W        W33308   0.716  14.228   1.852  0.0824  0.1040  0.1000
18178W        W33309  16.019  11.639  13.152  0.0579  0.0654 -0.0696
18179W        W33310  16.386   0.741  15.110 -0.1180 -0.0583 -0.0436
18180W        W33311  11.403   7.991   3.877 -0.0751 -0.0710 -0.0481
18181W        W33312   3.873   4.193  15.148 -0.0380  0.1165 -0.1751
18182W        W33313   8.882   9.687  13.272 -0.2707  0.1124  0.0973
18183W        W33314   3.231  12.757  12.931 -0.0048  0.1234 -0.1389
18184W        W33315   7.219   5.790   4.175  0.0264 -0.1972  0.2223
18185W        W33316   2.702   9.743   3.554 -0.0108  0.1212 -0.0913
18186W        W33317  12.870  14.069  13.262 -0.1522 -0.1982  0.1614
18187W        W33318   8.255   2.554   2.659  0.1783  0.3028  0.1401
18188W        W33319  13.607  12.895   0.233 -0.3029 -0.0987 -0.0779
18189W        W33320  15.864  13.860   3.780 -0.1079  0.1063  0.3261
18190W        W33321  12.083   7.808  13.553  0.0627  0.0734 -0.1907
18191W        W33322   3.692  14.533  12.651  0.5816  0.1328 -0.2371
18192W        W33323   9.270  13.301   2.180 -0.0489  0.0217  0.0140
18193W        W33324  13.395  17.241  14.548  0.2675  0.4001  0.2250
18194W        W33325   6.902  15.439   4.363  0.5297 -0.1621 -0.3256
18195W        W33326  15.188   9.977   0.567  0.2385  0.2299 -0.0091
18196W        W33327   8.922  13.808  13.333 -0.1881 -0.1951 -0.0017
18197W        W33328   4.979  11.914  14.144 -0.0603  0.0821 -0.3116
18198W        W33329  12.582   4.991  15.196 -0.1506 -0.0450  0.1355
18199W        W33330   6.915  10.830   0.844 -0.0099 -0.0319  0.0342
18200W        W33331  14.351  11.785  13.335 -0.0665 -0.1068 -0.1010
18201W        W33332  10.895  10.451  11.184 -0.3801  0.1595 -0.2302
18202W        W33333   8.603  17.105   1.047  0.0863  0.0405 -0.0950
18203W        W33334   7.533  12.041   5.710  0.0722 -0.0965 -0.2398
18204W        W33335   8.756   3.505  12.054  0.1299 -0.2394  0.1220
18205W        W33336   6.325   8.710  14.447 -0.0263  0.2610 -0.0111
18206W        W33337   8.309   5.255   1.045  0.0314 -0.0510 -0.3063
18207W        W33338  11.350   6.899  11.726 -0.0168 -0.3130 -0.0691
18208W        W33339  10.871   0.967   4.864  0.0109  0.1407  0.2780
18209W        W33340   9.355  10.281   3.168  0.0697 -0.0148 -0.2119
18210W        W33341  13.310  10.878   4.712 -0.0062 -0.1959 -0.4582
18211W        W33342   5.174  12.501   5.148 -0.0968  0.1804 -0.5904
18212W        W33343  12.648   6.644   6.406  0.0936 -0.0431 -0.1565
18213W        W33344  14.014  15.458   0.133 -0.1160  0.0074 -0.0916
18214W        W33345   3.165  14.839   2.100 -0.1427  0.0783 -0.0622
18215W        W33346   8.022  10.388  10.300 -0.0390 -0.3342 -0.0958
18216W        W33347   0.611  14.884   1.820  0.0714 -0.0931 -0.1785
18217W        W33348  12.366   1.277   0.458 -0.2042  0.0031 -0.1620
18218W        W33349  12.015  16.423   6.032 -0.0327 -0.1122 -0.2826
18219W        W33350   6.934   4.691   2.551  0.2717 -0.0959 -0.0884
18220W        W33351  15.034   7.228   4.046  0.0936  0.0741 -0.3320
18221W        W33352   1.483   4.939   4.482  0.3267  0.1277  0.3770
18222W        W33353   8.168  17.966   4.903  0.1114 -0.4624  0.2074
18223W        W33354  10.391   0.966  12.849  0.1580  0.0959 -0.3550
18224W        W33355   7.643   1.600   4.294 -0.2097  0.0744  0.0984
18225W        W33356   4.642   1.045  14.474 -0.1688 -0.0858 -0.4726
18226W        W33357  17.812  10.978   0.985  0.0754 -0.1803  0.2125
18227W        W33358   5.982  15.491  15.562  0.0815  0.1943  0.0896
18228W        W33359  13.511   9.077  13.557 -0.2184 -0.2258 -0.3631
18229W        W33360  16.791  10.926  12.038 -0.1007 -0.0065 -0.2194
18230W        W33361  10.984  16.975  16.439  0.1829  0.0428 -0.0203
18231W        W33362  10.867   4.915  12.787 -0.0577 -0.0967  0.0678
18232W        W33363  14.792   0.181   1.836  0.0161  0.0085  0.1920
18233W        W33364  13.772  15.070  14.291 -0.3213  0.0249 -0.2598
18234W        W33365  15.225   8.892  13.910  0.2177  0.0676 -0.0392
18235W        W33366  16.413  10.039   4.761 -0.2293  0.1031 -0.5345
18236W        W33367   5.512   8.790  13.080 -0.1458 -0.3817  0.0663
18237W        W33368  15.370   2.707  12.079  0.2953  0.0105  0.1846
18238W        W33369  14.629  16.472  14.560 -0.2661 -0.3277 -0.0764
18239W        W33370   2.703   8.105  14.665 -0.0406  0.2655  0.0266
18240W        W33371   5.684   2.845  14.934  0.0006 -0.0714 -0.0981
18241W        W33372   3.819  17.146   4.147 -0.1312  0.2654 -0.0803
18242W        W33373   9.607  15.687  11.836  0.1907 -0.1726  0.3084
18243W        W33374  17.038   5.587   5.741  0.1922  0.1372 -0.1179
18244W        W33375   6.169   6.294   5.141 -0.0105  0.1536  0.4490
18245W        W33376   8.192   0.190  10.415 -0.1942 -0.3143 -0.2751
18246W        W33377   0.854   3.276  13.839 -0.0157 -0.2002 -0.0179
18247W        W33378   6.877  10.114   0.503  0.1912 -0.0763  0.0320
18248W        W33379   7.413  11.091  11.969  0.2020 -0.0664  0.0265
18249W        W33380  16.850  11.969  11.276 -0.0374  0.1444 -0.0808
18250W        W33381  11.272   1.022   1.040  0.0807 -0.1054  0.1731
18251W        W33382  18.043  17.141   3.202  0.1563  0.2056  0.1709
18252W        W33383  15.946   5.205  14.142  0.3114  0.2433 -0.3471
18253W        W33384   4.188  12.220   4.334 -0.0411  0.0415  0.3197
18254W        W33385   6.846   5.055  13.402  0.0687  0.2036 -0.0085
18255W        W33386   8.837   3.804  15.822  0.0367 -0.2880  0.0850
18256W        W33387  12.453   8.841  10.957  0.1133  0.2092  0.0861
18257W        W33388   6.803   3.290  16.029 -0.0595  0.1561 -0.0664
18258W        W33389   3.963  12.029   5.147  0.0867  0.0241  0.0582
18259W        W33390   1.650   6.129   0.042 -0.2436 -0.4911 -0.0015
18260W        W33391  10.965   7.888   2.217 -0.0028 -0.1111  0.0293
18261W        W33392   9.439   4.865  10.535  0.2589  0.2395 -0.2990
18262W        W33393   8.004   7.682  15.262  0.0745  0.2695  0.0836
18263W        W33394  11.168   0.898  14.370 -0.1379  0.1514 -0.2472
18264W        W33395   4.140   9.524   3.825 -0.0788 -0.0768 -0.0650
18265W        W33396  12.827  13.138  15.508 -0.2756 -0.0135 -0.0850
18266W        W33397  16.705  13.901  16.159  0.3268 -0.0310  0.0513
18267W        W33398  18.082   9.466  16.384 -0.2012 -0.1065 -0.4102
18268W        W33399  15.111  14.352  15.688  0.0716 -0.0804 -0.0541
18269W        W33400   2.319  10.095   3.515 -0.1072 -0.0757  0.0270
18270W        W33401   0.197   1.619   4.548 -0.0627  0.0786  0.2446
18271W        W33402  14.190   6.736   0.762 -0.0349  0.0887 -0.1919
18272W        W33403  10.392   4.338   0.848 -0.4874 -0.0782  0.1994
18273W        W33404  10.943  13.758   3.655 -0.1728 -0.0863 -0.1506
18274W        W33405   7.176   9.466   4.779 -0.3049 -0.0472 -0.1262
18275W        W33406  16.207  17.413   2.749 -0.0826  0.1379  0.2116
18276W        W33407   6.540   9.428   5.417 -0.1224  0.1350 -0.2640
18277W        W33408   4.141   3.594   5.166 -0.2207 -0.1461 -0.1982
18278W        W33409  14.055   0.317   3.392 -0.0341 -0.0206  0.2179
18279W        W33410  12.670  15.125   5.613 -0.3716  0.0368 -0.0373
18280W        W33411   5.379   2.489   2.229 -0.1468 -0.0412  0.2621
18281W        W33412  12.721  16.746  13.527  0.2975 -0.1666  0.1442
18282W        W33413  16.956   2.039   3.806 -0.0565  0.1828  0.2770
18283W        W33414  14.827   5.042   0.324  0.1206 -0.0378 -0.0007
18284W        W33415  16.690   8.007   4.617  0.4203  0.3181  0.0808
18285W        W33416  12.214   9.413   3.346  0.1137 -0.1218 -0.0275
18286W        W33417   1.397   6.733   3.705 -0.0977  0.1447 -0.1355
18287W        W33418  13.949   9.354  12.839  0.2082 -0.0377 -0.0733
18288W        W33419  15.353  14.467  10.510 -0.0116  0.2031 -0.2042
18289W        W33420   4.946   7.783  14.079 -0.1654 -0.1654 -0.4466
18290W        W33421   4.291   6.481  13.499 -0.1525  0.1383 -0.2654
18291W        W33422   1.015  12.671  15.821  0.1632 -0.1770 -0.3374
18292W        W33423   6.144  16.262  16.115 -0.5170  0.2203 -0.2387
18293W        W33424   6.035   2.171  13.854 -0.1526 -0.0872  0.1820
18294W        W33425   2.149  12.407   2.625 -0.1052  0.1197 -0.1500
18295W        W33426  10.754   2.987   2.341 -0.1170 -0.2858  0.3415
18296W        W33427  11.042   2.014  16.083  0.1304 -0.3790 -0.0040
18297W        W33428   4.766   9.199  13.693  0.0615 -0.1726  0.3459
18298W        W33429  16.816  14.176  10.464  0.2866  0.0015 -0.2735
18299W        W33430  13.028   9.054   2.909 -0.1075 -0.1537  0.0885
18300W        W33431  17.305  15.617  12.832  0.0158  0.0551  0.0114
18301W        W33432  14.854   3.187  13.767 -0.1433 -0.0282 -0.2035
18302W        W33433  12.595  15.286   0.956  0.0768 -0.2712 -0.1569
18303W        W33434   4.917   8.519   1.656 -0.2341  0.0410  0.0139
18304W        W33435  14.457   6.555   0.321 -0.0257 -0.0556  0.1938
18305W        W33436   2.531   3.701  14.328  0.1301 -0.0503 -0.1601
18306W        W33437   9.513   5.030  15.158 -0.3323  0.2466  0.0936
18307W        W33438   7.990  12.093   5.456  0.0233 -0.1729 -0.1499
18308W        W33439  15.270   1.725  13.206  0.0249 -0.1257 -0.2562
18309W        W33440   8.747   1.095  11.108 -0.2202 -0.0629  0.2691
18310W        W33441   0.389  11.039  14.318  0.1896 -0.2832  0.0879
18311W        W33442  11.438  17.084   1.972 -0.1209 -0.1040 -0.2284
18312W        W33443   1.398   6.297   4.115 -0.0222 -0.1435  0.3442
18313W        W33444  17.851   2.733   2.386  0.1210  0.0177  0.1278
18314W        W33445   7.495   2.424  12.772 -0.1257 -0.1214 -0.0972
18315W        W33446   1.218  12.278   3.797  0.1098  0.4089  0.0097
18316W        W33447  10.217   2.268   3.588 -0.0244 -0.2315  0.1457
18317W        W33448  16.748  13.338  14.931 -0.0388  0.2451  0.0966
18318W        W33449   1.902   9.787   5.697  0.3082 -0.2723  0.2152
18319W        W33450   4.183   4.324   2.848  0.1589  0.0576 -0.0096
18320W        W33451   6.539   1.326  15.595  0.6388  0.3130  0.1229
18321W        W33452  14.272  13.701   2.029  0.0794  0.0076 -0.0426
18322W        W33453   0.175   1.614   3.577  0.1662  0.1446 -0.2801
18323W        W33454  10.398  14.444   1.441  0.0397  0.1618 -0.1374
18324W        W33455   8.008   2.449   0.409 -0.2738  0.0392  0.4145
18325W        W33456   8.440   2.151   0.282 -0.0387  0.2702 -0.0233
18326W        W33457  11.815   4.799   4.313  0.1160 -0.2343  0.1988
18327W        W33458  17.346   2.008  16.454  0.3815 -0.1628  0.0503
18328W        W33459  17.477  16.059  11.671 -0.2731 -0.1807 -0.0341
18329W        W33460  17.954  12.589   3.512  0.1828 -0.3816 -0.3682
18330W        W33461  11.234  18.024  16.181 -0.5080  0.1408  0.3659
18331W        W33462  13.119  11.565  16.018 -0.0465  0.2655 -0.0458
18332W        W33463   5.079  12.606  15.750 -0.0846  0.1291  0.0018
18333W        W33464   3.629  17.302   3.664 -0.0647  0.2852  0.0707
18334W        W33465  10.932   4.815   2.880 -0.3154  0.0065  0.0844
18335W        W33466   8.119   8.982   2.541  0.1549  0.0985 -0.5541
18336W        W33467   4.620   3.526   5.190 -0.2142 -0.1494 -0.0843
18337W        W33468  16.319   5.242   1.596  0.0994 -0.2685  0.0392
18338W        W33469  17.897  13.165  11.420  0.0879 -0.3575  0.2873
18339W        W33470   7.492  12.573   1.331  0.1514  0.0739  0.3051
18340W        W33471   1.265   8.649  11.629 -0.2130 -0.3583 -0.0494
18341W        W33472   7.852  10.562  13.121  0.3438  0.0424 -0.0999
18342W        W33473  15.172  11.897   2.170  0.0378  0.1778  0.2342
18343W        W33474   3.843  16.815   3.738  0.3483  0.0454 -0.1836
18344W        W33475   0.429   5.779   2.631 -0.1361  0.2112  0.3727
18345W        W33476   6.843   8.365   3.566  0.1935 -0.0416 -0.2220
18346W        W33477  17.637  11.219  12.270  0.0685 -0.0897  0.1459
18347W        W33478   0.912   2.128  12.213 -0.0964 -0.0065 -0.3422
18348W        W33479   7.545  13.947   1.988  0.1836  0.2734 -0.1787
18349W        W33480   5.471  10.966   2.700 -0.0953 -0.1620 -0.4447
18350W        W33481   9.750  10.605   3.330  0.0527 -0.2122 -0.3104
18351W        W33482  17.574  15.760   6.348 -0.0451 -0.2496 -0.0378
18352W        W33483   0.532   3.511   2.171  0.0553  0.3557 -0.1637
18353W        W33484   2.386  13.815   1.093 -0.3182  0.1572  0.2447
18354W        W33485   7.876   9.622  10.521 -0.2187  0.1830 -0.0311
18355W        W33486   5.192  13.059  14.319  0.3697  0.1672  0.1192
18356W        W33487   9.018   9.996  14.137  0.0171  0.1947 -0.3203
18357W        W33488   0.401   7.516  11.735  0.2935  0.0456 -0.2619
18358W        W33489   4.350  16.081   0.796  0.5251 -0.0838  0.0099
18359W        W33490  11.578  16.998  12.037 -0.1313  0.1176 -0.1770
18360W        W33491  16.229  11.189  14.024 -0.0391  0.1042  0.1956
18361W        W33492   1.980   9.692  12.877 -0.0453 -0.3731  0.0506
18362W        W33493   0.077  13.032  16.448  0.1266 -0.3996  0.2413
18363W        W33494   4.553  14.905  12.717  0.0770  0.0321  0.0841
18364W        W33495   9.279  10.276  10.919 -0.0175 -0.0073  0.1751
18365W        W33496   6.841   7.150   4.847  0.1523  0.1741 -0.1551
18366W        W33497  16.931   9.885  14.011 -0.0542  0.2074  0.5602
18367W        W33498  12.549   7.751   4.457  0.0603 -0.1779 -0.1437
18368W        W33499   5.246   1.804  15.302  0.1126 -0.0296 -0.1219
18369W        W33500  15.197   5.555  11.668 -0.4066 -0.2205 -0.1690
18370W        W33501  16.382   3.489   5.670  0.3202  0.0342 -0.1003
18371W        W33502   9.808   1.683  11.880 -0.0512  0.0873 -0.0039
18372W        W33503   5.770   8.261   1.374  0.1213 -0.1839 -0.3338
18373W        W33504  11.943   7.299   0.124  0.0930  0.0300  0.2680
18374W        W33505   7.256  12.064   3.259 -0.0116 -0.0029  0.0625
18375W        W33506   7.264   2.098   2.857 -0.0653  0.1937 -0.2435
18376W        W33507   9.751   2.716   1.013 -0.1455  0.2644  0.2242
18377W        W33508   2.291  14.577  11.470  0.2489 -0.0113 -0.2605
18378W        W33509   7.242  15.853   1.053  0.0348 -0.0284  0.0368
18379W        W33510  11.616  16.911   4.585 -0.2985 -0.2233 -0.0110
18380W        W33511  14.130  15.525  15.311 -0.0300  0.3757  0.2462
18381W        W33512   2.571   5.131   1.250 -0.1257  0.1607 -0.1206
18382W        W33513  10.747   7.032   1.730  0.2910 -0.0169 -0.2270
18383W        W33514   5.384  11.496   1.980 -0.0775  0.0227 -0.0797
18384W        W33515   7.098   8.488   1.726  0.0028 -0.0653  0.1245
18385W        W33516  10.904  14.230   0.820  0.0909 -0.1229  0.1322
18386W        W33517  14.494  17.496  14.341 -0.2206 -0.3023 -0.0307
18387W        W33518   8.642  12.147  13.811 -0.0032  0.1728 -0.1600
18388W        W33519  14.976   4.760  15.393  0.2577 -0.0961  0.1013
18389W        W33520   6.829  12.170  14.464 -0.0312 -0.0593  0.0586
18390W        W33521   4.838   4.740  15.842 -0.0617  0.0989 -0.0258
18391W        W33522   5.572   0.330   0.793 -0.2629  0.3114  0.0010
18392W        W33523   1.061   0.343  11.921  0.1484  0.4180 -0.3082
18393W        W33524   2.747   0.855   0.319  0.1321 -0.2646  0.0062
18394W        W33525   9.300  11.081   0.038  0.2160 -0.1224 -0.3927
18395W        W33526  16.720   9.509   2.711  0.0262  0.1843  0.3772
18396W        W33527  12.769   8.684  12.792  0.0762  0.2164  0.1073
18397W        W33528  15.075  12.781  13.015 -0.3115  0.2198 -0.1228
18398W        W33529  13.006   5.781   2.371 -0.0906 -0.1139  0.3580
18399W        W33530  17.620  14.098   3.820 -0.1465 -0.3452  0.3109
18400W        W33531   0.618  12.372   0.169  0.0692  0.1372  0.1427
18401W        W33532   3.409   4.305   2.134 -0.1774  0.0186  0.4715
18402W        W33533  11.799   4.150  15.590 -0.5288  0.0376 -0.1161
18403W        W33534  17.522   2.144   0.877 -0.0982 -0.2221  0.2596
18404W        W33535   8.000  13.355  15.976 -0.0160  0.1720  0.2178
18405W        W33536   0.127   1.044   0.356  0.0296 -0.2782 -0.1906
18406W        W33537   1.726  14.893   3.700 -0.0496 -0.0142 -0.0996
18407W        W33538  13.211  15.320  14.983  0.1637  0.1549 -0.0974
18408W        W33539   0.870   4.901  14.919  0.2413 -0.1323  0.2035
18409W        W33540  11.590   0.791  13.176 -0.1082 -0.4805 -0.0102
18410W        W33541   3.772   5.453   4.569  0.0538  0.0221 -0.0973
18411W        W33542  12.137  16.709  14.368  0.0494  0.2216  0.1705
18412W        W33543   9.158   8.197  15.016 -0.0342  0.1353  0.0641
18413W        W33544  14.546  12.143  12.485 -0.0647 -0.0076 -0.1146
18414W        W33545   7.938   2.460   3.948 -0.2234  0.0972  0.0073
18415W        W33546   1.966   3.113  14.851 -0.0609 -0.2876  0.2421
18416W        W33547  17.349  13.195  16.119  0.2794  0.2202  0.2574
18417W        W33548  17.506  15.950   3.253 -0.1994 -0.2912 -0.1667
18418W        W33549   3.935   3.811   4.791 -0.0997 -0.0549  0.1109
18419W        W33550   1.275  14.193  11.427  0.1312 -0.2230  0.2162
18420W        W33551   7.260   2.212  11.751 -0.0206 -0.1849 -0.2659
18421W        W33552  13.688   4.284   3.467 -0.0400 -0.1459  0.0004
18422W        W33553   4.013   9.241   0.900  0.1234 -0.0095  0.1683
18423W        W33554   0.630   7.331   4.189 -0.0715 -0.1882  0.0374
18424W        W33555   9.244   5.610  14.943  0.0896  0.1928  0.2652
18425W        W33556   7.448   1.337  12.341 -0.0263  0.0187 -0.1656
18426W        W33557   2.211  13.977   0.064  0.0220 -0.0878 -0.1484
18427W        W33558  16.444   0.960  14.560 -0.0980  0.2691  0.1309
18428W        W33559   6.673   4.511   1.614 -0.1839 -0.2384  0.0141
18429W        W33560  10.359  16.909   3.930  0.1396 -0.1385  0.1060
18430W        W33561  10.003  12.455  13.123 -0.2594  0.0805 -0.0616
18431W        W33562   3.151   2.354  14.883  0.0879 -0.2017  0.0401
18432W        W33563   9.215   7.563   2.531  0.1189 -0.1999 -0.1553
18433W        W33564  16.434   6.285  15.906  0.0906 -0.1965 -0.0572
18434W        W33565   7.587   2.109  15.343  0.1196 -0.1957 -0.0574
18435W        W33566   7.980   7.492  14.018 -0.0093  0.3404 -0.2833
18436W        W33567   5.451   5.687   4.150  0.2148  0.1642 -0.1798
18437W        W33568   3.053   9.965  15.407 -0.0748  0.2945 -0.1845
18438W        W33569  17.013   2.552  11.436 -0.2166 -0.0680  0.2436
18439W        W33570   6.053  10.092  11.986 -0.1852  0.3220 -0.2446
18440W        W33571   9.184  14.683   1.891 -0.4483 -0.0336 -0.3125
18441W        W33572   7.099   4.454  12.161 -0.2320 -0.4376  0.1453
18442W        W33573  14.701  17.800  16.262 -0.0313  0.4407  0.1158
18443W        W33574  16.994  10.307   5.921 -0.2572  0.0085 -0.1188
18444W        W33575   0.054  16.348   3.484 -0.1025 -0.2756 -0.1523
18445W        W33576   8.447   1.256  14.541  0.1392  0.0355  0.2889
18446W        W33577  16.822   6.542  13.369 -0.2235  0.0874  0.3706
18447W        W33578   5.039  12.156  12.590 -0.1551  0.0016  0.2108
18448W        W33579   1.533   4.777  10.156  0.0872 -0.1107  0.1292
18449W        W33580   9.287  12.528  16.394 -0.2944 -0.0077  0.2486
18450W        W33581   2.017   9.340  12.468 -0.1680  0.1245  0.0595
18451W        W33582   4.261  10.312  13.611 -0.1761 -0.0761  0.1816
18452W        W33583  17.877  15.302  16.341 -0.0237  0.1701  0.1187
18453W        W33584   9.610  17.121  10.269  0.2713 -0.2180 -0.1453
18454W        W33585  12.506  16.369   1.985  0.0872  0.2909  0.1685
18455W        W33586   8.387  15.892  11.954  0.2723  0.0330 -0.1278
18456W        W33587   8.149   0.464  13.111 -0.0158  0.1623  0.0864
18457W        W33588  10.942   8.644   0.377 -0.1562  0.0764 -0.0650
18458W        W33589   8.042   6.346   1.457 -0.0297  0.0818 -0.0036
18459W        W33590   3.554  10.536   5.068  0.1683  0.2262  0.0054
18460W        W33591   3.292   9.914  14.023  0.0169 -0.0006  0.0809
18461W        W33592  13.777  15.368  14.886 -0.0152 -0.0223  0.3076
18462W        W33593   9.204  10.649   3.947 -0.1948 -0.0687  0.1406
18463W        W33594  15.981   5.966   0.495 -0.1438 -0.1487 -0.0217
18464W        W33595   6.824   2.205  15.513 -0.3951  0.0947 -0.0888
18465W        W33596  15.449   2.119  15.225 -0.2157  0.0981  0.1287
18466W        W33597   6.249   5.711   1.637  0.0721  0.0277 -0.0003
18467W        W33598   2.341   8.140  12.507  0.0387  0.4062 -0.3545
18468W        W33599  11.123   2.638   0.003 -0.0270 -0.1261 -0.0553
18469W        W33600  16.965   3.719   6.357  0.1410 -0.0808 -0.3319
18470W        W33601  15.218   3.635  15.000 -0.0723  0.0755 -0.0287
18471W        W33602   7.283  13.990  11.644  0.0984  0.2883 -0.2226
18472W        W33603  15.323   6.130  13.416  0.1758  0.0452  0.0404
18473W        W33604   7.699  13.779  12.656 -0.1053 -0.2344  0.1148
18474W        W33605   9.687  12.978  10.952 -0.0940 -0.0691 -0.0556
18475W        W33606   4.814   0.370  11.463  0.3171 -0.2694  0.0185
18476W        W33607  13.316  16.319  10.449 -0.1372 -0.2056  0.5438
18477W        W33608   2.953  11.450   0.427  0.0240 -0.0497 -0.1640
18478W        W33609   5.816   1.379   1.307 -0.1508 -0.1841  0.2737
18479W        W33610   9.239  16.380   4.424  0.0772 -0.2031  0.2533
18480W        W33611  17.855   7.247   4.357 -0.0161 -0.1395  0.1361
18481W        W33612   1.490   9.966  12.715  0.2998 -0.0724 -0.1275
18482W        W33613   8.276  15.632   2.391 -0.0093  0.1142 -0.0345
18483W        W33614   1.405  10.632   2.370 -0.0455 -0.1782 -0.1282
18484W        W33615  10.141  14.436   2.730  0.0664 -0.0110 -0.3464
18485W        W33616   8.253   3.825  15.931 -0.3940 -0.2548  0.1239
18486W        W33617   1.680  16.017  12.273  0.0249 -0.3801  0.0522
18487W        W33618   0.449   0.783   0.066  0.2520 -0.1062 -0.2235
18488W        W33619  13.717  14.876   4.264  0.0746  0.2313 -0.2731
18489W        W33620   9.048   2.508  14.258  0.2297 -0.0335 -0.2609
18490W        W33621  10.217   8.126  11.944  0.3783 -0.0889  0.0358
18491W        W33622  10.983  17.431   0.287  0.0231 -0.1237 -0.0181
18492W        W33623   7.943  14.511  14.187 -0.0369  0.1803 -0.1969
18493W        W33624  16.006   3.907   3.265 -0.3641 -0.1483 -0.0722
18494W        W33625  10.431  13.541   3.287  0.0571  0.0454 -0.2369
18495W        W33626  16.744   1.671  15.363 -0.1328  0.1553  0.1687
18496W        W33627   4.939  17.268  15.128 -0.3242 -0.0756  0.1920
18497W        W33628   9.395   8.996  15.373  0.2351  0.2624  0.3184
18498W        W33629   8.386   7.024   4.259  0.1057 -0.1507  0.0771
18499W        W33630  13.124   5.659  13.999 -0.0103  0.4201 -0.0341
18500W        W33631  13.565   9.816   0.181 -0.0396 -0.3704  0.1088
18501W        W33632  14.929   4.960   3.070  0.2975  0.1342 -0.2187
18502W        W33633  17.007  15.645   0.462 -0.0010 -0.0484  0.0852
18503W        W33634  11.602  15.463  13.050  0.1480 -0.0239  0.1517
18504W        W33635   8.715   0.015   1.030  0.0316  0.0729  0.0089
18505W        W33636   5.145  17.659  12.617  0.0396  0.3037 -0.0009
18506W        W33637  16.555  16.612  10.378 -0.0191 -0.0619  0.0865
18507W        W33638   7.321  17.050   2.672  0.4499 -0.1304 -0.2468
18508W        W33639  12.859  16.945   4.671 -0.1448 -0.1598  0.0426
18509W        W33640  11.139  16.687   4.280 -0.1007 -0.0075 -0.0641
18510W        W33641  15.807   4.736  16.418  0.0498  0.0644  0.1753
18511W        W33642  10.264   6.986  13.278  0.2084  0.3071 -0.0327
18512W        W33643   8.066   7.282   5.608  0.0990 -0.3368 -0.1338
18513W        W33644   2.723  15.521  14.808 -0.1048  0.2750  0.1985
18514W        W33645  11.732   6.178   5.890  0.2780 -0.0580 -0.1969
18515W        W33646  17.901  16.416   4.541 -0.0767  0.1525  0.1133
18516W        W33647   6.742   6.829  11.408 -0.1693  0.2233 -0.1537
18517W        W33648   1.880  10.601   2.204 -0.1507  0.0339 -0.1126
18518W        W33649  17.832  16.164   5.022  0.1410  0.0267 -0.1415
18519W        W33650   0.760   8.934   1.570  0.0555  0.0494 -0.2945
18520W        W33651  16.454   8.505  13.498  0.0233 -0.1378  0.1519
18521W        W33652   4.067   2.365  14.929 -0.0616  0.1202 -0.0727
18522W        W33653   9.163   2.995  12.823 -0.0350  0.0222  0.2106
18523W        W33654   5.829  16.622  14.702 -0.0221  0.2287  0.2320
18524W        W33655   4.026   7.750   4.774  0.1708  0.2813 -0.0316
18525W        W33656   0.955  17.378   1.365  0.2026 -0.0603 -0.0850
18526W        W33657   2.271  15.379   3.125  0.0293  0.2377  0.0261
18527W        W33658  13.660  12.191   1.293 -0.1704 -0.0524 -0.2536
18528W        W33659  16.063   8.254   4.782  0.3444  0.0578  0.2508
18529W        W33660   7.954   8.109  12.998  0.3375  0.0021  0.0555
18530W        W33661  18.011   5.819  15.454  0.0635  0.3908  0.1315
18531W        W33662  14.225   0.934  13.479  0.1857 -0.1506 -0.0433
18532W        W33663   3.651   6.330   5.087 -0.2649 -0.2548 -0.1544
18533W        W33664  16.760   5.118   5.038 -0.1435 -0.0573 -0.4071
18534W        W33665  14.521  17.898   1.674 -0.3124 -0.5173  0.2790
18535W        W33666   7.455  13.046   1.628 -0.2292 -0.2184  0.1822
18536W        W33667  11.757   1.562  16.327 -0.2506 -0.3154 -0.4291
18537W        W33668   6.238   1.371  14.090  0.0670  0.1810 -0.0571
18538W        W33669   3.731  10.875   1.081 -0.0380  0.1041  0.0532
18539W        W33670   2.629   9.842  13.268  0.0240  0.1214 -0.1848
18540W        W33671  11.170   7.372   2.637  0.0276 -0.2525 -0.1804
18541W        W33672  15.564   6.849  12.779  0.0350  0.1426 -0.0591
18542W        W33673  17.978   8.806   1.554  0.1287 -0.4680 -0.0703
18543W        W33674  11.893   6.419   3.974 -0.2018  0.2621  0.2380
18544W        W33675   0.621  14.558  12.082  0.0542 -0.1565 -0.0970
18545W        W33676   7.731  16.328  11.571  0.1852  0.0290  0.1153
18546W        W33677  10.706  13.261   5.531 -0.1658  0.0789 -0.2267
18547W        W33678   5.756   4.130  12.837  0.3088 -0.4035  0.0501
18548W        W33679   0.155   1.702   3.036  0.0568 -0.2000  0.4536
18549W        W33680  14.937   2.272  15.283  0.1515 -0.0580 -0.0710
18550W        W33681   5.016  11.722  10.705  0.3705 -0.1408  0.0538
18551W        W33682   9.389  17.033  13.334 -0.2249 -0.0302  0.4995
18552W        W33683   5.869  15.828   4.407 -0.2693  0.1627 -0.3837
18553W        W33684   6.386   3.559  11.114 -0.1472 -0.0616  0.0707
18554W        W33685   8.646  12.103  12.803 -0.1169  0.0023 -0.3680
18555W        W33686   6.276   3.429  16.136 -0.0689 -0.1791  0.2873
18556W        W33687  17.623   0.098  15.244  0.1449  0.0048  0.0535
18557W        W33688  17.214  15.614   2.394  0.2716 -0.0418  0.0456
18558W        W33689   0.368   4.309  13.633  0.2255  0.1567 -0.3431
18559W        W33690  14.774  15.812   1.504 -0.1157  0.0495 -0.4169
18560W        W33691  14.794   0.666   0.914  0.1180  0.0692 -0.1402
18561W        W33692   1.870   8.968  12.770 -0.1167  0.2106  0.0079
18562W        W33693   5.175  10.003  13.935 -0.0743  0.0186 -0.0101
18563W        W33694   0.926   9.439   2.192 -0.0227  0.2406 -0.1036
18564W        W33695  13.582   4.405  11.231  0.3381  0.0509  0.0068
18565W        W33696   5.238   5.947   4.992 -0.2731 -0.0274 -0.2432
18566W        W33697   7.538  12.748  12.953  0.1395 -0.0281  0.0657
18567W        W33698   6.963  11.660   1.116  0.1261  0.0928 -0.0457
18568W        W33699  10.566  17.502  13.695  0.1461  0.1526  0.1667
18569W        W33700   2.351   0.171   2.204 -0.0015  0.2262  0.1440
18570W        W33701  12.881  14.424  11.963 -0.0870  0.0229  0.0259
18571W        W33702   5.035   8.877   3.311  0.1565  0.0572 -0.3419
18572W        W33703   5.912  10.295   3.793  0.2154  0.1191  0.1048
18573W        W33704   3.655   2.413   2.258  0.2770  0.0916  0.0058
18574W        W33705  14.596  13.446   6.435 -0.0894  0.3165 -0.0151
18575W        W33706   5.625   7.182  13.131  0.1834  0.3144  0.1438
18576W        W33707   8.071  16.453   6.085 -0.0930  0.2785  0.1889
18577W        W33708  10.901   5.724  11.280 -0.2071  0.0293 -0.2726
18578W        W33709   3.930  10.929  12.137  0.4204 -0.0129 -0.1667
18579W        W33710   3.702  10.925   2.473 -0.0146  0.0999  0.2414
18580W        W33711   0.411   6.233  15.777  0.2123 -0.0680 -0.1273
18581W        W33712   1.587   7.425   0.938  0.1277 -0.0187  0.0899
18582W        W33713   9.884  17.803  15.318  0.0534  0.0755  0.0189
18583W        W33714   2.127   6.044   3.699 -0.1621  0.0731 -0.1215
18584W        W33715   5.500   8.207  15.198 -0.0663 -0.0769  0.0661
18585W        W33716   0.792  10.164   2.375  0.0954  0.3656 -0.1034
18586W        W33717  13.931  10.156   5.162 -0.0901 -0.2403 -0.0781
18587W        W33718   0.007  12.164  15.264  0.2995 -0.2067  0.4511
18588W        W33719  17.333  11.084   3.652  0.1135  0.0833  0.1473
18589W        W33720   1.989  11.555   0.431 -0.1046  0.0436 -0.3600
18590W        W33721  14.088   0.357   4.870  0.0371 -0.2859 -0.1422
18591W        W33722   8.824   6.205  14.463  0.0235 -0.1397  0.1299
18592W        W33723   6.501   6.832  13.798 -0.0277 -0.1705 -0.0912
18593W        W33724   7.356  17.287   3.129  0.2738 -0.1073 -0.1009
18594W        W33725   0.161   0.220  11.068 -0.1082 -0.0884 -0.2785
18595W        W33726  11.405  13.125   6.008  0.2981 -0.3519 -0.0909
18596W        W33727   6.527   5.014   2.207  0.1989  0.3082  0.0852
18597W        W33728   1.852   3.199   3.364 -0.1574  0.1080  0.1813
18598W        W33729  14.053  16.767   2.533 -0.1261  0.1473  0.0939
18599W        W33730  16.187  15.738  14.804  0.1495 -0.0626  0.1663
18600W        W33731  12.031  13.742  14.517 -0.1766 -0.2732 -0.0214
18601W        W33732   1.812  11.739   2.080 -0.0480 -0.2993  0.1076
18602W        W33733   7.048  16.819  10.841 -0.0865 -0.0363  0.2670
18603W        W33734  11.418   6.324   3.379 -0.0549 -0.1594  0.0227
18604W        W33735  17.100   4.477   4.110  0.4186  0.1007 -0.2222
18605W        W33736   8.486  14.845  15.199 -0.1514  0.3607  0.2741
18606W        W33737   1.910  15.482   2.378  0.1290 -0.0373 -0.1421
18607W        W33738   6.116   6.600   0.114  0.3428 -0.1044 -0.0457
18608W        W33739   4.739  15.717   3.663  0.1418  0.2382  0.2332
18609W        W33740   1.342   5.041   3.071  0.2557  0.0559  0.0065
18610W        W33741  12.511  11.359   4.636  0.1734 -0.1021 -0.1925
18611W        W33742  11.096   2.336  12.470 -0.2104  0.1688 -0.1462
18612W        W33743  13.488  13.321   2.506 -0.0548 -0.2912 -0.2459
18613W        W33744   9.061   6.905  16.192  0.0604  0.2340 -0.1343
18614W        W33745   1.120   3.616  16.300 -0.0615  0.0824 -0.0657
18615W        W33746  15.510  17.585  12.608  0.3409 -0.0408 -0.2585
18616W        W33747  14.980  13.401  14.855  0.1655  0.0247  0.0786
18617W        W33748   0.214  13.761   3.130  0.0412  0.1411 -0.0793
18618W        W33749   0.516   1.658  13.212 -0.0406  0.0219 -0.3546
18619W        W33750  10.835   5.090   0.560 -0.2398  0.0710  0.6963
18620W        W33751  13.173   3.207   0.149  0.4353  0.2932  0.1768
18621W        W33752  17.020   5.987  15.400  0.0223  0.3488 -0.0757
18622W        W33753   9.608  12.917   2.331  0.0377 -0.2319  0.0418
18623W        W33754  15.049  12.595  11.428 -0.1933 -0.1023  0.0737
18624W        W33755  10.874  10.756   5.554  0.0733 -0.1480 -0.1775
18625W        W33756  17.129   7.370  16.019  0.0084 -0.1566  0.1336
18626W        W33757   8.494  12.117   3.464  0.2078  0.0533 -0.2006
18627W        W33758  15.661   2.963   5.071  0.0599 -0.2937  0.0988
18628W        W33759   7.284  14.772   0.765  0.3740  0.2382  0.1115
18629W        W33760  14.354  11.761  12.812  0.0269  0.2120  0.2022
18630W        W33761   5.203   5.564   5.881 -0.0004 -0.0275 -0.1533
18631W        W33762   6.857   2.625   4.799  0.1031 -0.3428  0.2679
18632W        W33763   7.877  12.948  13.397 -0.1427 -0.2543  0.1957
18633W        W33764   9.043   9.752  15.841 -0.0124  0.1267  0.0398
18634W        W33765  13.601   2.150   0.992  0.2399 -0.0415  0.0456
18635W        W33766   4.925   1.090  12.810  0.1985 -0.1725  0.0026
18636W        W33767  15.459   2.984   0.873  0.2444 -0.3549 -0.1236
18637W        W33768   4.853   1.905   1.960  0.0529  0.0915 -0.2103
18638W        W33769   9.208   8.682   1.168 -0.3558 -0.3575  0.3372
18639W        W33770   6.968  10.029  13.399 -0.1914 -0.1035  0.3324
18640W        W33771   3.552   0.752  16.375 -0.2937 -0.2781 -0.0393
18641W        W33772   6.786  18.013   6.133 -0.1980  0.1659 -0.0654
18642W        W33773   7.090   3.647   1.772 -0.1514 -0.1970  0.0572
18643W        W33774  14.267  11.217  14.262 -0.2878 -0.3126 -0.0257
18644W        W33775   7.984  10.024  13.484  0.2649  0.0297 -0.0563
18645W        W33776  17.303   7.949  12.316  0.0515 -0.1905 -0.1866
18646W        W33777   0.847  13.915   5.528 -0.1157  0.0250  0.3059
18647W        W33778  16.022  16.446   1.874 -0.0722  0.0240 -0.4203
18648W        W33779  11.202  14.361  15.862 -0.0446  0.2312 -0.0392
18649W        W33780  17.000  16.974  14.204  0.4931 -0.0159 -0.0067
18650W        W33781   2.658   6.660  12.384  0.1423  0.1928 -0.3489
18651W        W33782  11.740  16.592  14.009 -0.0602 -0.1428  0.0505
18652W        W33783   9.251   8.075   0.901  0.1280 -0.0804 -0.1098
18653W        W33784  16.283   5.208   5.195 -0.0170 -0.1072 -0.0466
18654W        W33785  15.337  11.619  14.854 -0.1015  0.1220  0.0045
18655W        W33786  17.333  15.151   1.874 -0.0358  0.1218  0.3923
18656W        W33787  11.853   4.528   2.229  0.0786 -0.3494 -0.1274
18657W        W33788   2.670  10.362   2.912  0.2080 -0.0001 -0.0555
18658W        W33789  12.475   1.475  12.466  0.0916  0.2311  0.1978
18659W        W33790  10.636  10.780  12.852 -0.0678 -0.0081 -0.4034
18660W        W33791   0.335  10.356  11.767  0.0230 -0.2094  0.1606
18661W        W33792   7.078  14.582  13.023 -0.3573  0.0263  0.0031
18662W        W33793   1.892  17.751   0.062 -0.1930  0.0635 -0.0519
18663W        W33794   4.241  10.054  11.093  0.0145 -0.1411  0.2018
18664W        W33795   3.490  11.405  16.394  0.0408 -0.0043  0.2400
18665W        W33796   4.942  10.961  16.427  0.2659 -0.0082  0.2371
18666W        W33797   0.129  16.866  13.390  0.0723 -0.1268 -0.1442
18667W        W33798  14.402   8.707   0.325 -0.1938 -0.1073  0.0014
18668W        W33799   0.291   8.709   0.730  0.0421  0.0803 -0.0902
18669W        W33800   1.869  15.320   4.000  0.1603 -0.3079  0.1906
18670W        W33801  12.369   4.464   1.523 -0.1709 -0.0966 -0.0633
18671W        W33802  13.758   1.066   4.180 -0.1077  0.1609 -0.1204
18672W        W33803  10.609  12.144  16.460  0.2195 -0.1837 -0.3773
18673W        W33804   5.683   1.928  16.244  0.3714 -0.2282  0.0671
18674W        W33805   2.355  16.756   2.638  0.1170  0.2196 -0.0666
18675W        W33806   4.129  15.284   1.869 -0.3012 -0.0764  0.4149
18676W        W33807   9.458   9.192  14.858 -0.0993  0.2673  0.1056
18677W        W33808  16.086  11.472   1.951 -0.1739 -0.3833  0.3949
18678W        W33809   0.546   4.648   1.943  0.0704 -0.1465  0.0122
18679W        W33810  10.270   4.510   4.388 -0.2921 -0.2253 -0.0715
18680W        W33811   8.022  13.868  16.285  0.1070  0.2823  0.0423
18681W        W33812  15.433   9.498  13.635 -0.2532  0.2679  0.1482
18682W        W33813  13.668   1.357  14.990 -0.0445  0.3322  0.1630
18683W        W33814  11.195  12.609  13.310  0.0113  0.2713  0.2111
18684W        W33815   9.644  16.480  15.511 -0.5178  0.0559  0.1723
18685W        W33816  12.251   0.210  14.098  0.1844 -0.1072  0.1805
18686W        W33817   7.769   6.196  12.878 -0.0422 -0.0266  0.0025
18687W        W33818  14.575   8.342  13.218  0.0617  0.0353 -0.1290
18688W        W33819   3.226  12.621   1.973  0.3251 -0.0559 -0.3072
18689W        W33820  13.695   3.117   2.344 -0.3102 -0.0164 -0.1734
18690W        W33821   0.073  14.986   2.888  0.1531  0.0514  0.0109
18691W        W33822   8.408   4.357   4.409  0.1106  0.0760 -0.1742
18692W        W33823   9.914   1.015   5.429 -0.0632 -0.1300 -0.0195
18693W        W33824   1.328   8.812  13.545  0.0156  0.1417 -0.0629
18694W        W33825  17.420   4.557  14.575  0.0656 -0.1506 -0.0833
18695W        W33826  17.469   8.377  14.548 -0.3921 -0.2825 -0.0527
18696W        W33827   4.046  11.649   3.401  0.0591  0.1728 -0.3024
18697W        W33828  14.059  15.870  12.305  0.0615  0.0299 -0.0267
18698W        W33829   0.802  10.101   3.723 -0.5100 -0.2780 -0.1666
18699W        W33830  11.363   7.287  12.885  0.2786  0.1777 -0.0457
18700W        W33831   0.258  10.392  13.850 -0.0673  0.1217 -0.1273
18701W        W33832  12.557   4.170   3.210 -0.1366  0.0652 -0.2057
18702W        W33833  16.768   6.724   2.006  0.1014 -0.1350 -0.3340
18703W        W33834   9.400  13.721   5.054 -0.3208  0.0107  0.1996
18704W        W33835   1.242   2.354  14.975 -0.0689  0.2282  0.1200
18705W        W33836   7.323  10.504  13.110  0.0094 -0.0823 -0.2214
18706W        W33837   2.603  14.235   3.818  0.0064 -0.1035  0.0657
18707W        W33838  17.370   9.954   5.190  0.0135  0.2436  0.1729
18708W        W33839   4.913  16.364   0.495 -0.0377  0.2121 -0.2366
18709W        W33840   4.809   1.302   5.202  0.0872 -0.0519 -0.1979
18710W        W33841  15.776  10.598   5.824 -0.2230  0.0085 -0.3399
18711W        W33842   4.480   7.316   4.284  0.0415 -0.1394 -0.1590
18712W        W33843   2.362   3.731   3.986  0.1685  0.2721 -0.0329
18713W        W33844  10.208   4.835  13.390 -0.2038 -0.0406 -0.0455
18714W        W33845   0.748  17.353   4.058  0.0734  0.2371  0.0449
18715W        W33846  14.184   5.242  16.006 -0.0871 -0.2829 -0.1190
18716W        W33847  15.402  13.259   1.691 -0.0771 -0.1275  0.2194
18717W        W33848   3.386  11.846   1.245  0.3631 -0.0405 -0.0930
18718W        W33849   8.466  13.037  14.713 -0.0808 -0.0114  0.0519
18719W        W33850  10.599   4.967   0.047  0.2268 -0.3339  0.1660
18720W        W33851   8.089   3.402  16.061  0.1196 -0.3614 -0.1976
18721W        W33852   6.994  14.216  14.896 -0.0497 -0.1474  0.1257
18722W        W33853   2.914  13.477   3.434  0.2436  0.0669  0.2324
18723W        W33854   3.957  14.251   3.794 -0.2466  0.0586 -0.2796
18724W        W33855  14.226  13.588  12.905 -0.1645 -0.1368  0.2706
18725W        W33856  14.460  12.131   3.449 -0.1201  0.3443 -0.0136
18726W        W33857   6.358   0.744   2.086  0.0045  0.1003  0.1821
18727W        W33858   2.183   6.051   2.940 -0.0306  0.0387 -0.0740
18728W        W33859   0.597   2.535   2.230 -0.0210  0.1256  0.0775
18729W        W33860  17.367   9.196   4.228 -0.0599  0.1328 -0.3596
18730W        W33861  15.018  14.042   1.793  0.0893  0.0080  0.2762
18731W        W33862   5.283   1.598  16.040  0.1442 -0.2373  0.0155
18732W        W33863   4.330  15.353   0.596 -0.0149 -0.2298  0.1438
18733W        W33864  17.325   8.441  11.993 -0.0040  0.0664 -0.1394
18734W        W33865   7.854   6.915   4.496 -0.0409 -0.0741  0.1388
18735W        W33866   2.955  12.741   2.951 -0.1583 -0.0403 -0.1317
18736W        W33867  14.626   3.268  15.827 -0.0325  0.1637  0.1646
18737W        W33868   0.760  11.641  12.626 -0.1427 -0.1400  0.3791
18738W        W33869  16.973   8.221  14.663 -0.3485 -0.0321  0.1221
18739W        W33870   4.679   8.941  15.908  0.3347  0.1063  0.2144
18740W        W33871   9.894   2.425   3.235 -0.0730  0.1210  0.3627
18741W        W33872  16.538   9.125  16.295 -0.2847  0.2493 -0.0099
18742W        W33873  13.789  15.693   1.653  0.0495  0.2956 -0.0768
18743W        W33874   4.048   8.283   4.928  0.0322  0.3002  0.0837
18744W        W33875  17.042  16.546  15.904 -0.2907 -0.0011 -0.1564
18745W        W33876   5.570   5.248  12.200 -0.2758  0.3259  0.1460
18746W        W33877  12.488   7.212   2.534 -0.2276  0.1612  0.0212
18747W        W33878   2.996   7.016  13.940  0.0276  0.0320 -0.3821
18748W        W33879   0.264   3.200  15.877 -0.3650 -0.3239 -0.0231
18749W        W33880   5.010  14.771  11.450 -0.1643  0.1116 -0.1068
18750W        W33881   6.146  11.869  15.741 -0.2635  0.0470 -0.3471
18751W        W33882   6.091   0.548   5.143 -0.0074 -0.1226  0.0338
18752W        W33883   3.566   1.283   1.432  0.2505  0.2450 -0.0135
18753W        W33884   3.940  10.045   1.504 -0.1608 -0.2241 -0.1672
18754W        W33885   6.022  17.243   3.929 -0.0566  0.1867 -0.3721
18755W        W33886  10.994   2.726  15.524 -0.1028  0.1046  0.1142
18756W        W33887   5.296  15.602  15.285 -0.1062 -0.1159  0.0006
18757W        W33888  14.313   6.350  15.266  0.1665  0.0336 -0.1988
18758W        W33889   7.781  11.064   3.913 -0.0263 -0.1493  0.0360
18759W        W33890   3.107   8.611   0.118 -0.1637  0.2659 -0.0613
18760W        W33891  11.702  11.984  11.957 -0.1630 -0.1175  0.1761
18761W        W33892   8.155  15.916  11.040 -0.0283  0.2177 -0.2325
18762W        W33893   7.606  14.738  14.509 -0.1064 -0.0440 -0.0459
18763W        W33894   2.600   4.536   5.473 -0.1133 -0.1531  0.1893
18764W        W33895  17.695  17.906  13.423  0.2239  0.2350  0.1738
18765W        W33896   3.869   4.998   4.294 -0.2001  0.0299 -0.2802
18766W        W33897  14.137  10.082  12.927 -0.0401 -0.1643 -0.2478
18767W        W33898   7.953   9.023   1.580 -0.0189  0.2878  0.0273
18768W        W33899  12.346   7.968   4.839  0.0686  0.0821  0.0894
18769W        W33900  17.544   4.299   4.043  0.0265 -0.2121 -0.0866
18770W        W33901   7.838  14.815  12.281 -0.0804 -0.3531  0.1412
18771W        W33902   9.649  10.865   3.832 -0.1730  0.1703  0.0855
18772W        W33903   4.311  14.085   3.427 -0.0586 -0.2196 -0.0437
18773W        W33904  11.844  10.186  13.373  0.1483  0.2032  0.1776
18774W        W33905   2.038   6.822  13.570 -0.0341 -0.0485  0.0841
18775W        W33906  17.593   9.844   1.705  0.1073 -0.2073  0.0232
18776W        W33907  17.773   1.520  15.854  0.2028  0.0649 -0.0849
18777W        W33908   0.850  11.516   5.995  0.0455 -0.0193  0.1235
18778W        W33909   5.798  17.728  11.882 -0.0333 -0.0795 -0.1839
18779W        W33910   8.197  10.522  15.198  0.1299 -0.0890 -0.0307
18780W        W33911   4.632   7.677  13.668  0.1704  0.0764 -0.2992
18781W        W33912   7.210  12.332  12.692  0.1820 -0.1304  0.0137
18782W        W33913   4.397   7.713   1.474  0.1722  0.0246 -0.0833
18783W        W33914   6.059   1.987   2.337  0.0110  0.1924 -0.4340
18784W        W33915  11.468   4.284  13.514  0.1169 -0.4762 -0.0264
18785W        W33916  10.252  14.129  14.109  0.2491  0.1762 -0.0198
18786W        W33917  13.671  16.776  16.323  0.0966  0.0923  0.4501
18787W        W33918  16.064  15.092   1.046  0.1904 -0.2659 -0.2087
18788W        W33919   8.466  17.166  16.084  0.7709  0.0997  0.0375
18789W        W33920   8.905  14.557  12.150  0.1084 -0.2574 -0.0008
18790W        W33921   0.805  14.077   3.666  0.0146  0.1772 -0.0510
18791W        W33922   5.254   8.823  12.091 -0.1733 -0.0444  0.0793
18792W        W33923  14.324   4.179   2.908  0.1158 -0.1228 -0.2654
18793W        W33924  14.199  12.339  12.026  0.2164  0.0180  0.1097
18794W        W33925  15.346  17.866  16.455  0.1454  0.2045 -0.2658
18795W        W33926   3.064   4.309  10.760 -0.1529  0.2811  0.0702
18796W        W33927   8.355   9.293  15.750  0.0640 -0.0513  0.0001
18797W        W33928   0.348  13.367  10.336  0.1305  0.2592  0.3662
18798W        W33929   4.081  13.524  12.890 -0.1376 -0.0364 -0.0777
18799W        W33930  12.165  17.734  14.482 -0.0215  0.2400 -0.2330
18800W        W33931   3.836  14.105   5.541 -0.0129 -0.3190 -0.0467
18801W        W33932   4.744   8.917  14.213 -0.1039 -0.1606 -0.0574
18802W        W33933   9.874  12.892   3.468  0.2696 -0.0727 -0.0105
18803W        W33934   5.563  13.247  12.062 -0.2283  0.1298 -0.1035
18804W        W33935   3.402   5.958  12.610  0.0581 -0.2393 -0.0013
18805W        W33936   6.677   8.537   0.434  0.1200  0.1455  0.0393
18806W        W33937   5.289   9.370  13.043 -0.2683  0.1659 -0.1066
18807W        W33938   9.961  11.447   4.640 -0.2114  0.1199  0.0458
18808W        W33939   1.272  17.546  15.249  0.0647 -0.2972  0.2071
18809W        W33940  15.019  15.436  12.101 -0.0148  0.2065 -0.1588
18810W        W33941   5.101   3.195  12.849 -0.1105 -0.0017 -0.0280
18811W        W33942   0.131   2.917  16.347  0.0889 -0.4169 -0.1648
18812W        W33943   1.562  18.090   0.242 -0.0660 -0.3196 -0.0739
18813W        W33944   3.413   5.932  14.896 -0.2149  0.1528 -0.1159
18814W        W33945  16.309  10.380   3.897 -0.1892  0.0506 -0.1012
18815W        W33946   5.551   9.582   0.677 -0.1601 -0.4328 -0.0648
18816W        W33947   3.598   3.180  12.964 -0.0141 -0.0872  0.1871
18817W        W33948   2.695   2.021   0.049  0.0750 -0.1163 -0.2641
18818W        W33949   2.533  10.534  15.066  0.0325  0.1515  0.0027
18819W        W33950   5.596   2.994  10.922  0.0916  0.2299  0.0189
18820W        W33951   2.019  12.885  10.660  0.0098 -0.1576  0.4177
18821W        W33952  15.996   6.036   5.351  0.0068  0.2311  0.0638
18822W        W33953  17.799  16.695  13.559  0.0410 -0.0077  0.1626
18823W        W33954  13.889  10.602  12.628 -0.3964 -0.0986  0.0133
18824W        W33955   6.263  14.981   5.128 -0.2408  0.1930 -0.0721
18825W        W33956   8.414  10.118   0.722  0.1453 -0.0845  0.1791
18826W        W33957  16.118  16.321   1.007  0.0859  0.0057  0.1534
18827W        W33958  13.235  13.210  12.306  0.2782 -0.0962 -0.0283
18828W        W33959   8.282   9.523   1.478  0.0846  0.1310  0.0320
18829W        W33960   3.405   0.431   3.913  0.2503  0.0103 -0.0687
18830W        W33961   6.126   0.157   1.696 -0.2514  0.1954 -0.0013
18831W        W33962   9.612   4.580   3.262  0.0578  0.1269  0.0125
18832W        W33963   7.886   5.323  12.392  0.0667  0.0987 -0.0060
18833W        W33964   6.281  11.301   1.990  0.3135  0.0698  0.0265
18834W        W33965  12.551  10.989  16.179  0.0612 -0.0122 -0.0436
18835W        W33966  10.727  11.144  14.701 -0.2464 -0.0877 -0.0512
18836W        W33967   2.111  14.678   5.106  0.0827 -0.1367 -0.0582
18837W        W33968   6.974   0.051   0.182  0.4182 -0.1153 -0.0635
18838W        W33969   0.868   2.393   4.057 -0.1130 -0.1764  0.0631
18839W        W33970   9.495  14.061   1.066  0.1347 -0.0655 -0.2169
18840W        W33971  14.011  14.522   3.680  0.0124  0.1440  0.0818
18841W        W33972   6.884  11.291   4.320 -0.2270  0.1906 -0.2040
18842W        W33973  14.443  15.939   4.950 -0.2288  0.2806  0.1512
18843W        W33974  11.335   9.339   1.505 -0.2992  0.2112 -0.2095
18844W        W33975  11.863   2.261  15.186 -0.0885 -0.2271 -0.2078
18845W        W33976  10.956  13.198  14.769  0.1226  0.3429 -0.4756
18846W        W33977   6.935   6.924   3.065 -0.1991 -0.0651 -0.0273
18847W        W33978  15.194   2.644   4.370 -0.0884  0.1791  0.0696
18848W        W33979  15.462   6.010   1.779  0.0244  0.3681  0.2116
18849W        W33980  17.902  10.151   6.027 -0.0401  0.1098 -0.2008
18850W        W33981   1.408   5.278   2.534  0.1929 -0.1452  0.0203
18851W        W33982   2.802  13.749   5.647  0.2607 -0.0799 -0.0434
18852W        W33983  15.834  13.105  14.041  0.1544 -0.1824  0.0398
18853W        W33984   4.154   6.372  12.213  0.3313  0.4594 -0.2713
18854W        W33985  16.036   0.601   1.901 -0.2839 -0.2530 -0.1773
18855W        W33986  14.421  16.990  10.976 -0.0671 -0.2121  0.0530
18856W        W33987  12.273  12.719  16.167 -0.0216  0.1738 -0.0751
18857W        W33988  15.382   4.128   1.585 -0.0930 -0.1614  0.0245
18858W        W33989   7.629  17.737  16.090 -0.0723  0.1426  0.1712
18859W        W33990  14.868  15.297  15.103 -0.0313 -0.0258  0.0658
18860W        W33991   5.687  11.836  16.020 -0.0136  0.1723  0.1257
18861W        W33992  13.251   4.301  12.289 -0.1955 -0.4313 -0.2156
18862W        W33993   3.643   7.763   5.704  0.0405 -0.1606 -0.0938
18863W        W33994  12.807  14.891  14.095  0.2874 -0.2039  0.0083
18864W        W33995  14.174   6.550  14.414 -0.1704  0.1604 -0.0996
18865W        W33996   1.397   3.937   5.576  0.2610 -0.4233 -0.2751
18866W        W33997   6.954   7.399  12.556 -0.0007 -0.2439  0.0749
18867W        W33998   8.763  16.118  14.822  0.2594  0.1616 -0.2547
18868W        W33999  13.566  14.502  12.323  0.1737  0.1804  0.1132
18869W        W34000  14.490  17.595   2.084 -0.0821  0.2504 -0.3675
18870W        W34001   7.899   0.652   1.228  0.4277  0.4390  0.1573
18871W        W34002  16.585   6.882  12.577 -0.1539 -0.0219  0.3088
18872W        W34003   6.488  13.171  10.344 -0.0814  0.1622 -0.0134
18873W        W34004   1.306   2.640   1.267  0.3956  0.0563  0.0793
18874W        W34005  17.526  15.025   5.738 -0.5077  0.1396  0.0630
18875W        W34006   6.281  13.939   0.304  0.1179 -0.1617  0.0346
18876W        W34007  10.568  15.539  11.949 -0.2005  0.0054  0.1292
18877W        W34008   8.850  11.867  10.730  0.0596 -0.2076  0.1696
18878W        W34009  17.894  16.721  11.648  0.3906 -0.1032  0.2250
18879W        W34010  13.719  17.370   5.379 -0.1848 -0.1916  0.3577
18880W        W34011  16.521  13.186  13.990 -0.0571 -0.0815  0.2230
18881W        W34012   9.241  11.455   1.997 -0.0158  0.0942  0.1673
18882W        W34013   7.179  12.864  12.173 -0.0509 -0.0471 -0.0643
18883W        W34014   2.434  12.799   2.135  0.0803 -0.2349 -0.2790
18884W        W34015  15.761  14.765   2.398 -0.1259 -0.2383  0.1272
18885W        W34016  14.978   9.385  11.649 -0.3746  0.1231 -0.0650
18886W        W34017  15.247   6.618   3.731 -0.1775 -0.1755  0.1899
18887W        W34018  16.167  12.654  11.512  0.0717 -0.0613  0.1762
18888W        W34019  17.763  12.723   5.475 -0.1310 -0.1007 -0.1142
18889W        W34020   3.694   6.740  14.284  0.0156 -0.1578  0.1887
18890W        W34021  10.911   1.310   3.525  0.0360  0.1825  0.0502
18891W        W34022  16.238   8.919  12.727 -0.1845 -0.1085 -0.0625
18892W        W34023   9.556   7.345  13.967 -0.0069  0.0278  0.0136
18893W        W34024  13.694  13.711   3.257  0.0787 -0.1064  0.1783
18894W        W34025   8.581  14.257   2.499  0.2360  0.0598  0.3589
18895W        W34026   1.332   5.554   2.938  0.1446  0.1106 -0.3252
18896W        W34027   9.116   3.374   2.268  0.1117  0.1391  0.0629
18897W        W34028  15.046   2.552  13.032  0.0534  0.1998 -0.1990
18898W        W34029  15.057   6.839  12.720 -0.2188  0.1310  0.1788
18899W        W34030  11.760   8.848   2.591 -0.0067 -0.1143 -0.2696
18900W        W34031  11.843   4.198   3.064  0.4242  0.0010  0.0177
18901W        W34032   7.123   7.135   1.799  0.1137 -0.0825 -0.4086
18902W        W34033  12.841   3.844  10.813 -0.0681  0.0134 -0.1782
18903W        W34034   3.948  15.596  13.856  0.3240 -0.0465 -0.0205
18904W        W34035   8.871  13.979   1.152 -0.1939 -0.1889  0.0643
18905W        W34036   9.910   8.776  13.583 -0.0773 -0.0857 -0.1716
18906W        W34037  17.342   1.829  11.141  0.0390 -0.1812 -0.0511
18907W        W34038   9.419   6.701  11.407 -0.1778 -0.2663  0.0954
18908W        W34039   7.282  17.794   4.613  0.3790  0.2891 -0.3184
18909W        W34040   9.742  10.167   2.867  0.1094  0.3163  0.5213
18910W        W34041   1.866  17.286  15.683 -0.1701  0.0501 -0.0898
18911W        W34042  10.187  15.276  14.883  0.1571  0.1650 -0.0125
18912W        W34043  15.098   9.214  16.008  0.1346  0.1609  0.1945
18913W        W34044  10.119  12.708  15.394  0.2359 -0.0211  0.0399
18914W        W34045   5.298  16.483  14.791 -0.0243  0.0170 -0.5789
18915W        W34046   9.265  14.194   4.787 -0.5257 -0.2105  0.1000
18916W        W34047  15.544  11.564   5.202 -0.0839 -0.0055 -0.3778
18917W        W34048  17.824   2.061   5.156 -0.1124 -0.0965  0.0446
18918W        W34049   5.599  14.700  12.983  0.1847 -0.0832  0.1023
18919W        W34050   4.443   6.242   3.710  0.1772 -0.0079  0.2290
18920W        W34051   5.818   9.043  10.281 -0.4163 -0.1949  0.0572
18921W        W34052  10.445   3.466  12.905  0.2742 -0.3328 -0.2768
18922W        W34053   2.991  17.453   5.665  0.1683  0.0433  0.0986
18923W        W34054   6.581   3.239   0.057  0.2114  0.0065 -0.0659
18924W        W34055  15.441   3.731  13.260 -0.2434  0.0677  0.0216
18925W        W34056   9.828  12.281   4.270 -0.0769  0.0038  0.0760
18926W        W34057   9.403  13.869   2.886 -0.0700 -0.4106 -0.1671
18927W        W34058  13.123  10.277  13.216 -0.1496  0.0108  0.5606
18928W        W34059   4.846   7.236  15.896  0.0320  0.1489 -0.4700
18929W        W34060  14.704   9.166   2.229 -0.1471  0.1054 -0.0105
18930W        W34061   2.044   7.690   4.072 -0.3729  0.1384 -0.0534
18931W        W34062   5.710  10.289   2.399  0.2956 -0.0820  0.2076
18932W        W34063  16.984   0.593   1.567  0.0196  0.0136 -0.1217
18933W        W34064   3.892   5.617  15.703 -0.3259 -0.1512  0.0265
18934W        W34065   7.762  12.195  13.693  0.3305 -0.0815 -0.0287
18935W        W34066  11.720   1.200   3.421  0.0983  0.0343  0.2267
18936W        W34067   8.050   8.042  13.508  0.0867 -0.0649 -0.1442
18937W        W34068  15.466   6.038   3.833  0.1309  0.0027  0.4437
18938W        W34069  13.386  13.149  13.764  0.0005  0.0802  0.0216
18939W        W34070   1.504  18.047  12.662 -0.3064  0.2615 -0.1360
18940W        W34071   4.058  12.782  13.496  0.0747 -0.0792 -0.0092
18941W        W34072  15.034  17.168  15.791 -0.0005  0.3215 -0.2901
18942W        W34073  10.545   5.970   0.841 -0.0836 -0.0053 -0.0108
18943W        W34074  12.252   0.065   2.247  0.0514  0.1638 -0.1753
18944W        W34075  10.494   6.131   3.652  0.1341  0.0944  0.0055
18945W        W34076   4.149   4.289   0.655 -0.0018  0.1265  0.0694
18946W        W34077  16.195   3.698   0.452  0.0582 -0.0652  0.1865
18947W        W34078   7.212  10.892  12.429  0.0004 -0.1833 -0.3103
18948W        W34079   9.223   8.248  11.333 -0.1316  0.0171 -0.1202
18949W        W34080  10.800   9.452   1.520 -0.1826  0.0078  0.2073
18950W        W34081   3.649   6.798   4.795 -0.0677 -0.6453  0.2257
18951W        W34082  13.440  16.045   4.825 -0.0207 -0.2959 -0.0386
18952W        W34083  13.154   0.089  11.759  0.1122 -0.0683 -0.0198
18953W        W34084  11.397  17.857   1.274 -0.2498  0.1974 -0.0022
18954W        W34085  15.698   2.666  16.243  0.2033 -0.3693  0.0659
18955W        W34086   7.731  12.224   4.116 -0.3232  0.0990  0.4143
18956W        W34087   3.505  15.717   3.011  0.0035 -0.3417 -0.1587
18957W        W34088  10.459   3.773  13.450 -0.0523 -0.1467 -0.1247
18958W        W34089   4.512  10.885   2.641 -0.1381 -0.1085  0.1061
18959W        W34090  14.018  12.171   2.556 -0.0833 -0.0017 -0.0090
18960W        W34091   2.607  11.832   1.294 -0.0990  0.0449  0.0388
18961W        W34092   8.569   0.673  15.837  0.2786 -0.2154  0.1097
18962W        W34093  12.187  10.146  10.591 -0.1969 -0.3491 -0.2172
18963W        W34094  15.245  12.132   4.087  0.1067  0.1232  0.1649
18964W        W34095  14.427  12.588  12.686  0.0073 -0.2504 -0.1066
18965W        W34096  14.865  15.031  15.835  0.0486  0.2521 -0.3686
18966W        W34097  13.884   5.396   3.670 -0.1141 -0.0120  0.1841
18967W        W34098  14.478  11.921  11.669  0.2440  0.2601 -0.4292
18968W        W34099  16.882  10.238  15.690  0.2655 -0.0533  0.1304
18969W        W34100  13.302   3.857   0.825  0.2291 -0.3448  0.0409
18970W        W34101   1.879   3.832  15.992  0.1053  0.0334  0.0632
18971W        W34102   6.602  12.273   5.211 -0.3588  0.1297  0.1351
18972W        W34103   1.905  13.383  10.792  0.1391  0.1045 -0.1339
18973W        W34104  12.635   0.335   2.024 -0.2504 -0.0833  0.0220
18974W        W34105  10.169  16.345   1.401 -0.0525 -0.0595  0.1861
18975W        W34106  12.660  12.316  14.059 -0.1380  0.0762  0.3165
18976W        W34107   5.435   2.214  11.762 -0.1561  0.0836  0.0992
18977W        W34108  17.326  12.385   5.734 -0.2383  0.5711  0.0114
18978W        W34109   1.478   0.837  13.596  0.2142 -0.1090 -0.1403
18979W        W34110  15.518  17.596  14.429 -0.0777 -0.0275 -0.0363
18980W        W34111   7.476   8.818   1.570  0.1336 -0.2509 -0.0595
18981W        W34112  15.127   2.738   0.590  0.1541 -0.0189 -0.0716
18982W        W34113  10.958   6.322   3.379  0.0643  0.3911  0.0535
18983W        W34114   7.640   3.221  11.916 -0.0289 -0.0067 -0.1902
18984W        W34115  11.740  17.921   2.421 -0.0019  0.1135 -0.3199
18985W        W34116   6.100   3.425   0.112 -0.1074  0.1870 -0.0578
18986W        W34117   3.567   8.464  11.311 -0.1204 -0.0824 -0.2265
18987W        W34118   3.698   2.654  15.067 -0.1670 -0.1521  0.0795
18988W        W34119   0.152   8.395   0.342 -0.2198 -0.0326 -0.1834
18989W        W34120   9.322   6.869   3.256  0.0983 -0.0981  0.1046
18990W        W34121   0.951  15.385  13.369  0.0464 -0.0741  0.0376
18991W        W34122   7.386   3.462   3.798 -0.2364  0.3606  0.0432
18992W        W34123   7.430  17.332   4.543  0.2643  0.3248  0.1425
18993W        W34124   4.081   7.550  12.590 -0.1277 -0.0285  0.0353
18994W        W34125   1.507   3.060   2.084 -0.1707  0.2148 -0.0221
18995W        W34126  10.992   9.271   5.146  0.2454 -0.0214 -0.0451
18996W        W34127   3.560   2.762   6.221 -0.1168  0.0556 -0.0516
18997W        W34128   1.498   2.585  13.056  0.1266 -0.1417 -0.2236
18998W        W34129  17.890  16.078   1.560 -0.0322  0.0663  0.1226
18999W        W34130  14.640  15.210  13.456  0.0113  0.0939  0.2253
19000W        W34131  15.978   6.730  11.950 -0.1652 -0.2204 -0.1586
19001W        W34132  14.445  13.309  15.024 -0.1801  0.0846 -0.0703
19002W        W34133   6.590  17.551  13.727  0.1164 -0.0032  0.1478
19003W        W34134   4.874  15.249   0.731 -0.0234 -0.2096 -0.0472
19004W        W34135   7.518   4.602   3.990  0.2281  0.0788 -0.5960
19005W        W34136  15.376   5.799   2.915  0.0721 -0.1218 -0.2528
19006W        W34137   1.900  17.518   2.448  0.3678  0.1492  0.4343
19007W        W34138  11.075   0.933  13.849  0.0121  0.0784  0.1056
19008W        W34139  14.745   0.302  13.089 -0.1930 -0.5778 -0.2752
19009W        W34140  12.658   1.009   3.381 -0.0432 -0.0997  0.2109
19010W        W34141   7.656   3.356   2.932 -0.1120  0.0413  0.3288
19011W        W34142   4.075  12.015  11.721  0.2790 -0.0628 -0.0375
19012W        W34143   8.569  17.096  11.406 -0.5107  0.1261  0.2722
19013W        W34144  14.893  11.155  15.635 -0.1619  0.0891 -0.2071
19014W        W34145   8.968  12.870  12.893  0.0582  0.0288 -0.0970
19015W        W34146  16.585   4.775   2.240  0.0148  0.2177 -0.0047
19016W        W34147   7.134  14.231   2.863  0.0197 -0.0157  0.0423
19017W        W34148   8.141  10.020  14.432 -0.0703  0.0716  0.2907
19018W        W34149  11.440   6.261  12.921 -0.1424  0.1204  0.3519
19019W        W34150   6.163   7.068  14.077 -0.2639 -0.0895  0.0385
19020W        W34151   0.011   2.220   5.507  0.1758 -0.1755  0.2865
19021W        W34152  12.139  16.722  11.858  0.0641 -0.0758 -0.0562
19022W        W34153   7.671   3.376  13.807 -0.3480  0.0347 -0.2239
19023W        W34154  12.958   2.994  10.234  0.3695  0.1646 -0.1238
19024W        W34155   0.641   0.115  12.159 -0.1101  0.2368  0.2782
19025W        W34156  17.172  13.325  14.449  0.1625 -0.2059 -0.0684
19026W        W34157  16.654   6.988   2.522 -0.1449 -0.0221  0.1334
19027W        W34158  14.215  10.123   5.568  0.1816  0.0636  0.2466
19028W        W34159  11.680  13.992   4.543  0.3644  0.0566  0.2339
19029W        W34160  13.472  11.864   0.983 -0.1082  0.1067 -0.0459
19030W        W34161   4.810   1.338  14.085 -0.0290  0.0723 -0.0399
19031W        W34162   1.049  16.663  14.239 -0.0460  0.2626 -0.0943
19032W        W34163   9.726   9.639   5.283 -0.1817 -0.3342  0.2649
19033W        W34164   1.572  14.773   0.567  0.0674  0.3189  0.1499
19034W        W34165  14.562  10.509  12.025 -0.0145 -0.1292  0.3362
19035W        W34166   9.457   9.328  11.592 -0.3202  0.2670 -0.1270
19036W        W34167  10.915  10.877   1.578 -0.1267  0.0382 -0.1394
19037W        W34168   5.329   3.947  15.567 -0.2055  0.1853  0.3115
19038W        W34169   2.644  15.439  15.360 -0.1846  0.0881 -0.0306
19039W        W34170  12.652  12.423   1.706  0.0138  0.2930  0.0697
19040W        W34171   8.598   1.863   2.302 -0.2836  0.0298 -0.0469
19041W        W34172  14.402  10.144  14.712  0.0483 -0.1515 -0.0396
19042W        W34173  12.046  12.683   1.900  0.0994  0.4154 -0.2759
19043W        W34174  17.397  17.550  12.538 -0.3367 -0.0165 -0.2692
19044W        W34175  13.983  17.890   3.457 -0.0133 -0.0393  0.3669
19045W        W34176  11.943   2.879   5.631 -0.0162 -0.1695  0.0061
19046W        W34177  14.958  17.543   5.931 -0.1098  0.0365 -0.0172
19047W        W34178   4.812  16.034   4.115  0.1220 -0.1719  0.2008
19048W        W34179  10.087   0.616  14.141 -0.1309  0.2330  0.1078
19049W        W34180   3.026  18.048  16.164 -0.3124 -0.0006  0.2091
19050W        W34181  10.855  17.919   1.134  0.2953 -0.1008 -0.2775
19051W        W34182   6.667   8.705   1.626 -0.1709  0.0054  0.0132
19052W        W34183  16.203   7.208  13.510 -0.2437  0.4015 -0.0857
19053W        W34184  12.956   3.997   3.563  0.0807 -0.0943 -0.0344
19054W        W34185   4.472  10.916   3.956  0.1956 -0.0137  0.0210
19055W        W34186   8.807   3.892  12.739  0.3147  0.2272  0.0535
19056W        W34187   5.863   4.260  11.275 -0.2062  0.0428  0.0174
19057W        W34188   7.466   6.827   3.111 -0.0847  0.0163  0.0427
19058W        W34189  10.759   4.639   0.977  0.0033  0.3371 -0.3261
19059W        W34190  13.309   6.778   2.360 -0.2399 -0.0264 -0.2743
19060W        W34191   9.202   8.983  10.915 -0.0752  0.1433 -0.0942
19061W        W34192   7.102   9.203  15.715  0.0405  0.3159 -0.0869
19062W        W34193  13.634   6.266   5.193 -0.1283  0.3511  0.1724
19063W        W34194  17.243   8.733  15.853  0.3433  0.1154  0.1507
19064W        W34195  11.888  12.264  15.059  0.1872 -0.0326 -0.0716
19065W        W34196   1.288   5.656  15.687 -0.0068 -0.1890 -0.0674
19066W        W34197   9.121   3.562   4.013  0.0324 -0.3420  0.0412
19067W        W34198   3.377  10.618  16.196  0.2111  0.1355  0.0640
19068W        W34199   2.285   7.083  11.522  0.0124 -0.0682  0.2168
19069W        W34200  15.282   0.117   4.868 -0.2954 -0.0542  0.2762
19070W        W34201   4.052  16.380   2.638 -0.0226  0.0319 -0.0666
19071W        W34202   9.995  14.959   4.801 -0.0921 -0.2461  0.1204
19072W        W34203  16.263  11.244   4.750 -0.2906 -0.1596 -0.1529
19073W        W34204   9.957   4.759   2.876  0.2701  0.0139 -0.0710
19074W        W34205   7.100  10.007   4.230  0.0525  0.2754 -0.1128
19075W        W34206  16.463  10.746   4.252 -0.4450  0.0955  0.0283
19076W        W34207   5.270   6.060  12.071 -0.2442  0.1669  0.2104
19077W        W34208   3.309  15.958  11.722 -0.0330 -0.0264  0.0687
19078W        W34209  12.154   7.629   2.629  0.2411  0.1180 -0.1614
19079W        W34210   6.559  13.697   5.413 -0.2178 -0.0609 -0.0485
19080W        W34211   2.026  13.145  11.880  0.1348  0.3035  0.1458
19081W        W34212   4.993   3.571   4.787  0.5985  0.0594  0.0376
19082W        W34213  13.122   6.857   3.807  0.0588  0.0017  0.4080
19083W        W34214   8.916   7.234  10.910 -0.3053 -0.2714 -0.0518
19084W        W34215  12.876  12.815  12.354 -0.0824 -0.2375  0.0924
19085W        W34216  12.496   0.502  16.341  0.1142  0.0529  0.1884
19086W        W34217   3.924   3.595   6.136 -0.1368 -0.1011  0.0431
19087W        W34218   3.065  11.493  11.302  0.0461 -0.2531 -0.0355
19088W        W34219  11.161   4.322   0.894  0.3080  0.1860  0.2843
19089W        W34220   9.519   1.138   3.422  0.2943  0.0975 -0.1246
19090W        W34221   7.770  15.806   4.317 -0.0416 -0.2127 -0.2069
19091W        W34222  17.730  16.157   3.732  0.0487  0.0006  0.0635
19092W        W34223  11.037  17.172   4.663  0.0282 -0.1088 -0.1131
19093W        W34224   5.607   2.909  13.568 -0.2475 -0.3233  0.1327
19094W        W34225   6.536   8.006  12.706  0.1503  0.2162  0.0890
19095W        W34226   5.911  14.317  11.157  0.0215  0.2306 -0.5271
19096W        W34227  16.230  15.598   1.495  0.1729  0.1887 -0.2534
19097W        W34228  12.518   6.007  13.337 -0.2115  0.0167  0.0623
19098W        W34229   2.997   4.474  15.955 -0.1045 -0.0425  0.0280
19099W        W34230  13.341  12.926   2.899  0.0918 -0.4149  0.1247
19100W        W34231  10.573   6.341  12.700  0.0219  0.1626  0.1491
19101W        W34232  15.603  14.012  11.350 -0.1423 -0.2806 -0.2220
19102W        W34233  10.763  10.478   4.829  0.0554  0.0002 -0.1414
19103W        W34234   4.975   1.525  11.214  0.0017  0.0019  0.4392
19104W        W34235  13.061   1.529   1.539  0.0160  0.0510  0.1424
19105W        W34236  12.217   6.595  13.512 -0.0546 -0.1070 -0.0464
19106W        W34237   5.313  10.202   2.080  0.0227  0.1022 -0.1519
19107W        W34238   7.584  15.519  13.436  0.0221  0.2678 -0.1530
19108W        W34239   4.752   8.231  12.685 -0.2279 -0.1315 -0.1880
19109W        W34240  12.233  16.815   5.899 -0.2027  0.1643 -0.1403
19110W        W34241   2.007  16.689   0.360  0.0096  0.2044  0.1392
19111W        W34242  11.453   7.275  14.413 -0.0058  0.0287  0.3509
19112W        W34243   1.594   1.545   3.077  0.2085  0.1134 -0.0196
19113W        W34244  13.955  12.574   1.167  0.0626  0.0068  0.2578
19114W        W34245  11.321  13.824   0.122  0.0129  0.1652 -0.2394
19115W        W34246   8.830   5.228  14.224  0.0076 -0.0826 -0.1853
19116W        W34247  17.161  15.367   4.540 -0.0349 -0.1197  0.0613
19117W        W34248  11.525  14.533   6.431 -0.2520  0.1482  0.0443
19118W        W34249  14.597   8.155  11.428 -0.1466  0.1688 -0.0079
19119W        W34250  12.890  11.952  15.828  0.1125  0.1017  0.4209
19120W        W34251   6.778   0.217   4.031  0.1789 -0.0004  0.0289
19121W        W34252   9.130   3.495   0.003 -0.2671 -0.0063  0.6527
19122W        W34253   6.302   5.840   5.151  0.0710  0.0703 -0.0522
19123W        W34254  12.934  17.400   0.348 -0.2928  0.0395  0.1379
19124W        W34255  16.898  14.734  15.865  0.0575  0.0129  0.1433
19125W        W34256   1.643  10.395  12.576  0.2523 -0.2274  0.0370
19126W        W34257   2.599  17.157   3.471 -0.2490  0.0044  0.4463
19127W        W34258   1.707   6.476  10.520 -0.1259  0.6115 -0.0860
19128W        W34259  15.147   6.298   2.489 -0.0167 -0.2242  0.2041
19129W        W34260   8.698   2.739   2.902  0.1163  0.1943  0.2348
19130W        W34261   1.249  13.764   0.954 -0.1690  0.1725  0.1052
19131W        W34262   8.575  12.495   0.227  0.0673 -0.0972 -0.1763
19132W        W34263   9.111   4.022  16.226 -0.0925  0.0618  0.1320
19133W        W34264  15.147   1.974  16.203  0.2112  0.0949  0.0340
19134W        W34265  17.783   6.147  12.482  0.1973 -0.0050  0.0575
19135W        W34266   2.270   2.858   6.013 -0.0208 -0.1692  0.1292
19136W        W34267  13.277   2.061   2.954  0.0356  0.0208  0.0204
19137W        W34268   5.075   3.235  16.405  0.1101 -0.0266  0.1419
19138W        W34269   3.285   7.293  12.933  0.2172 -0.0432  0.2403
19139W        W34270  14.349   7.987   3.094 -0.0765 -0.0506  0.1904
19140W        W34271  15.917   4.942  12.869 -0.1291  0.1747  0.3908
19141W        W34272   7.502   8.700   0.471 -0.1564 -0.0211 -0.0314
19142W        W34273  16.167   0.333  14.868 -0.1821  0.2404 -0.1524
19143W        W34274   2.626  14.334  10.460 -0.0780  0.0207 -0.2197
19144W        W34275   3.105  11.873  12.646  0.0271  0.1614  0.1096
19145W        W34276  16.665  12.033   5.052  0.2133  0.0272 -0.0524
19146W        W34277   2.919  15.743  13.330 -0.1469  0.1625 -0.0381
19147W        W34278   7.240   8.175  12.497 -0.1896  0.1548 -0.0721
19148W        W34279   6.698   2.621   2.176 -0.0412  0.1616 -0.0962
19149W        W34280   1.373   5.050   3.645  0.3362  0.3412  0.1020
19150W        W34281  11.292   2.467   2.900 -0.0113  0.1752 -0.0708
19151W        W34282   5.029  17.709   3.271 -0.1135 -0.2858 -0.0149
19152W        W34283   0.654   2.386  15.816 -0.1651 -0.1174 -0.0620
19153W        W34284  17.311  16.145  12.748  0.0428  0.1554 -0.0304
19154W        W34285  17.957  16.125   2.500  0.1254 -0.1485 -0.3539
19155W        W34286   3.933  15.784   1.562  0.1218 -0.3036 -0.0696
19156W        W34287   1.328   8.491  15.562  0.3507  0.0127  0.0322
19157W        W34288  11.496   5.928   5.482 -0.1398 -0.0029 -0.0037
19158W        W34289   2.375   6.978  16.437  0.1271  0.0088  0.1679
19159W        W34290   0.210   0.145   5.882 -0.0142 -0.0200  0.2005
19160W        W34291  10.569  14.349   3.432 -0.3123  0.2175 -0.1077
19161W        W34292  16.992  13.058  15.778  0.0078  0.1030  0.2217
19162W        W34293  11.280   2.326   3.697  0.3231 -0.0103 -0.0333
19163W        W34294   2.791  16.093   4.284  0.0557 -0.1432 -0.0094
19164W        W34295  14.771   6.515  11.528  0.1494 -0.2825  0.0662
19165W        W34296   8.502  15.353   3.702  0.0136 -0.3196 -0.0526
19166W        W34297   3.398  10.206   4.299  0.0371 -0.0705  0.2028
19167W        W34298  14.462  12.396   3.971 -0.0270 -0.0054 -0.0577
19168W        W34299  13.032   4.003  12.607  0.2570  0.1626 -0.1130
19169W        W34300  15.805   8.030  15.685  0.2407  0.1210 -0.1362
19170W        W34301   2.646  14.581  12.388  0.0113 -0.2715 -0.0829
19171W        W34302   4.826   6.812   1.479 -0.1231 -0.1529  0.2822
19172W        W34303   5.644  17.215   3.590 -0.1370  0.3307 -0.0615
19173W        W34304   6.004   6.981  15.236 -0.1677 -0.0616 -0.0343
19174W        W34305  15.314   9.133  12.990  0.0153 -0.1665 -0.1256
19175W        W34306   6.809  11.348  15.718  0.2265 -0.0839 -0.0162
19176W        W34307  11.178  13.268  10.620  0.0853 -0.4115 -0.0541
19177W        W34308  15.628  13.510  15.655  0.0406 -0.3356 -0.0619
19178W        W34309   4.030   8.721   1.422  0.2092  0.0520 -0.2350
19179W        W34310   2.091   4.275   3.325  0.1293 -0.1466 -0.0888
19180W        W34311  17.421   6.216  15.706  0.0312 -0.1483 -0.2922
19181W        W34312  17.873  14.894  13.336  0.0752  0.0918 -0.2908
19182W        W34313   3.956  12.365   0.165 -0.0112 -0.0522 -0.3786
19183W        W34314  13.521   9.445  10.195  0.2120  0.1093  0.0413
19184W        W34315   6.667   1.001   1.748  0.3403  0.0362 -0.1152
19185W        W34316   1.803  17.556   2.992  0.0928 -0.2443  0.1287
19186W        W34317  16.861   9.355   5.811  0.2353 -0.2346 -0.0385
19187W        W34318  17.955  10.952  13.135  0.0776 -0.0582 -0.0575
19188W        W34319   5.649  15.209   2.300 -0.1041  0.1009  0.2193
19189W        W34320   2.901  13.149  14.835  0.2335  0.2547  0.0563
19190W        W34321  16.965   8.918  11.349  0.0405  0.1753 -0.2424
19191W        W34322   3.592  15.297   3.328 -0.0287 -0.0365  0.0825
19192W        W34323   6.567  14.311   2.042 -0.2996 -0.0794  0.0461
19193W        W34324  13.565  10.797  13.543 -0.1134  0.1075 -0.1406
19194W        W34325   3.333  17.108  15.542 -0.0015 -0.1334 -0.2683
19195W        W34326  16.317  15.227  13.799 -0.0946 -0.0379  0.2009
19196W        W34327   3.341  15.599  12.588 -0.0908  0.0349  0.0889
19197W        W34328  16.276   4.013   5.752  0.1286 -0.0162 -0.1497
19198W        W34329   8.652  10.416  12.291  0.2236  0.0912 -0.1178
19199W        W34330  13.889  15.996   3.588  0.0823  0.2538  0.3777
19200W        W34331  15.923  14.672   5.717  0.1359  0.0082  0.1928
19201W        W34332   6.286  17.240  11.164 -0.1279  0.1307  0.0512
19202W        W34333   9.182  15.397  13.824  0.1070  0.2433 -0.3500
19203W        W34334   1.601   7.000   4.977 -0.0386  0.0917  0.1569
19204W        W34335  15.472   8.166   2.837  0.1580  0.6681  0.1505
19205W        W34336   4.181  17.902  14.435 -0.1855  0.0550 -0.0776
19206W        W34337   3.023   6.286   2.768 -0.1526  0.0406  0.0874
19207W        W34338  16.949  11.707   3.445  0.1430 -0.3229  0.1832
19208W        W34339   7.426   5.525  14.600  0.2261  0.0079 -0.3050
19209W        W34340  15.509   1.122   5.038  0.0026 -0.0951 -0.0749
19210W        W34341   8.709   6.922  13.788 -0.3152  0.0377 -0.0129
19211W        W34342   1.376  10.297  16.346  0.0458  0.0196  0.0272
19212W        W34343   2.868  12.178   5.290  0.0926  0.0706 -0.0310
19213W        W34344   7.528  14.280  13.541 -0.1854 -0.2882  0.3049
19214W        W34345  13.290  15.337   4.148  0.1434 -0.3615  0.0606
19215W        W34346   2.441  16.422  13.302 -0.0902 -0.1994 -0.0539
19216W        W34347   5.086   4.396   5.480  0.4935  0.2886  0.2590
19217W        W34348  10.333  10.539   6.225 -0.2122 -0.2983  0.0321
19218W        W34349  14.577  10.331   3.912 -0.0321 -0.0781  0.0790
19219W        W34350  16.653  13.137   1.801  0.1903  0.1071 -0.0982
19220W        W34351   4.603  13.818  16.392 -0.3043  0.1745  0.3333
19221W        W34352   3.624   9.883  15.005  0.0833  0.1797 -0.3277
19222W        W34353  14.189  17.437  13.935  0.2927 -0.2344 -0.2034
19223W        W34354  15.806  11.591  11.910 -0.1930  0.0760  0.2265
19224W        W34355  11.712   6.817  10.873 -0.2555  0.2625  0.0518
19225W        W34356   9.164   1.919   3.272  0.1145  0.0716  0.1215
19226W        W34357   3.885   3.610   2.032  0.2663  0.1586 -0.0269
19227W        W34358   6.277  11.571   3.811 -0.1391 -0.0321  0.0411
19228W        W34359   2.622   9.690  15.504 -0.2044 -0.0917 -0.1670
19229W        W34360  17.131  11.856   0.056  0.1637  0.0807  0.0426
19230W        W34361   8.923   0.193  14.592  0.0608 -0.1656  0.0552
19231W        W34362   3.358  17.536   2.202 -0.0161 -0.1423 -0.1057
19232W        W34363   8.640   3.672   4.279 -0.0121  0.2470  0.1542
19233W        W34364   8.829  14.528   2.159 -0.0754 -0.0709  0.2491
19234W        W34365   0.505   1.449   5.034  0.1931 -0.1348  0.1891
19235W        W34366  11.864   3.710   5.956  0.4536 -0.0538  0.2001
19236W        W34367  16.285  12.534   0.019 -0.0404  0.2377  0.0038
19237W        W34368   9.575  15.075   3.430  0.0691  0.3491 -0.1219
19238W        W34369  12.447  12.731   5.093  0.3710  0.1273  0.1182
19239W        W34370  16.256  16.976   5.677  0.1480  0.1523  0.1606
19240W        W34371   8.600  10.791  15.849 -0.0583  0.0349  0.0376
19241W        W34372  13.086   8.936  12.378  0.1998 -0.0660 -0.0674
19242W        W34373   3.618  11.309  12.772  0.2112 -0.1891  0.1761
19243W        W34374   0.766   2.149  14.851  0.1513 -0.0014  0.0420
19244W        W34375  13.426   5.807  13.509  0.1504 -0.0273  0.1114
19245W        W34376   1.884  11.199  15.109  0.0924 -0.0018  0.0075
19246W        W34377   4.997  16.424   1.488 -0.2202  0.0217  0.1913
19247W        W34378   8.242  12.405   5.149 -0.3155  0.0706  0.1917
19248W        W34379   3.551   9.145  12.289  0.2622 -0.0991 -0.0989
19249W        W34380   1.930  12.951  12.818  0.2727  0.2363  0.0246
19250W        W34381  10.964   3.456  12.951 -0.1749  0.4196  0.0773
19251W        W34382  17.597   1.593   2.348  0.3608 -0.0188  0.1815
19252W        W34383  17.100  17.203   0.621  0.0688  0.0656  0.0309
19253W        W34384   0.671   7.548   1.180 -0.0679 -0.1332 -0.1668
19254W        W34385  12.085  16.838   5.398  0.5532 -0.3283  0.0875
19255W        W34386  17.712   2.058   0.404 -0.2322 -0.0395  0.0657
19256W        W34387  15.373   5.546   4.001 -0.1507  0.1762 -0.0964
19257W        W34388  17.150   4.230  13.745 -0.0534  0.3188 -0.1046
19258W        W34389  14.242   5.999   0.283 -0.0091 -0.1416  0.1362
19259W        W34390  15.544  16.764   1.729 -0.1169 -0.0223 -0.0332
19260W        W34391   9.556  12.122   4.650 -0.1869 -0.2048  0.0567
19261W        W34392   4.827   6.033   2.545  0.2240  0.0302  0.0163
19262W        W34393   1.584  17.954   2.731  0.2181 -0.5352 -0.0531
19263W        W34394  14.154  17.517  15.728 -0.0540 -0.1727 -0.0010
19264W        W34395  17.835   3.241  11.397  0.0995  0.2820  0.0926
19265W        W34396  13.169  15.955   0.195 -0.1553  0.1208  0.0802
19266W        W34397   2.386   2.121   5.020  0.0435 -0.0491 -0.1482
19267W        W34398   1.639   2.266   0.378  0.0354  0.2089  0.2746
19268W        W34399  12.829  16.442  16.067 -0.1137  0.0365 -0.1429
19269W        W34400   9.554   3.896   0.080 -0.2481  0.1564  0.1073
19270W        W34401   3.198   2.871   3.051  0.0436 -0.3022 -0.0155
19271W        W34402   8.003  14.238   2.331  0.1801  0.0219  0.0322
19272W        W34403   4.449  15.747   1.892 -0.0735 -0.0577  0.0123
19273W        W34404   2.395   1.917   5.530  0.0360 -0.1807  0.1330
19274W        W34405  17.897  14.204  13.801 -0.0641  0.1299  0.1094
19275W        W34406   2.909   2.022  11.339 -0.0968 -0.3147 -0.2848
19276W        W34407   6.514   2.834  12.806  0.2139 -0.1077 -0.1140
19277W        W34408   2.879  10.187   3.393  0.0714  0.2812  0.0987
19278W        W34409   6.445  15.125   6.117  0.1488  0.0071 -0.1438
19279W        W34410  16.838   9.357  13.916  0.0762 -0.0649 -0.0178
19280W        W34411  11.202   7.497  16.040 -0.1290 -0.0706  0.4963
19281W        W34412  12.823  10.186   0.729 -0.0146 -0.1380 -0.1029
19282W        W34413   0.403   4.011   1.342 -0.0865 -0.1087  0.0351
19283W        W34414   3.490  16.535   0.806 -0.1119 -0.1128  0.3345
19284W        W34415   6.576  10.152   0.133  0.1438 -0.1523  0.2079
19285W        W34416   8.042   2.383  12.734  0.4455 -0.0424  0.2057
19286W        W34417  17.967  13.863  11.809  0.2728  0.0485  0.3451
19287W        W34418  16.256  13.665  15.219  0.0288 -0.3124  0.0548
19288W        W34419   6.621   3.813  11.708  0.1828 -0.0944  0.1363
19289W        W34420   8.173  11.244  11.733 -0.1314  0.2449  0.1614
19290W        W34421   2.264  15.331   0.795  0.2086 -0.2190 -0.0669
19291W        W34422   8.180  12.768   0.373  0.2458 -0.2529  0.3059
19292W        W34423   7.377  10.248  16.338 -0.0986 -0.1818  0.0181
19293W        W34424   1.874   4.394   5.149  0.0363 -0.1212 -0.2825
19294W        W34425   0.112   1.999   0.416 -0.4643 -0.2792 -0.1213
19295W        W34426  11.253   6.998  13.433  0.0430 -0.0870 -0.4882
19296W        W34427   9.996   9.972  12.770  0.0821  0.0855 -0.1823
19297W        W34428  17.633   1.851  14.798 -0.0390 -0.3748  0.0790
19298W        W34429  16.631   2.027  13.519 -0.3694  0.2553 -0.0594
19299W        W34430  16.634  11.135  13.107 -0.1406  0.1709 -0.0826
19300W        W34431  14.368  16.523  13.584 -0.0770 -0.0357 -0.0819
19301W        W34432  14.574  10.619   0.873  0.0864 -0.0955 -0.4095
19302W        W34433   8.569   9.357   0.553 -0.1346  0.0068  0.0307
19303W        W34434  15.338  10.408  13.186  0.1071  0.1532 -0.3204
19304W        W34435   9.025  14.312   5.241  0.2904 -0.1829 -0.3302
19305W        W34436   8.108  13.997   2.749 -0.0867  0.0530  0.0993
19306W        W34437  10.485   0.680   2.531 -0.2395 -0.2758  0.1327
19307W        W34438   9.991  13.674   2.490 -0.2049 -0.1182 -0.4327
19308W        W34439  11.458   5.152  10.571  0.0205  0.0085 -0.1113
19309W        W34440   9.835   7.066  11.397 -0.1208  0.2407 -0.3198
19310W        W34441   2.653   6.665   3.610 -0.0434 -0.2106 -0.2322
19311W        W34442  12.663   5.480  15.083  0.1189 -0.2594 -0.0355
19312W        W34443  14.017   8.079  12.407 -0.3843  0.1723  0.1478
19313W        W34444  15.378   7.166  15.575  0.1082 -0.2588 -0.1148
19314W        W34445   3.003   2.116   2.433  0.2739 -0.1023  0.1599
19315W        W34446   5.690  17.358   4.885 -0.2421  0.2968  0.0409
19316W        W34447  16.904  16.389  10.960  0.1013  0.1447  0.0865
19317W        W34448   8.168   3.130  12.790 -0.2318  0.2780 -0.2254
19318W        W34449   9.408  12.686   3.710 -0.0864 -0.0838  0.1586
19319W        W34450   5.558   9.634   2.981  0.2671 -0.1418  0.2668
19320W        W34451   2.031  14.169   1.229 -0.0240 -0.0330 -0.1299
19321W        W34452   7.984   6.011   4.496  0.1881 -0.3791  0.1790
19322W        W34453  13.473  18.102   3.544  0.1187 -0.2545 -0.2167
19323W        W34454   2.550   2.305   2.251 -0.0426  0.1815 -0.3367
19324W        W34455   2.030  11.665   2.555  0.1814 -0.1821  0.0074
19325W        W34456  12.794  10.294   3.426 -0.2424 -0.4169  0.0270
19326W        W34457   6.522   7.978   3.574 -0.3253  0.0616  0.2073
19327W        W34458  15.321  14.415   1.455 -0.0454 -0.2202 -0.1754
19328W        W34459  17.819  12.190   0.036  0.0458 -0.1402 -0.3340
19329W        W34460  12.643  12.228   2.960 -0.1800  0.3335 -0.2845
19330W        W34461  11.077   4.402  11.066  0.1083 -0.1671  0.0230
19331W        W34462  17.727   4.843   6.317  0.1637 -0.2017  0.1360
19332W        W34463   2.125   2.482  12.305 -0.3546  0.0533 -0.2315
19333W        W34464  11.763   8.732   4.365  0.1356  0.0930  0.1707
19334W        W34465   6.107   3.741  15.331 -0.3959 -0.0862  0.1558
19335W        W34466  16.561  12.064  11.853  0.0705  0.0850  0.1236
19336W        W34467  16.566   2.133  15.285  0.0389 -0.1534 -0.1582
19337W        W34468   1.272  13.326   2.678  0.2632 -0.1181  0.0272
19338W        W34469  17.941   3.070  13.726 -0.1721  0.0565  0.0011
19339W        W34470   7.477  16.898  16.359 -0.1777 -0.1483 -0.1582
19340W        W34471  14.663   4.288   2.362  0.1446 -0.0164  0.0758
19341W        W34472   3.710  12.872   3.493 -0.1928  0.1661  0.0579
19342W        W34473   8.624   9.219  13.312  0.3051 -0.0468 -0.2553
19343W        W34474   6.011   9.271  11.245  0.0689  0.2128  0.0484
19344W        W34475  17.428   9.915   3.784  0.1276  0.1465 -0.2079
19345W        W34476  15.268   5.532   1.758  0.1487  0.3386  0.0955
19346W        W34477   9.017  12.800  14.884  0.0808 -0.0805 -0.2360
19347W        W34478   7.918   1.864  12.658 -0.1654 -0.2237  0.1069
19348W        W34479  17.526  16.747   4.341 -0.1435  0.4695  0.2978
19349W        W34480   2.730  10.392  13.283  0.0799  0.0680 -0.2506
19350W        W34481  15.028  14.261   0.992 -0.1151  0.5804  0.1009
19351W        W34482   9.038  17.859   4.385  0.0580 -0.2574 -0.0946
19352W        W34483  16.408   9.622  14.789 -0.2953 -0.2017  0.3696
19353W        W34484   6.161  12.036   3.691  0.1088  0.0575  0.3609
19354W        W34485  17.873  16.477   1.088  0.0038  0.1906  0.2272
19355W        W34486   0.062   9.020   5.761  0.2871  0.1752  0.0505
19356W        W34487  16.171  11.863  15.107 -0.0510 -0.3636  0.0423
19357W        W34488   6.458  10.778   1.048  0.2191 -0.0558  0.0941
19358W        W34489  11.953   2.653   4.967 -0.2976  0.0877 -0.1684
19359W        W34490  16.134   2.365   0.036  0.2056 -0.0813 -0.0496
19360W        W34491  13.146  12.480   2.120  0.1641 -0.0942  0.2258
19361W        W34492  10.160  12.467   1.846  0.1837 -0.2351 -0.1796
19362W        W34493   3.068  10.049  11.678 -0.3938  0.1686  0.1740
19363W        W34494   1.673   8.860   2.453  0.0043 -0.1034 -0.0627
19364W        W34495   6.077  13.407   3.499  0.2036 -0.2714 -0.3990
19365W        W34496  15.032   0.655   2.432 -0.0168 -0.1192  0.4266
19366W        W34497  17.965  14.477   0.354  0.2450  0.0004  0.1640
19367W        W34498   2.927   4.334   1.509  0.0094  0.0087 -0.0472
19368W        W34499   7.236   1.757  11.602  0.1974  0.1560 -0.0859
19369W        W34500  11.582   3.542  12.354 -0.1896 -0.0299  0.1591
19370W        W34501   4.154  15.522  11.482 -0.2599  0.1134  0.1260
19371W        W34502   9.408   4.645  15.526  0.3082 -0.0897 -0.1958
19372W        W34503   3.523  15.409   4.351 -0.5309  0.0061  0.0184
19373W        W34504   6.831   1.582   1.530  0.0217 -0.0483 -0.0411
19374W        W34505  15.478   4.468  15.135  0.0363  0.1933  0.0560
19375W        W34506  16.186   4.848   5.589  0.0434  0.0684 -0.0518
19376W        W34507   1.087  17.816  15.663  0.1409 -0.2376 -0.1740
19377W        W34508  13.094  16.677   0.916  0.0010 -0.3932  0.0550
19378W        W34509  13.846  11.166  14.624 -0.3169  0.0449 -0.0751
19379W        W34510  12.888  16.374   6.239 -0.1158 -0.0203 -0.0806
19380W        W34511   6.158   0.591  15.540  0.1100  0.2771 -0.0541
19381W        W34512   4.248   3.366   1.047 -0.2194 -0.0933 -0.1074
19382W        W34513  17.154   0.872   4.433  0.2174  0.0667  0.2274
19383W        W34514  10.655   4.630  13.191  0.2290  0.0146 -0.0628
19384W        W34515   3.987   9.688   1.158  0.3698 -0.0779  0.1915
19385W        W34516   0.847   4.508  15.351  0.0868 -0.1378  0.0700
19386W        W34517   2.589   0.808   6.019 -0.0663 -0.4257 -0.2999
19387W        W34518  15.135   1.446  12.838  0.0848 -0.2505  0.0308
19388W        W34519  11.008   4.598  14.310 -0.1122  0.1601  0.1508
19389W        W34520   1.408   8.194   4.835 -0.0573 -0.3103 -0.0158
19390W        W34521   4.529   2.080   2.452  0.0577 -0.0751 -0.0237
19391W        W34522  13.365   4.984   4.388  0.1050  0.2794  0.2020
19392W        W34523   8.964  17.456  12.726  0.2619  0.2618 -0.1377
19393W        W34524   0.628   0.679   3.883 -0.1361 -0.0168  0.1814
19394W        W34525   7.664   0.148  11.679 -0.0164 -0.0422 -0.1270
19395W        W34526   1.511   0.434  11.724  0.2207 -0.3920 -0.1576
19396W        W34527  14.711  10.554   2.359  0.1159  0.1386 -0.0564
19397W        W34528  10.105   5.216   5.022  0.1350 -0.1298  0.0622
19398W        W34529  13.112   0.855  10.665  0.0830  0.2027  0.3074
19399W        W34530  15.005   5.421  15.833 -0.0606 -0.2638  0.0011
19400W        W34531   9.672   5.902  14.810 -0.4548 -0.1553  0.2578
19401W        W34532  16.252   1.008   0.916  0.3028  0.0231 -0.2908
19402W        W34533   3.054   5.288   0.917  0.0222 -0.1568 -0.0725
19403W        W34534   5.674  17.381  13.775 -0.1505 -0.1378  0.3042
19404W        W34535  14.976   0.869  14.068 -0.0225 -0.3059  0.2025
19405W        W34536   9.553  12.997   1.295  0.1889 -0.2734  0.0218
19406W        W34537   9.698  11.425   2.134  0.1281 -0.2092 -0.1497
19407W        W34538  15.830  11.447   0.144  0.0015 -0.1725  0.0295
19408W        W34539   4.449   2.026   0.413 -0.0767  0.3750  0.0908
19409W        W34540  12.781   3.046  15.553  0.4366 -0.1328  0.1223
19410W        W34541  14.133  11.685   2.564 -0.4321 -0.2542 -0.2033
19411W        W34542   5.923   5.317  14.927 -0.0788  0.2868  0.1239
19412W        W34543  10.697   1.477  11.845  0.0471 -0.3137  0.1779
19413W        W34544  14.760  13.261  14.128 -0.2248 -0.1196  0.0804
19414W        W34545  17.347   8.409  13.629  0.5018 -0.0375  0.0982
19415W        W34546   9.830  11.330  14.609  0.3523  0.1286 -0.0967
19416W        W34547   1.060   1.575   3.806 -0.1526 -0.4966  0.0592
19417W        W34548  10.941   6.493  14.682  0.0985 -0.0150  0.0668
19418W        W34549  14.751  10.053  12.526  0.3596  0.1589 -0.1289
19419W        W34550   4.874   1.903   0.911 -0.0732  0.2685  0.0858
19420W        W34551  17.722   5.285  13.000 -0.0642  0.0858  0.1555
19421W        W34552  11.614  16.793  12.519  0.6270 -0.0057 -0.0727
19422W        W34553  11.864   9.360  15.090  0.2463  0.0038  0.2562
19423W        W34554  15.096  10.848   4.696 -0.0848 -0.1610 -0.0320
19424W        W34555   1.372   8.393   5.504 -0.2834 -0.0087  0.2183
19425W        W34556  15.007  15.815   0.432 -0.0718  0.1930  0.3490
19426W        W34557   8.566  16.927   4.523  0.0902  0.0257  0.1220
19427W        W34558  17.265  11.444  15.641 -0.3971  0.0470 -0.0688
19428W        W34559  10.291  15.290   3.343  0.0994 -0.0828  0.3170
19429W        W34560   0.828  12.744   4.864 -0.0317  0.2010  0.2111
19430W        W34561  14.949   7.635   4.853  0.0687  0.1712 -0.1194
19431W        W34562  11.687  13.113   4.288 -0.2080 -0.1576 -0.3243
19432W        W34563   2.118  14.701  12.534 -0.1088  0.0172 -0.0655
19433W        W34564  15.093   1.094  16.071  0.0696 -0.0999  0.0662
19434W        W34565   8.875   1.965  14.997 -0.1556  0.1780 -0.0540
19435W        W34566  13.143   2.463   2.592 -0.0061  0.2151 -0.1225
19436W        W34567  13.244   6.383  11.749 -0.1740 -0.1524 -0.3373
19437W        W34568  18.054   3.199  14.639 -0.1827 -0.0087 -0.2179
19438W        W34569  14.194   9.096  12.495  0.2653 -0.2293 -0.0270
19439W        W34570   4.682   8.975   4.532 -0.0841  0.0483 -0.1721
19440W        W34571  15.523  11.398   1.311  0.1081 -0.1597 -0.0944
19441W        W34572  11.566  12.100  12.467 -0.1192 -0.4504  0.0092
19442W        W34573  17.415   8.589  14.976  0.1632 -0.2795 -0.2698
19443W        W34574   5.947  13.315   2.829 -0.1184 -0.1795 -0.1858
19444W        W34575   4.650  12.300   0.086 -0.1039  0.0780 -0.1580
19445W        W34576   7.630   3.945   4.066 -0.1507 -0.4168 -0.0135
19446W        W34577  13.108   3.296  12.253  0.2164  0.3849  0.0439
19447W        W34578   6.730  15.674  15.914 -0.1394 -0.2242  0.0190
19448W        W34579   9.722  16.063  14.540 -0.3503  0.1584 -0.1291
19449W        W34580  12.794   6.924   0.373 -0.2350  0.4183 -0.1681
19450W        W34581  10.999  17.220  15.770 -0.0587 -0.1175  0.3403
19451W        W34582   2.975   4.267   5.382 -0.3042  0.1334 -0.0570
19452W        W34583   2.239   5.895   1.770 -0.1393  0.0007  0.1013
19453W        W34584  13.045   8.295   5.894 -0.0647  0.4091 -0.0295
19454W        W34585   5.097  12.867   0.970 -0.1061  0.0079 -0.2748
19455W        W34586  11.429   2.142  11.860 -0.1406  0.0060  0.1332
19456W        W34587   0.910   8.168   5.270  0.0176  0.1998  0.2298
19457W        W34588   1.587  16.636   2.197  0.3443 -0.0276 -0.3925
19458W        W34589  10.092   2.607  15.379 -0.1936 -0.2744  0.3592
19459W        W34590   3.148   3.789   3.237  0.3097 -0.3044 -0.0187
19460W        W34591   7.100   6.702   1.593  0.2855  0.0051  0.0513
19461W        W34592   6.158   5.727   0.718  0.1696  0.1042 -0.0647
19462W        W34593  17.537  16.830  15.292 -0.0298  0.0884  0.1255
19463W        W34594  14.143  16.664  14.477 -0.1996  0.1003 -0.1853
19464W        W34595   9.820   2.894  15.060  0.2274  0.1301  0.0055
19465W        W34596   8.098   5.125   3.203  0.0390 -0.1734  0.0053
19466W        W34597   5.722  12.411  13.166 -0.0788  0.0990  0.0687
19467W        W34598  15.944   3.848   2.744  0.0981 -0.1692  0.1891
19468W        W34599   9.842   3.752  11.241 -0.1208 -0.1139 -0.2025
19469W        W34600   9.198  15.650   4.492 -0.2165  0.2446 -0.1627
19470W        W34601   6.238   3.888  12.107  0.0525  0.0173  0.0201
19471W        W34602   0.994  11.148   1.089  0.1367 -0.0988  0.0332
19472W        W34603  17.682  11.916   4.989 -0.1653 -0.0515 -0.2615
19473W        W34604   9.778   4.514   0.877  0.1828  0.0329  0.0529
19474W        W34605  10.134   6.820   9.742 -0.0313 -0.2354 -0.0719
19475W        W34606  12.366   0.972   4.519  0.1251 -0.0115 -0.0191
19476W        W34607  10.732  10.088  14.709  0.0555  0.3434 -0.2581
19477W        W34608   4.464  11.034   5.339 -0.2049  0.2842  0.2005
19478W        W34609   3.714   9.731  14.148 -0.0399  0.1127 -0.1087
19479W        W34610  14.655   2.950   6.586  0.0773  0.2952  0.1507
19480W        W34611   2.224  15.780  14.435 -0.1840 -0.2310 -0.0902
19481W        W34612   7.833  13.202  15.469  0.1261  0.0669 -0.2001
19482W        W34613   2.308  17.866   1.229  0.0302 -0.0043  0.0589
19483W        W34614   5.867  12.140   4.703  0.0410  0.1711  0.1913
19484W        W34615  13.332   2.724  15.956 -0.2185  0.1787  0.2542
19485W        W34616   5.465   5.834  15.353  0.3209  0.1310 -0.2391
19486W        W34617   6.893  13.299   0.303  0.1188  0.2561 -0.0374
19487W        W34618  17.818  12.279  12.862  0.1244  0.0759 -0.0438
19488W        W34619   4.207   5.006  11.884  0.1077 -0.0482 -0.0678
19489W        W34620   5.230   7.605   0.692 -0.1284  0.1155 -0.1129
19490W        W34621  11.495   6.503   4.251  0.1031  0.0896  0.3620
19491W        W34622   4.814   1.165  15.987  0.1171 -0.1112 -0.1597
19492W        W34623  15.135   2.428   3.268 -0.0042 -0.0198  0.0773
19493W        W34624   1.913  10.089  10.597  0.2118 -0.4272  0.0285
19494W        W34625   9.141  13.548   3.536  0.0682  0.2082  0.1010
19495W        W34626   0.976   9.986  16.201 -0.0958 -0.0975 -0.0525
19496W        W34627  17.667   6.226  11.905  0.0048  0.1603  0.4002
19497W        W34628   2.463  16.271   1.037  0.3584  0.0362 -0.1768
19498W        W34629  13.931   1.286  16.359  0.3081  0.0680 -0.2768
19499W        W34630   5.136   7.161  16.304  0.0966  0.0989 -0.4865
19500W        W34631   3.827   3.282   4.839 -0.3445  0.1154 -0.1322
19501W        W34632   1.192  14.011  15.121  0.0257  0.0475 -0.2553
19502W        W34633   9.403  18.007  11.673 -0.3962  0.2097  0.0644
19503W        W34634   0.429  11.892   2.116 -0.2094  0.0762  0.0476
19504W        W34635  13.414   0.674  13.734  0.0502  0.0453  0.1649
19505W        W34636  11.843   0.406  15.634  0.0763 -0.1175  0.0355
19506W        W34637   0.040   8.448  16.290  0.1212 -0.1228  0.0987
19507W        W34638   2.107  10.542  12.337 -0.3284  0.1202 -0.0439
19508W        W34639  12.434   5.709   4.002  0.1798  0.1818 -0.2343
19509W        W34640   5.145  16.400   5.132 -0.1472  0.3377 -0.0713
19510W        W34641  13.454  11.211  11.818 -0.2334 -0.2954  0.1724
19511W        W34642   2.140   0.531  14.069 -0.2213  0.1734 -0.3976
19512W        W34643  16.476  11.442  14.355  0.1116 -0.3865 -0.0898
19513W        W34644  14.272   4.089   3.404  0.2557 -0.5011 -0.4950
19514W        W34645  14.509   6.570  16.297  0.2682 -0.1610  0.0217
19515W        W34646   3.532  11.471   0.978 -0.1098  0.0155  0.2023
19516W        W34647  10.097   1.598  13.725  0.0701 -0.2869 -0.0481
19517W        W34648   2.511   8.969   2.640 -0.1366 -0.1185  0.0249
19518W        W34649  11.457   5.407   3.529 -0.1502  0.0357  0.1568
19519W        W34650   0.305   4.847  14.988 -0.1115 -0.0719  0.0327
19520W        W34651   0.795   5.935  13.119  0.0809  0.0466 -0.3603
19521W        W34652  17.457   2.054  12.155 -0.0847 -0.0509 -0.1667
19522W        W34653  10.001   4.123  12.189 -0.0098 -0.3384 -0.0599
19523W        W34654  17.836  10.903   0.397 -0.2020 -0.2031 -0.2665
19524W        W34655   9.385   0.947  14.309  0.0186 -0.0072 -0.1867
19525W        W34656   7.921   9.120  15.367  0.1305  0.0689  0.1266
19526W        W34657   7.796  15.418   1.803 -0.0895  0.2820 -0.0122
19527W        W34658   7.135   8.372  14.553 -0.0115  0.3162  0.3702
19528W        W34659   5.769  15.969  15.461 -0.2703  0.0685  0.3257
19529W        W34660  16.765   5.815  11.784 -0.1717 -0.0891 -0.4869
19530W        W34661  10.038   1.975   5.602 -0.1262 -0.1967 -0.0248
19531W        W34662   0.199   3.963   0.627  0.1693 -0.0769  0.1131
19532W        W34663  12.309  12.848   5.601  0.0034  0.0735  0.0887
19533W        W34664  17.688   8.729  16.411 -0.2020  0.0383  0.2173
19534W        W34665   9.012  16.684   2.065  0.1781  0.1632  0.4091
19535W        W34666   4.184  10.833  16.264  0.1312 -0.0369  0.0776
19536W        W34667   1.950   1.717  13.647 -0.1605  0.2468 -0.3678
19537W        W34668  11.718  11.684   4.095  0.1562 -0.2378 -0.0453
19538W        W34669  11.509   0.792   0.307 -0.0549  0.2311  0.2254
19539W        W34670  14.654   6.326   2.303 -0.1257 -0.1549 -0.0355
19540W        W34671   5.300   2.875  13.973 -0.1212  0.0704  0.0555
19541W        W34672   7.178   9.162  11.672 -0.0182  0.3054 -0.1049
19542W        W34673   1.330   1.660   0.049 -0.0901  0.1661 -0.0744
19543W        W34674  16.143   7.416   3.323 -0.0124  0.1255  0.1547
19544W        W34675   7.942  10.853   1.689  0.0339  0.2778 -0.1094
19545W        W34676   1.668  16.500   0.838  0.3470 -0.0732 -0.0495
19546W        W34677   7.833   8.666  14.473  0.0418 -0.0818  0.1728
19547W        W34678   9.152   5.098   3.023  0.2178 -0.0029  0.1404
19548W        W34679   0.481   4.139  12.034  0.0468 -0.3011 -0.0867
19549W        W34680  17.713   3.152  14.244  0.0664  0.0828  0.1566
19550W        W34681   3.886   9.028  14.691 -0.2248 -0.2577 -0.0495
19551W        W34682   7.833  13.197  11.499  0.0027 -0.2276  0.3156
19552W        W34683   3.620   4.258  14.001 -0.0216 -0.0393  0.0499
19553W        W34684  14.207  17.564   4.565 -0.1984 -0.2956 -0.2037
19554W        W34685   1.072   4.660   2.854 -0.0439  0.1614  0.1837
19555W        W34686   4.749  14.096  14.767 -0.3571  0.0391  0.4892
19556W        W34687   2.365   2.186  15.565 -0.1132 -0.0918 -0.1360
19557W        W34688  11.770   0.261   2.200 -0.0452  0.0629 -0.1946
19558W        W34689  17.484  17.346   1.038 -0.3354  0.2239  0.0421
19559W        W34690  17.767  17.629   4.240 -0.1244 -0.0657 -0.1385
19560W        W34691  15.307  16.478   3.622 -0.1661  0.2094 -0.3653
19561W        W34692   2.454  13.099  16.241 -0.3928 -0.1893 -0.0754
19562W        W34693  13.362  13.518   2.086 -0.0321  0.2952  0.0361
19563W        W34694   5.980   8.905  15.190 -0.0006  0.2716  0.3343
19564W        W34695  16.819   7.364  14.832 -0.1114  0.0391 -0.0053
19565W        W34696  11.899  18.026  12.409  0.1801 -0.3280  0.1409
19566W        W34697   1.768   3.015   3.814 -0.0016  0.2621 -0.1370
19567W        W34698  10.805   4.907   4.569  0.0722  0.1648  0.0393
19568W        W34699   3.912   0.033   1.301 -0.0702  0.0587  0.0244
19569W        W34700  15.048   5.830  11.286  0.2883  0.0930 -0.3222
19570W        W34701  10.501   5.639   2.781 -0.0338 -0.1426  0.1800
19571W        W34702   1.267   0.522  14.425  0.1497 -0.2483 -0.0015
19572W        W34703  10.418   4.435   0.235  0.1641  0.2786 -0.2554
19573W        W34704   2.860   9.004   2.999  0.0879  0.0378  0.2969
19574W        W34705   7.069   0.455  14.502 -0.1587 -0.0154  0.4552
19575W        W34706   0.163   9.519   0.888 -0.0240 -0.0924 -0.3493
19576W        W34707   9.026   6.484   2.266 -0.1394 -0.0310 -0.0483
19577W        W34708   1.589  13.862  15.313 -0.4035 -0.1581  0.0128
19578W        W34709   6.542  12.789  13.211 -0.3236 -0.1497  0.3906
19579W        W34710   0.279  12.501   2.056 -0.1763 -0.1419  0.4384
19580W        W34711  14.915  17.636   2.394 -0.0252  0.3659  0.2149
19581W        W34712  13.836  10.089   6.034 -0.1986 -0.0126 -0.0793
19582W        W34713  12.517  12.854  11.455 -0.0731  0.2073  0.2009
19583W        W34714   8.371   7.268  11.966  0.2440 -0.2109 -0.0243
19584W        W34715   8.899  15.671  14.695  0.1034 -0.2220  0.1465
19585W        W34716   8.889   2.679   1.338  0.0635 -0.0398 -0.3454
19586W        W34717   3.982  16.469   4.389 -0.0500 -0.0603 -0.0075
19587W        W34718  12.036  14.244  14.476 -0.0898 -0.1177 -0.0727
19588W        W34719   4.985   5.829   2.998  0.1176  0.0667 -0.0306
19589W        W34720   8.184   9.590   4.842  0.0839  0.1213 -0.2927
19590W        W34721  16.061  13.938   1.028  0.2852 -0.0492 -0.1281
19591W        W34722   0.694   8.843   3.288  0.0624 -0.0224 -0.0050
19592W        W34723  11.617   4.709   0.409  0.0489 -0.3160  0.0601
19593W        W34724  12.211   9.758  13.032  0.0684 -0.1833  0.2573
19594W        W34725  15.775   3.284   4.692  0.1829  0.2667  0.0224
19595W        W34726   2.780  11.239   2.159  0.1228  0.0414  0.2523
19596W        W34727  10.890  16.374  13.874  0.1875  0.1664 -0.0534
19597W        W34728  14.612   5.640   4.176 -0.0304  0.2563  0.3034
19598W        W34729  14.075  12.479  14.614  0.1610 -0.1743  0.2800
19599W        W34730  14.852   8.546  15.633  0.1544  0.1971  0.0131
19600W        W34731   2.641   0.258  16.259 -0.2247  0.0831 -0.0788
19601W        W34732   7.397   2.479   5.133  0.0269 -0.3143  0.3980
19602W        W34733   1.918  17.867  13.439  0.0259  0.0913  0.1482
19603W        W34734   9.303   7.498  14.910 -0.1705  0.1449 -0.0707
19604W        W34735   4.157   0.323   0.699  0.0068  0.4673  0.1207
19605W        W34736  12.120   5.510   1.216 -0.0071 -0.0853  0.0230
19606W        W34737   0.351  13.277  12.119 -0.0255 -0.1372 -0.0913
19607W        W34738  14.033  13.923  15.588 -0.1772  0.1651 -0.4125
19608W        W34739  13.522   2.792  16.445  0.0641 -0.2207 -0.0426
19609W        W34740  14.410   1.722   2.945  0.2203 -0.1037 -0.1168
19610W        W34741  13.862   6.770   2.452  0.2471 -0.1926  0.2574
19611W        W34742  14.497  12.233   5.335  0.0442 -0.4124  0.0138
19612W        W34743  11.056   9.205  11.978  0.1058  0.0938  0.0364
19613W        W34744  12.703   2.252  12.119 -0.0474  0.0583 -0.2054
19614W        W34745   7.450   1.007  13.493 -0.3612  0.0424  0.0890
19615W        W34746   3.147   4.542   4.254 -0.0654  0.1581 -0.1902
19616W        W34747   4.891   9.592  13.246  0.0169 -0.0632  0.2005
19617W        W34748  16.585  10.644  11.712  0.1451  0.1244 -0.0496
19618W        W34749   4.623  17.112  13.672  0.1410 -0.0663 -0.0061
19619W        W34750   0.689   7.783   6.059  0.0652  0.1039 -0.0058
19620W        W34751   9.607  14.569   1.075  0.0062  0.0218  0.1370
19621W        W34752   7.699  16.961  12.038  0.1804 -0.2231  0.1122
19622W        W34753  11.199   5.301  14.002 -0.0848  0.3618 -0.1271
19623W        W34754   6.899  13.066   2.005  0.1915 -0.2358  0.1259
19624W        W34755  15.675  17.716  15.845 -0.4028 -0.4762  0.1102
19625W        W34756  13.260  11.381  11.242  0.0425 -0.1746 -0.0918
19626W        W34757   4.166  14.086  13.060  0.0142  0.0809  0.0274
19627W        W34758   3.286   1.744  11.161  0.1663 -0.1868  0.1755
19628W        W34759  14.827  10.485   2.830  0.0990 -0.1344 -0.0759
19629W        W34760   3.235  11.431   4.154 -0.5579 -0.2813  0.0050
19630W        W34761   6.401   9.601   1.278  0.3482 -0.0843  0.3561
19631W        W34762  17.987   4.745   0.706 -0.0502 -0.2206 -0.2936
19632W        W34763  11.466  16.727  10.443 -0.3104  0.0984 -0.1840
19633W        W34764  14.115   5.969  13.888  0.0585 -0.3729  0.1602
19634W        W34765  17.598   2.199  14.386  0.1807  0.1731  0.0688
19635W        W34766   7.587  17.377   5.906 -0.0097 -0.1043  0.0386
19636W        W34767  15.301  16.541   4.490 -0.0759  0.2652 -0.1568
19637W        W34768  13.894   5.389  10.976  0.3393  0.0870 -0.1843
19638W        W34769   3.189   0.785  14.035  0.0304  0.0817  0.1936
19639W        W34770   6.517  16.096  11.724 -0.1242  0.1118 -0.1599
19640W        W34771   9.395   5.831  12.267 -0.2237 -0.2170  0.0258
19641W        W34772  13.139  17.417  15.330  0.2695  0.2390 -0.1505
19642W        W34773   9.483  16.463  16.343 -0.0630 -0.0403  0.1819
19643W        W34774  12.732   0.288   0.851  0.1574  0.1286  0.0913
19644W        W34775  10.109   2.939  13.582 -0.0579  0.3658 -0.1324
19645W        W34776   3.920  14.133  13.526  0.1075  0.0058 -0.1979
19646W        W34777  16.204  16.065  13.488  0.0465 -0.3582  0.0977
19647W        W34778   5.098  12.023   3.514  0.1340  0.1809  0.0856
19648W        W34779   8.168  12.289  14.612 -0.1013 -0.1218 -0.2133
19649W        W34780   9.446   3.418   5.146 -0.0800  0.2853 -0.0870
19650W        W34781   8.415   1.925  16.252 -0.2037  0.0480 -0.1113
19651W        W34782   6.574   1.553  13.425 -0.2611  0.0013  0.0338
19652W        W34783   2.315  10.583   0.435 -0.1439  0.1468  0.0608
19653W        W34784   2.857  11.563  12.234  0.1620 -0.0663  0.0065
19654W        W34785   8.797   4.032   1.183 -0.1023  0.3023  0.1099
19655W        W34786  14.539   9.479  12.600  0.0074 -0.1201  0.1606
19656W        W34787   4.379  16.823   2.964 -0.3195 -0.0448  0.0091
19657W        W34788   5.087  15.286   2.254 -0.0410 -0.1371 -0.0695
19658W        W34789   7.567   5.995  10.734 -0.0761 -0.3199  0.2749
19659W        W34790   7.813  11.784   0.679  0.0573  0.1053 -0.1771
19660W        W34791  16.893  17.378   3.691  0.1947  0.1271 -0.0059
19661W        W34792   8.530  16.653  14.750  0.1006 -0.1104 -0.3715
19662W        W34793   3.033  10.488  15.350 -0.2542 -0.0842  0.0140
19663W        W34794  14.378   2.593  14.972  0.0666  0.0613  0.0017
19664W        W34795  10.756   7.666   2.762  0.1004 -0.0309  0.0260
19665W        W34796  12.870  15.696  14.710 -0.0104 -0.0175 -0.0819
19666W        W34797   1.861   5.174   0.132  0.0408 -0.2548 -0.1197
19667W        W34798  10.130  13.758   1.824  0.2120 -0.1590 -0.0030
19668W        W34799   4.072   8.522   4.082 -0.1351 -0.2652 -0.1447
19669W        W34800   0.370  14.325   3.804  0.0801 -0.2177 -0.1602
19670W        W34801  13.261   9.162   4.432  0.0318  0.2358  0.1290
19671W        W34802   1.833   3.920   3.841  0.1284  0.2904  0.0790
19672W        W34803  16.407   3.961   2.676 -0.1285 -0.0426  0.1501
19673W        W34804   7.878  15.725  15.423 -0.0912  0.1369 -0.0263
19674W        W34805   9.376  11.724   3.013  0.3976  0.2093 -0.1106
19675W        W34806  10.721  11.627   4.292 -0.0334 -0.2101 -0.1843
19676W        W34807   6.153  16.698   5.898 -0.2155  0.0548  0.0462
19677W        W34808   9.754   2.153   4.611  0.1014 -0.1479  0.1113
19678W        W34809  14.575  17.783  11.496 -0.1606  0.0046  0.0454
19679W        W34810   8.872   0.668   1.168 -0.0434 -0.1638 -0.2358
19680W        W34811   0.471  13.063  13.978  0.1531 -0.1015  0.2028
19681W        W34812  15.257   0.443  13.433  0.0444  0.0033  0.1357
19682W        W34813  10.334   0.106   5.135 -0.2983 -0.0278  0.1576
19683W        W34814   5.899  14.280   1.318 -0.2367 -0.0724  0.2821
19684W        W34815   6.191   7.655   0.910 -0.0661 -0.3531  0.2465
19685W        W34816  14.343   3.010  12.182  0.1198 -0.0330  0.3031
19686W        W34817  12.885   3.587  14.502 -0.3000 -0.1114  0.2905
19687W        W34818  15.652  14.968  14.903 -0.0496  0.1873 -0.3847
19688W        W34819   9.002   6.040  13.443  0.1555  0.0471  0.0401
19689W        W34820   2.119   6.463  12.448 -0.0530 -0.0953  0.1459
19690W        W34821  13.438   5.184   3.790 -0.3661  0.0954 -0.0428
19691W        W34822   0.260  11.728  14.143  0.0534 -0.2056  0.1690
19692W        W34823  14.638   9.473   2.690  0.0070  0.0130  0.0837
19693W        W34824   8.559  17.006  13.673  0.0692 -0.2589  0.0314
19694W        W34825   1.207  13.093  16.120  0.1115 -0.0710  0.1356
19695W        W34826   3.563  12.080   3.166  0.2402  0.2831 -0.1337
19696W        W34827  13.384  14.257   1.869  0.0222 -0.0203 -0.0935
19697W        W34828  11.789   7.177  14.756  0.1052 -0.1947 -0.2215
19698W        W34829   4.012  16.120   3.657 -0.3509 -0.1017 -0.0471
19699W        W34830  10.773   4.380  10.511  0.4902  0.2309  0.2307
19700W        W34831   5.070  10.152  10.990  0.0126 -0.1179  0.1373
19701W        W34832   3.597   6.351  13.907  0.1398  0.4221 -0.1017
19702W        W34833   5.343   7.368  15.869  0.2304 -0.3568  0.1644
19703W        W34834   9.699   7.726  16.260 -0.1695  0.1151 -0.2379
19704W        W34835   6.727   6.751   5.380 -0.1319 -0.0937  0.2286
19705W        W34836   8.343   3.509   0.660  0.1020  0.1524  0.3173
19706W        W34837   4.253  11.386   1.655 -0.3163 -0.1208  0.0384
19707W        W34838   6.239  16.568   2.520 -0.0358 -0.0481 -0.2109
19708W        W34839  17.376   3.081   3.436 -0.2276  0.4608  0.2154
19709W        W34840   5.710   9.357  16.032  0.2636  0.2746  0.1373
19710W        W34841   7.044  13.632  14.892 -0.2053 -0.2489  0.0976
19711W        W34842   4.311   8.121  15.235  0.1134 -0.0321 -0.1187
19712W        W34843   7.008   7.807  12.810 -0.1094 -0.1373  0.0181
19713W        W34844   9.588  14.884  14.415  0.0898 -0.2743 -0.1101
19714W        W34845  11.541   0.126   3.132  0.0069  0.0782 -0.0526
19715W        W34846   9.680  12.390   1.645  0.0141 -0.1928  0.2224
19716W        W34847  14.282   1.439   0.811  0.3490  0.0217 -0.0481
19717W        W34848   5.976  15.183   1.320 -0.1228  0.1160  0.1159
19718W        W34849   7.008  16.341   0.106  0.1536 -0.1367 -0.1635
19719W        W34850   2.919  16.260  13.285  0.0795 -0.0144  0.1982
19720W        W34851   2.669   9.472   4.481 -0.3866  0.0236 -0.3205
19721W        W34852   2.006   1.204   4.125  0.2581  0.1259 -0.2835
19722W        W34853  14.140  13.063   4.486 -0.3199 -0.1429  0.3303
19723W        W34854   6.030  12.579   2.193 -0.1700  0.0283  0.0915
19724W        W34855   2.934  17.424   4.328 -0.0814  0.1891  0.1120
19725W        W34856  10.029   7.852  11.576 -0.0070  0.1982  0.3851
19726W        W34857  16.273   8.171   3.895 -0.1766  0.0936  0.4373
19727W        W34858  12.346  13.142   6.016 -0.0759 -0.2245  0.2535
19728W        W34859  17.662  14.725   5.089  0.1148  0.1210 -0.3094
19729W        W34860   9.234   1.451  14.249  0.0034 -0.0083 -0.0472
19730W        W34861  13.542  16.382  14.989  0.0081  0.0429 -0.3135
19731W        W34862  13.645   6.876   1.944  0.2213 -0.0412 -0.0713
19732W        W34863   7.778   1.997   0.577 -0.3016  0.1317 -0.0120
19733W        W34864   1.601  14.817  15.043 -0.1832 -0.0770  0.1446
19734W        W34865   2.222   0.011  11.380 -0.3436 -0.1926 -0.1317
19735W        W34866   5.334  16.724   1.808  0.3405 -0.0949  0.0152
19736W        W34867  12.880  17.716  10.754  0.2834 -0.0408 -0.2365
19737W        W34868   6.359   1.184  14.547  0.2677  0.0682 -0.2538
19738W        W34869   0.794   2.135   1.897 -0.3176  0.0093 -0.1495
19739W        W34870   7.786   9.040  13.605 -0.2046  0.1607 -0.0203
19740W        W34871  12.337   5.106   0.819  0.1807 -0.0710  0.0962
19741W        W34872   0.610   1.657   1.994 -0.0209 -0.0834 -0.0933
19742W        W34873   2.552   6.487   3.029  0.1879 -0.2708 -0.1949
19743W        W34874   4.769   3.072   5.266 -0.2314  0.0672  0.0164
19744W        W34875  12.051  10.720  15.250  0.2119 -0.0288 -0.2030
19745W        W34876   3.414   4.650   5.829  0.1005 -0.0430 -0.0947
19746W        W34877   8.058  15.082   3.770  0.1942 -0.1109 -0.0538
19747W        W34878  11.998   4.186   5.904 -0.0827  0.3126 -0.2029
19748W        W34879   4.020  11.549  13.595  0.0002 -0.0109  0.0708
19749W        W34880   3.259  11.953   4.033 -0.2036  0.0332 -0.0841
19750W        W34881   4.027  16.066  10.951 -0.2904  0.1861 -0.2704
19751W        W34882   4.862   7.365   1.619  0.2876  0.1872 -0.2233
19752W        W34883  14.296  15.637  11.262 -0.0899  0.0704  0.0969
19753W        W34884   8.389   4.869   4.413 -0.1613  0.3867 -0.1767
19754W        W34885  15.890  15.181   4.530  0.0778  0.0631  0.0393
19755W        W34886   8.969  17.364  16.008 -0.0177  0.1780  0.0727
19756W        W34887   7.793  12.539   0.679  0.0769 -0.1660 -0.0348
19757W        W34888  10.074   6.653  12.899 -0.0844 -0.0647 -0.1214
19758W        W34889   8.488   2.023  15.402 -0.0634  0.2870  0.0055
19759W        W34890  11.746   9.348   2.754 -0.1147 -0.1855 -0.1925
19760W        W34891  12.314  12.560  15.180 -0.0555  0.1353 -0.2331
19761W        W34892   6.787  13.873   5.001  0.2896 -0.2148  0.1122
19762W        W34893   7.155   2.261  13.160 -0.1749 -0.2157 -0.0894
19763W        W34894   5.681   0.013  13.796  0.2752  0.1768 -0.1672
19764W        W34895  10.936   5.357   3.624 -0.1173  0.1525 -0.1709
19765W        W34896  13.714   2.408  12.651 -0.1633  0.0107  0.0479
19766W        W34897   7.999   9.528   4.371 -0.3487  0.0227 -0.0225
19767W        W34898   3.428  13.846  14.538  0.0884  0.2315  0.2728
19768W        W34899  17.400   3.362  11.639  0.1061  0.2442  0.1622
19769W        W34900   1.026  13.408  15.391 -0.1103  0.3103  0.0164
19770W        W34901   0.595  18.077  11.103  0.0418 -0.1533  0.2586
19771W        W34902   4.975  10.932   4.894 -0.2542 -0.0561  0.3405
19772W        W34903  13.741  17.702   3.828  0.0892  0.3287 -0.2901
19773W        W34904   2.890   0.984   2.846  0.0091  0.2029 -0.0655
19774W        W34905  17.859   0.848   3.068  0.0960 -0.2907 -0.2304
19775W        W34906  16.640  17.057   0.441 -0.1982 -0.2632 -0.0976
19776W        W34907   5.906   0.401   3.679 -0.0313 -0.0789 -0.1494
19777W        W34908   5.016   3.716   0.253  0.2922 -0.1115 -0.4560
19778W        W34909  13.660  15.017   3.799 -0.2407  0.0217 -0.1137
19779W        W34910  14.053   5.568   0.461 -0.2159  0.0233  0.1347
19780W        W34911   4.979  11.529   4.313  0.3086  0.1390  0.1251
19781W        W34912   7.462  13.226   4.226  0.1539 -0.0532 -0.0361
19782W        W34913   3.244   5.806  16.367 -0.2877  0.1405 -0.1529
19783W        W34914   7.650  17.379   3.602 -0.0077  0.0912 -0.0625
19784W        W34915  10.110   9.088   2.821 -0.2907  0.0279 -0.0805
19785W        W34916   3.624   7.932   3.590  0.1103  0.1632 -0.1678
19786W        W34917   4.124   8.261  11.556  0.3139 -0.0668 -0.0866
19787W        W34918   1.315   4.969   1.461 -0.1184  0.2013  0.1812
19788W        W34919  17.026   2.899  16.215  0.0145 -0.2443 -0.2407
19789W        W34920  10.639   5.094   2.497  0.1569  0.1397 -0.2319
19790W        W34921  12.575  16.597   4.357 -0.2729 -0.0538 -0.1145
19791W        W34922   7.131  13.032   1.229  0.2757  0.0676  0.0437
19792W        W34923  13.760   9.888   1.362 -0.1039  0.0401 -0.2022
19793W        W34924  14.995   3.057   3.344 -0.1873 -0.0383  0.0767
19794W        W34925   4.582   5.118  11.541 -0.2500  0.0100  0.1326
19795W        W34926  12.934   1.187   4.830 -0.2560 -0.1379  0.3606
19796W        W34927  16.971   0.935   4.879  0.0292 -0.0396  0.0114
19797W        W34928   3.553  15.768  12.132  0.2537  0.1039 -0.2009
19798W        W34929   8.820   0.468   2.240 -0.1690  0.0057 -0.2127
19799W        W34930  15.864   8.935   6.534 -0.5742 -0.1685  0.1234
19800W        W34931  17.192   5.253   1.666  0.0869  0.1132  0.0179
19801W        W34932  17.856   8.104  13.097 -0.0214  0.1271  0.2177
19802W        W34933   4.573   9.455  15.076 -0.0837 -0.0559  0.0951
19803W        W34934  10.010  13.062   2.692 -0.2845  0.0583  0.1001
19804W        W34935   5.962   2.519   1.116 -0.1515 -0.0469  0.2448
19805W        W34936  13.960  13.631  15.088  0.0710 -0.0045 -0.0301
19806W        W34937   0.073   3.388   1.894 -0.2130  0.0222 -0.1593
19807W        W34938   6.160   6.186   3.697 -0.0621  0.2019  0.0915
19808W        W34939   7.904   1.791   4.669 -0.0284  0.0045 -0.0644
19809W        W34940   1.249  17.063   4.796 -0.0420  0.0466 -0.3714
19810W        W34941   5.589  17.991   5.405  0.1628  0.4602 -0.1517
19811W        W34942   7.168  10.447   0.708  0.0305  0.1856 -0.1282
19812W        W34943  11.961  17.744   1.032 -0.2811  0.2116 -0.0889
19813W        W34944   3.238  14.702   4.997  0.2282 -0.0505  0.3573
19814W        W34945   4.079   0.722   4.980 -0.2407  0.2572 -0.2462
19815W        W34946  16.383   5.059   3.251  0.1961 -0.1877  0.2628
19816W        W34947  11.142  10.652  12.997  0.2189 -0.2734 -0.1019
19817W        W34948  17.158   9.743   1.949  0.1507 -0.1495 -0.2600
19818W        W34949  14.956  17.702   3.727 -0.0416  0.1264 -0.0684
19819W        W34950   1.263  12.927   3.028  0.2619 -0.1336  0.0589
19820W        W34951   9.658   9.849   1.889  0.1001 -0.1432 -0.0655
19821W        W34952  15.311   1.063  12.607 -0.1085 -0.0501  0.2018
19822W        W34953  16.963   7.504   0.091  0.0776 -0.0147  0.1453
19823W        W34954   7.540  14.109   0.752 -0.0196  0.0273  0.1061
19824W        W34955  13.057   6.695   0.886 -0.0942  0.1557  0.1932
19825W        W34956  15.796  15.387  16.205  0.0985 -0.0367  0.1912
19826W        W34957  13.360  12.756  12.513  0.2373 -0.3608  0.2331
19827W        W34958  13.322   7.400  11.739 -0.1887 -0.2799 -0.2195
19828W        W34959   8.168  10.249   3.282 -0.0424 -0.4155  0.0498
19829W        W34960   9.536   6.301   3.192 -0.0357 -0.1781  0.2161
19830W        W34961   9.791   6.828   4.254 -0.0051  0.1035 -0.1830
19831W        W34962   1.922   5.693   0.217  0.0466  0.0015  0.0472
19832W        W34963  10.577  17.194   1.987 -0.2361  0.2691 -0.0066
19833W        W34964  17.357   2.397  13.770  0.0220 -0.0273 -0.3263
19834W        W34965   5.873  11.603   1.837  0.1179  0.1244 -0.2247
19835W        W34966   3.680  11.424  12.274  0.0810 -0.0691 -0.0838
19836W        W34967   0.314   6.289   2.080  0.0984 -0.2403 -0.0088
19837W        W34968   1.451   6.210   0.460 -0.2337 -0.1550  0.0100
19838W        W34969  15.024   9.557  12.667  0.1997  0.0175  0.0836
19839W        W34970   1.068  12.841  14.809  0.2750 -0.0326 -0.0098
19840W        W34971  10.762   6.092   9.693  0.0481 -0.1222  0.0010
19841W        W34972  14.663   0.641   3.860 -0.1850 -0.3440 -0.2871
19842W        W34973  11.877  13.311  13.559 -0.0233  0.0213 -0.0152
19843W        W34974  13.336   6.067   4.842 -0.0466 -0.0418 -0.0104
19844W        W34975   3.053   6.492   1.713 -0.1151 -0.1111 -0.1901
19845W        W34976  14.942  14.273   3.240 -0.0363  0.1865  0.2472
19846W        W34977   3.580  10.443   2.247  0.1033  0.4781  0.0092
19847W        W34978   7.419   5.032   1.898 -0.2437  0.0564 -0.2380
19848W        W34979  12.523  16.926   5.030  0.2180  0.2026  0.0735
19849W        W34980   8.936  14.995  14.213 -0.1063  0.1003 -0.1143
19850W        W34981  16.540   7.973  11.961 -0.2143 -0.3242  0.2480
19851W        W34982   6.350   5.682  13.983 -0.1565 -0.1052  0.0724
19852W        W34983  15.859  13.385   2.506 -0.3227  0.0300  0.2242
19853W        W34984  10.851   6.863  11.438 -0.1334  0.0563 -0.0295
19854W        W34985  12.183   8.589  13.317  0.1175  0.2945  0.0489
19855W        W34986  10.034  18.095   3.038 -0.1233 -0.0476 -0.2273
19856W        W34987  11.861   4.403   5.486 -0.0958  0.0104  0.2220
19857W        W34988  16.135   7.150  16.055 -0.0284  0.1465 -0.2462
19858W        W34989   2.387   8.745  10.860 -0.0976 -0.1381 -0.1952
19859W        W34990   1.037  14.567   2.883 -0.0467  0.0445 -0.3260
19860W        W34991  11.021   7.112  15.220  0.2027  0.0021 -0.0598
19861W        W34992  13.172  13.408   5.374  0.0195 -0.0775 -0.0413
19862W        W34993   1.470  15.261  13.513  0.2325  0.0349  0.2040
19863W        W34994  13.263   9.385  14.053 -0.0427  0.1981  0.1075
19864W        W34995  12.674  13.686  15.995 -0.2274  0.1355 -0.1045
19865W        W34996   1.747  11.252   3.000 -0.0813  0.2057 -0.2712
19866W        W34997  11.088  16.544   3.004  0.1178 -0.0677 -0.2347
19867W        W34998   6.748   6.098  16.111  0.0142  0.1928 -0.0878
19868W        W34999   9.216  11.969  14.558  0.0492 -0.1031  0.1546
19869W        W35000  17.544   0.603   0.682  0.5426 -0.1896  0.2729
19870W        W35001  10.977  13.481  13.669 -0.0552  0.1667 -0.1096
19871W        W35002  14.776  10.179  13.918 -0.0053 -0.2877 -0.2379
19872W        W35003   9.444   8.366   3.233  0.1073 -0.1324  0.0616
19873W        W35004  14.710   7.686   2.260  0.0794 -0.3427 -0.0984
19874W        W35005   8.263   2.073  13.465  0.1011 -0.0545 -0.2810
19875W        W35006  11.118   4.340  16.062 -0.1214  0.0595  0.2401
19876W        W35007  11.199  10.799  13.519  0.0307 -0.0131 -0.0919
19877W        W35008  13.154   5.891  11.572  0.0479  0.0111  0.2763
19878W        W35009   8.605   8.913   0.962  0.1533 -0.0724 -0.1661
19879W        W35010   2.119   0.850  11.843 -0.2052  0.0311  0.0362
19880W        W35011   6.348   7.008   0.525 -0.0331 -0.0123 -0.1659
19881W        W35012   3.497   6.134  10.643  0.2454  0.0728  0.0226
19882W        W35013  13.274   3.811   5.379  0.3854 -0.1243  0.0080
19883W        W35014   6.537   6.732   3.327  0.1664 -0.1550  0.0082
19884W        W35015  14.026   4.752  15.306 -0.2772 -0.0633 -0.0292
19885W        W35016  17.076   1.861  12.597 -0.2164  0.0441  0.2140
19886W        W35017   7.511  14.272   3.209  0.3061 -0.1796  0.0299
19887W        W35018   7.194   4.559   0.879 -0.0747  0.1345  0.1653
19888W        W35019   0.409   3.606  11.876 -0.0984 -0.0535  0.0068
19889W        W35020   7.492  17.335  13.363 -0.3092 -0.2767  0.0007
19890W        W35021  11.585  17.571  13.982 -0.0935 -0.2603 -0.2994
19891W        W35022   6.930   6.404   0.867  0.1382 -0.1455  0.0997
19892W        W35023   8.906  11.984   3.307  0.0721 -0.2176 -0.2365
19893W        W35024  12.799   6.396  12.770 -0.2747 -0.0688  0.0329
19894W        W35025   6.301   8.231   0.009  0.2177 -0.0432  0.1698
19895W        W35026   5.841   0.570  13.924  0.3029  0.0814 -0.0850
19896W        W35027  17.300   5.927  14.945  0.0911  0.1062 -0.3809
19897W        W35028  12.453   9.623  14.830 -0.0642 -0.0730 -0.0528
19898W        W35029   3.593   1.558   0.209 -0.1997  0.0083 -0.1530
19899W        W35030  11.534   6.058  15.181 -0.2128  0.0345  0.2143
19900W        W35031  12.235  16.226   4.679 -0.1098  0.0668 -0.1279
19901W        W35032   4.527   7.223  14.541 -0.1889 -0.0111  0.1063
19902W        W35033   7.431  14.619  16.295 -0.0929  0.0871  0.0931
19903W        W35034   1.230  11.861  11.624 -0.0419 -0.1375 -0.4047
19904W        W35035   4.869  16.777  11.452 -0.0503  0.2781  0.0192
19905W        W35036   0.767  13.756   0.289  0.2284  0.1776 -0.0643
19906W        W35037   3.447  13.136   5.436  0.3516 -0.0365  0.0406
19907W        W35038  14.097  12.182   1.505 -0.2616 -0.0958  0.2653
19908W        W35039   2.491   2.909  15.278  0.1426 -0.0777  0.3272
19909W        W35040   4.326   8.951   4.190  0.3435  0.0526  0.1029
19910W        W35041  16.107   9.755  15.324 -0.3083 -0.1600  0.0037
19911W        W35042  12.489  14.559  13.838  0.1378 -0.0824  0.0658
19912W        W35043  14.786   1.697  13.174 -0.0703 -0.1066 -0.0247
19913W        W35044   3.099   4.014  13.231 -0.1166  0.1337  0.0156
19914W        W35045  16.571   9.602   6.200 -0.3049  0.1036  0.0695
19915W        W35046  15.119  18.083  13.168 -0.2015  0.2912 -0.0144
19916W        W35047  12.571  13.768   4.880  0.3810  0.4061  0.0758
19917W        W35048   3.990   6.730   1.502 -0.2584  0.1430 -0.2370
19918W        W35049  11.174   1.619   4.849 -0.1420 -0.0469  0.0586
19919W        W35050   9.576  16.099   1.920  0.2024 -0.0867 -0.0217
19920W        W35051  10.141   9.096  15.906  0.1467 -0.2214 -0.2168
19921W        W35052   6.944   2.827   5.250 -0.0553 -0.1594 -0.0503
19922W        W35053   9.096   2.408  12.027 -0.1188  0.0915  0.1460
19923W        W35054  11.739   7.632   3.395 -0.1861 -0.0323  0.3034
19924W        W35055  10.962   2.747   1.892  0.1291  0.1642 -0.0413
19925W        W35056   2.124  10.185   5.884 -0.2651 -0.2695  0.3270
19926W        W35057  12.475   1.718   1.551  0.1582  0.0061  0.0645
19927W        W35058  13.547   7.253   2.387 -0.0967  0.1471  0.1708
19928W        W35059   9.743  12.444   3.146 -0.0699  0.1021 -0.0662
19929W        W35060  11.232  16.471   2.478 -0.1132 -0.0990  0.2659
19930W        W35061   7.950   1.761  13.120 -0.0361 -0.2042 -0.1809
19931W        W35062   0.830  15.628  15.348 -0.0544  0.4127  0.2050
19932W        W35063  12.141  12.399   0.058 -0.0449 -0.1945  0.4303
19933W        W35064  12.322   5.372  15.468 -0.1606 -0.0476 -0.0335
19934W        W35065  10.705  16.982   0.893 -0.1499 -0.2859  0.0134
19935W        W35066   3.185  11.968  12.053 -0.1586 -0.1990 -0.0903
19936W        W35067  14.429  11.346   5.352 -0.1033 -0.3096  0.1753
19937W        W35068  15.178  12.760  11.972  0.3066 -0.2147 -0.0441
19938W        W35069   8.427   5.921   3.417  0.2034  0.0632 -0.3023
19939W        W35070  14.908   5.578  13.466  0.3550 -0.1022 -0.0625
19940W        W35071   4.792   8.822  11.736 -0.2290 -0.0553  0.0770
19941W        W35072  12.258   2.169  11.269 -0.3705  0.0845 -0.0942
19942W        W35073   8.678  12.518   3.238  0.2069  0.1468  0.1172
19943W        W35074   7.026  14.305   0.662  0.0114 -0.2061  0.3579
19944W        W35075   9.587  13.250   3.728 -0.0410 -0.0933 -0.0263
19945W        W35076  17.736   5.842   0.211  0.0557  0.0789 -0.0780
19946W        W35077   6.342   7.707  12.140 -0.6409  0.0353 -0.1021
19947W        W35078  16.224  16.932  16.016  0.0462 -0.0973  0.2488
19948W        W35079   7.143  12.900  14.148  0.2512  0.0433  0.0779
19949W        W35080   3.330  10.909   1.330  0.0456  0.0796 -0.1085
19950W        W35081   6.494  16.997   0.799 -0.0105  0.1364 -0.0066
19951W        W35082   2.213  15.920   1.388 -0.0668  0.0818  0.0822
19952W        W35083  13.967  10.741   3.953  0.2827  0.0613 -0.0942
19953W        W35084   6.944   9.183  15.222 -0.0347 -0.0424  0.0464
19954W        W35085  12.912  16.570   2.259 -0.0524  0.3656 -0.0702
19955W        W35086   7.500   6.722   3.623 -0.0720 -0.2580 -0.0347
19956W        W35087   9.337  12.516  15.452 -0.1330 -0.3007  0.0186
19957W        W35088  12.263  16.342  10.470 -0.3540  0.1031 -0.0586
19958W        W35089  14.113  13.987   3.590 -0.1219 -0.0349 -0.0208
19959W        W35090  11.864  12.216  15.976  0.2013 -0.2953  0.2016
19960W        W35091  17.055   2.795  15.644  0.2604  0.0864 -0.0655
19961W        W35092   4.018   9.036  12.143 -0.0294  0.2297  0.2228
19962W        W35093  10.969   7.020  13.012 -0.0715  0.5283  0.2892
19963W        W35094  10.562  11.680  11.151  0.1575  0.0036 -0.0594
19964W        W35095  11.529   8.903  15.155  0.3507  0.2074  0.2471
19965W        W35096  17.663  13.815   5.498 -0.0722 -0.0877 -0.0359
19966W        W35097   3.282  17.884   0.116  0.1153 -0.1747 -0.1229
19967W        W35098  10.238   0.008  14.587 -0.1924 -0.2983  0.3968
19968W        W35099  12.921  15.881   6.061 -0.0264 -0.0138 -0.2503
19969W        W35100   7.109  11.302   0.727  0.0093 -0.0446  0.1080
19970W        W35101  16.556   8.373   1.057  0.2624  0.1971 -0.0833
19971W        W35102   7.662   4.021  10.715 -0.0676  0.1378  0.1606
19972W        W35103  14.039  12.568   4.442 -0.1343  0.0981  0.1577
19973W        W35104  15.146   2.303   5.385 -0.0244  0.1218  0.0749
19974W        W35105   2.678   3.435   2.688  0.4272  0.2047 -0.0061
19975W        W35106   7.239  16.573   2.542 -0.0464  0.0430 -0.1460
19976W        W35107   9.068   7.982  12.716 -0.0625 -0.0956 -0.0806
19977W        W35108  13.677   8.541  11.188 -0.1671  0.1687  0.0330
19978W        W35109   1.223   4.182   1.545 -0.2796 -0.2373 -0.1620
19979W        W35110  14.700   4.341   4.277 -0.3799  0.4108  0.1510
19980W        W35111   5.054   0.760  15.896  0.2486  0.1421  0.0502
19981W        W35112   6.011  13.362  11.837  0.1185 -0.1547 -0.3206
19982W        W35113   2.202  14.245   4.931  0.2524  0.0576 -0.0052
19983W        W35114  17.756   0.896   2.140  0.2631  0.0370 -0.1659
19984W        W35115  13.061  13.924  11.826 -0.0118 -0.0113 -0.1860
19985W        W35116  11.174  16.795   0.443 -0.1627  0.0045  0.2777
19986W        W35117   8.875   4.189  13.563 -0.1242 -0.0107  0.1331
19987W        W35118   8.952   9.198  14.984  0.0002 -0.1022 -0.0370
19988W        W35119   3.031   0.692   1.673  0.1875  0.0705 -0.1805
19989W        W35120   5.631  16.203   3.067 -0.0202  0.3215 -0.0540
19990W        W35121   7.608   7.815   4.592 -0.3019 -0.0010 -0.4281
19991W        W35122  12.173  14.082   2.361 -0.1934 -0.1777 -0.0183
19992W        W35123  10.240  12.527   3.430 -0.0117 -0.0224  0.2166
19993W        W35124   6.646   9.833   0.938  0.2306 -0.5147 -0.0982
19994W        W35125  16.742   4.225   3.664  0.3361 -0.0782 -0.2174
19995W        W35126   7.523  14.770   3.193  0.3991  0.2625  0.2655
19996W        W35127   7.217   2.500  16.090  0.0780 -0.2071 -0.2072
19997W        W35128   1.140   8.917  11.256 -0.0323 -0.0909  0.0174
19998W        W35129  13.541   3.331  12.520 -0.1280  0.3255 -0.1300
19999W        W35130  11.864   5.209   5.109  0.0033  0.3970  0.0120
20000W        W35131   4.820   6.674  10.256  0.2374  0.2326 -0.0474
20001W        W35132  12.048   9.603  14.445 -0.0431  0.1105  0.1641
20002W        W35133  14.465  10.974   6.160  0.1821 -0.1552 -0.0496
20003W        W35134   8.813   2.695   4.434 -0.0475  0.0271  0.1594
20004W        W35135   6.010  10.463  13.438  0.0414 -0.0368 -0.1786
20005W        W35136   2.047  17.480   6.055  0.1226 -0.0863 -0.4072
20006W        W35137   4.866   6.525   2.108  0.1297  0.0107 -0.0317
20007W        W35138   1.459  11.812  12.375  0.1268 -0.1248 -0.0663
20008W        W35139   7.271   7.153   0.434 -0.0147  0.0780  0.0582
20009W        W35140  11.490   6.309   4.727 -0.1573  0.1593 -0.1488
20010W        W35141  12.858   8.628  14.742 -0.1373 -0.1180 -0.0046
20011W        W35142   0.534  10.634   3.433 -0.0984  0.1294  0.0913
20012W        W35143  15.914   7.513  16.437  0.0541 -0.0340 -0.1012
20013W        W35144  15.954   6.442   2.253 -0.4455  0.0243 -0.0783
20014W        W35145  17.401   2.154   3.490  0.0289  0.1369 -0.0145
20015W        W35146   7.080   7.574   0.050  0.1724 -0.1093 -0.0319
20016W        W35147  15.744  15.360  12.858 -0.1658  0.0939  0.1317
20017W        W35148   2.615  11.375  10.971  0.1851 -0.0060  0.1178
20018W        W35149  12.869  15.532  15.879  0.0148  0.3021 -0.1332
20019W        W35150  16.430  13.180  10.968 -0.0830 -0.0172  0.1622
20020W        W35151  10.343  17.995  13.389  0.1276 -0.1122  0.3647
20021W        W35152   1.154   6.028   3.331  0.0658 -0.0771  0.2323
20022W        W35153  17.669   3.094   2.038  0.2799 -0.1138 -0.0598
20023W        W35154   4.762  13.199   0.865 -0.0365  0.0447  0.4071
20024W        W35155  10.976   5.097   1.045 -0.0672  0.0631 -0.1795
20025W        W35156   1.285  14.925  13.161  0.1616  0.1459  0.1085
20026W        W35157   5.600  15.875   2.189  0.2086 -0.2900 -0.0072
20027W        W35158   4.153  17.381   2.423 -0.0157 -0.3355  0.1660
20028W        W35159   4.362  11.923  13.005  0.1024 -0.5180  0.2512
20029W        W35160   9.948   9.174  11.892  0.0533 -0.1125 -0.3388
20030W        W35161  15.790  17.864   1.724  0.0783  0.0097 -0.0653
20031W        W35162   3.359   3.923  14.275 -0.1729 -0.1384 -0.0877
20032W        W35163  16.678   5.044  12.071  0.0481 -0.0811 -0.2099
20033W        W35164   2.196   9.938   0.865 -0.3133 -0.2548  0.0880
20034W        W35165   1.463  10.488  15.645 -0.2094 -0.1560  0.0339
20035W        W35166   5.058  13.770   5.265 -0.0050 -0.1513  0.4965
20036W        W35167   8.968  16.947  12.931 -0.0331 -0.2546  0.1707
20037W        W35168   8.223  13.959  12.842  0.3295 -0.1938 -0.0307
20038W        W35169   0.892  17.914   2.326 -0.1154 -0.2589  0.2270
20039W        W35170   9.598   5.766   4.266  0.0642  0.1926  0.1344
20040W        W35171   2.453  10.903  12.289 -0.1017  0.1947 -0.0427
20041W        W35172  12.245  11.385  12.259 -0.2536 -0.0605 -0.3645
20042W        W35173   9.776   6.332  14.565 -0.2159  0.1812 -0.0945
20043W        W35174   1.088  16.829  15.048 -0.0879  0.1089  0.1658
20044W        W35175  17.330   8.579   2.649 -0.1576 -0.2115  0.1566
20045W        W35176  14.570   8.474   3.117  0.0242 -0.0851 -0.0322
20046W        W35177  17.104   1.340   4.357  0.0125 -0.0000  0.3125
20047W        W35178   6.309  13.049   1.844 -0.2194 -0.2554 -0.0245
20048W        W35179  13.823  14.957  11.052  0.1349  0.1723  0.0209
20049W        W35180  14.309  11.255   2.803 -0.2343 -0.0087  0.2011
20050W        W35181   2.712  17.596   4.880  0.1316  0.0988  0.0170
20051W        W35182  17.124   3.960   1.475  0.1102  0.0454  0.0204
20052W        W35183   5.304   7.522  10.556  0.2838  0.0377 -0.0518
20053W        W35184  13.141   4.446   2.049 -0.0478  0.1153 -0.1184
20054W        W35185  10.216   0.411  12.163 -0.1340  0.2448  0.3916
20055W        W35186   4.455  13.975   2.866 -0.2242  0.0302 -0.3586
20056W        W35187  16.813   0.874  11.793  0.0912  0.0002  0.0921
20057W        W35188  14.090   9.371   1.949 -0.0798 -0.1136 -0.2214
20058W        W35189  10.129   6.074   0.052  0.3346 -0.2981  0.2736
20059W        W35190   8.971  15.474  15.982 -0.0622 -0.0943  0.3929
20060W        W35191   7.713  16.079   5.315 -0.1919 -0.1958  0.5030
20061W        W35192  17.521  16.439  11.960 -0.1363 -0.0814 -0.0372
20062W        W35193   1.910  16.391  14.082  0.1222 -0.1579  0.2284
20063W        W35194   2.140  15.872  16.370 -0.0485 -0.1411  0.2456
20064W        W35195  12.441  10.955   0.708 -0.1108 -0.0391  0.0652
20065W        W35196  11.056  13.216  12.832  0.2139  0.0183  0.2573
20066W        W35197  12.426   4.146   1.149  0.1064 -0.0716 -0.0969
20067W        W35198  14.322   5.642  16.336  0.2034  0.1777 -0.0511
20068W        W35199  12.065  16.017   0.733 -0.4415  0.1484  0.1345
20069W        W35200   5.861   5.832   3.197  0.0474 -0.0344 -0.0392
20070W        W35201  16.924   7.867   1.565  0.3556  0.2415  0.0081
20071W        W35202  10.545   5.154  12.418  0.0914 -0.1403 -0.2948
20072W        W35203   0.749   0.919  11.407 -0.0712 -0.1944 -0.0214
20073W        W35204  15.090   9.790   1.019 -0.1993 -0.0330 -0.1654
20074W        W35205   0.966   1.589  13.502 -0.1502  0.2409  0.2498
20075W        W35206   6.265   7.248  12.286 -0.2000  0.0692  0.0778
20076W        W35207  10.238  15.383   2.746  0.0173 -0.0463 -0.3361
20077W        W35208   9.513  18.056   1.775 -0.1437 -0.0180 -0.0240
20078W        W35209  17.704  13.147   0.095  0.1450  0.2034 -0.0620
20079W        W35210   4.563   1.844  11.150 -0.0933  0.0203  0.2468
20080W        W35211  18.059   0.779   4.575  0.4723 -0.1144  0.1659
20081W        W35212  15.759  14.202   1.428 -0.0636  0.0727 -0.0981
20082W        W35213  16.190   4.769  13.723  0.1676  0.1987 -0.0792
20083W        W35214   5.087   6.346  14.113 -0.2771  0.1944  0.0937
20084W        W35215   4.317   7.133   0.659  0.0556 -0.0398 -0.0689
20085W        W35216  12.586  15.038   3.002 -0.0989  0.2005 -0.1233
20086W        W35217   1.982   8.559  14.375 -0.0217 -0.1458 -0.1470
20087W        W35218  17.504   7.557  14.916  0.2173 -0.0211  0.0929
20088W        W35219  14.347  15.087   0.154  0.0582 -0.0572 -0.2308
20089W        W35220   9.795   7.363  15.737  0.1985 -0.0991 -0.2098
20090W        W35221   0.805   4.757  12.666  0.2419  0.0625 -0.0839
20091W        W35222   2.077   5.125   3.842 -0.1051  0.4579  0.1682
20092W        W35223   4.967   0.502  15.026  0.0088  0.2946  0.2382
20093W        W35224  11.339  11.891   5.222  0.0468 -0.1923 -0.1565
20094W        W35225   8.376  10.371   1.222  0.0822  0.4960  0.0105
20095W        W35226   7.593  15.903  15.001 -0.0280 -0.0355 -0.3314
20096W        W35227  10.486  14.373   0.512 -0.1274  0.0389  0.0846
20097W        W35228   1.840   2.162  15.143 -0.0307 -0.0245 -0.1301
20098W        W35229   4.260  10.049   4.611 -0.0096  0.1152  0.0929
20099W        W35230   9.639  17.273   2.261 -0.0033  0.2813 -0.0524
20100W        W35231   2.930   9.366  11.825 -0.0234  0.1309 -0.0965
20101W        W35232   7.562  11.230  12.509  0.1838  0.1261 -0.1225
20102W        W35233  10.216  11.310  14.969 -0.1790 -0.2130  0.3636
20103W        W35234  16.570  12.303  13.155 -0.4257  0.2340 -0.0045
20104W        W35235  17.257  13.262   2.258  0.1655 -0.2069  0.0994
20105W        W35236   0.875  12.797  11.208  0.2239  0.0958 -0.2019
20106W        W35237   5.364  11.684  13.908  0.0537  0.2005 -0.0038
20107W        W35238   3.390  15.712   0.308 -0.0084 -0.0972 -0.2213
20108W        W35239  10.441  16.970   5.192  0.2167  0.0004  0.2097
20109W        W35240  16.299   7.005   2.961 -0.2542 -0.1899 -0.0313
20110W        W35241  14.040  17.362   3.468  0.2411 -0.0229 -0.3309
20111W        W35242   2.897  13.139  16.042 -0.1353  0.2764  0.0385
20112W        W35243  14.174  11.333  13.010  0.1265  0.1105  0.2641
20113W        W35244  14.734   2.284   2.927 -0.1752  0.0235  0.1566
20114W        W35245   1.727  10.433   5.700  0.2581 -0.4329  0.2035
20115W        W35246   7.003   8.928  11.225 -0.0886 -0.1440 -0.1361
20116W        W35247  13.176   8.763   5.019  0.0744  0.0687  0.0884
20117W        W35248   9.746   8.782   3.116  0.3464  0.0460  0.1027
20118W        W35249   2.456  12.516   5.422  0.1267  0.1630  0.0002
20119W        W35250   0.381  18.097  14.069  0.0379 -0.1413 -0.2714
20120W        W35251   8.114  12.413  11.304  0.0603  0.2728  0.1305
20121W        W35252  11.134  10.954   0.064  0.0771  0.1163  0.1007
20122W        W35253   3.819   2.995  13.917 -0.2418 -0.2876  0.3466
20123W        W35254   4.143   5.077   5.534 -0.2584  0.1238  0.1801
20124W        W35255  12.008   6.215   5.458 -0.1498 -0.0828  0.2655
20125W        W35256   2.042  16.058  11.476 -0.5996  0.1337  0.2494
20126W        W35257   6.140  10.479   0.375 -0.1206  0.0761 -0.2992
20127W        W35258   5.280  17.763  13.616  0.0592  0.1963  0.0114
20128W        W35259   6.696   7.871   0.179 -0.0003  0.1323  0.1022
20129W        W35260   1.079   5.198  13.800  0.1017  0.2545 -0.3408
20130W        W35261   4.063   7.045   5.090 -0.0230  0.3594  0.0907
20131W        W35262   6.254   1.863  11.288  0.1402 -0.0546 -0.2610
20132W        W35263  12.820  10.028   3.017  0.0795  0.2951 -0.3071
20133W        W35264   3.081  12.000  14.356  0.1406  0.0366 -0.1572
20134W        W35265   9.318  11.176   1.604 -0.1027 -0.0369  0.1482
20135W        W35266   6.973   6.250   5.350  0.3440  0.0413 -0.1226
20136W        W35267  17.162   3.426   4.682 -0.3049  0.1337  0.1518
20137W        W35268   6.841  16.559  13.718 -0.1425 -0.2493  0.0204
20138W        W35269  14.785  11.472   2.135  0.4200 -0.0009  0.0004
20139W        W35270  16.493  12.133   0.199 -0.3410  0.2032 -0.1491
20140W        W35271  10.214   3.315   1.703 -0.0361  0.3394  0.0671
20141W        W35272   5.201  17.259  10.919 -0.4074  0.0994  0.0594
20142W        W35273   7.744   0.300   4.813  0.0027  0.0297  0.0569
20143W        W35274  16.919   6.291   4.355 -0.0355  0.2715 -0.1644
20144W        W35275  10.167  14.713  10.935 -0.0316 -0.1616 -0.0464
20145W        W35276   7.744  13.284  14.812  0.0315  0.1782 -0.3475
20146W        W35277   3.196  13.040  13.999  0.0710  0.1709  0.0290
20147W        W35278  14.751  15.674  14.733  0.0162  0.1911  0.0226
20148W        W35279  16.222   1.082   4.215  0.0167  0.0494  0.1688
20149W        W35280   3.297  11.798   2.832  0.2837  0.0750  0.2444
20150W        W35281   2.111   1.914  10.917 -0.0344 -0.0945  0.1962
20151W        W35282   2.877  12.633  14.676 -0.1633 -0.0463  0.0175
20152W        W35283   4.056  12.149   1.832 -0.0912 -0.1401 -0.4386
20153W        W35284   7.007   5.350   9.737  0.1594 -0.0505 -0.1476
20154W        W35285  13.099   8.764  10.438 -0.1028 -0.1529 -0.0409
20155W        W35286  10.772  10.106  14.135 -0.2062 -0.1374 -0.1092
20156W        W35287   2.992   1.412  14.604 -0.0056 -0.0810  0.1747
20157W        W35288   2.573  13.517  12.897  0.3514  0.0745 -0.0293
20158W        W35289   7.930  14.958   0.550  0.1479  0.1647  0.1459
20159W        W35290  10.027   8.708  16.166  0.4780 -0.0649 -0.2589
20160W        W35291   7.755   5.239   0.949  0.3185 -0.2855 -0.0716
20161W        W35292  11.249   3.310  12.580 -0.4848 -0.1070 -0.1012
20162W        W35293   0.153   0.391   1.146  0.2186  0.0818  0.4245
20163W        W35294   3.416   2.987  14.821 -0.0478 -0.2871 -0.0321
20164W        W35295  14.226   2.759   3.351  0.1092 -0.3729  0.1051
20165W        W35296   9.050  17.848  13.084  0.3466 -0.0779  0.0669
20166W        W35297  15.922   6.072  14.771  0.2733  0.3023 -0.1469
20167W        W35298  11.796   7.663  14.203  0.1180  0.0975  0.2236
20168W        W35299  13.677  10.059   5.586  0.0713  0.1685  0.2108
20169W        W35300   7.943  12.508  13.206 -0.0067 -0.2832  0.1899
20170W        W35301  10.299   1.664   5.936  0.1649 -0.1578 -0.0409
20171W        W35302  16.887   0.567   5.296 -0.0364 -0.0375  0.3808
20172W        W35303   5.353   8.164   4.690 -0.0397  0.0388 -0.1687
20173W        W35304  15.801   6.379  15.106  0.2451 -0.2042 -0.1145
20174W        W35305  11.610  14.611   4.426 -0.0253 -0.0157  0.1525
20175W        W35306  12.367   8.335   5.545  0.3420  0.2135 -0.1633
20176W        W35307  14.904   9.953   2.951 -0.2396  0.1459  0.1176
20177W        W35308   0.975  12.702   1.943  0.0842  0.1986 -0.1999
20178W        W35309   9.893   6.919  15.474  0.2151  0.3133  0.2441
20179W        W35310   1.560  15.540  12.165 -0.1513  0.1146 -0.0087
20180W        W35311   9.800  14.417   4.578  0.1203  0.1438 -0.4192
20181W        W35312   1.620  10.508   4.359  0.1105  0.3426  0.0717
20182W        W35313  16.695   9.697   2.136  0.2064 -0.5361 -0.0480
20183W        W35314   1.145  17.686  12.475  0.1808  0.1042 -0.0298
20184W        W35315   8.672  12.666  13.826 -0.2851 -0.3283  0.0318
20185W        W35316   1.806  10.100  16.459  0.2329 -0.0422  0.3709
20186W        W35317   2.413   5.322  13.141 -0.1968 -0.1731 -0.3773
20187W        W35318   1.566  13.512   0.628 -0.2091 -0.1176 -0.1901
20188W        W35319   3.697   7.001  12.556  0.0355  0.0867  0.0649
20189W        W35320  10.174   0.360   1.103  0.1617  0.1148  0.2203
20190W        W35321   4.957  11.123   2.595 -0.3346 -0.0127  0.1138
20191W        W35322  13.625   5.934  11.711  0.0365 -0.2016  0.2064
20192W        W35323   9.873   6.509  11.542 -0.4949  0.2036 -0.1495
20193W        W35324   4.986  17.391   4.894 -0.2799  0.1352  0.0445
20194W        W35325   3.074   0.900  11.013  0.0023  0.1572  0.3610
20195W        W35326   4.569   2.147   3.827 -0.0551 -0.1410 -0.1630
20196W        W35327   0.017  17.295  13.621  0.1220 -0.0664  0.0230
20197W        W35328   4.450  13.556   3.549 -0.0477  0.1220  0.1542
20198W        W35329  15.574  14.730   1.932 -0.1996 -0.2077  0.0576
20199W        W35330   5.168  11.235   3.025  0.0265  0.0507 -0.1264
20200W        W35331   0.230  16.344  15.304  0.2169  0.1339  0.3277
20201W        W35332   7.918   2.242   5.062  0.2752  0.0689 -0.2508
20202W        W35333  10.774  17.360   2.476 -0.2654  0.1958 -0.0440
20203W        W35334   0.759  16.816  13.306 -0.1974  0.1933 -0.0216
20204W        W35335   6.188   1.457  10.878  0.2910 -0.1135  0.1275
20205W        W35336   0.366   1.856   0.821 -0.0385 -0.2301 -0.1503
20206W        W35337  10.969   6.115  15.533 -0.1332 -0.1149  0.4789
20207W        W35338   4.042   1.459   6.441 -0.3563 -0.1486 -0.0213
20208W        W35339  14.292  14.799   0.544  0.2081  0.0486 -0.0341
20209W        W35340   3.207   6.744  12.947  0.0301 -0.0889  0.2383
20210W        W35341   3.989   9.936  15.830 -0.1969 -0.0002  0.1479
20211W        W35342   1.831   8.197  15.516  0.1686 -0.1211  0.4079
20212W        W35343   1.277  13.312   4.037 -0.0744 -0.0228 -0.0183
20213W        W35344  16.613  13.235   4.741 -0.0489  0.0443 -0.1350
20214W        W35345  15.535   6.312   2.847 -0.0091  0.3307 -0.1147
20215W        W35346   2.351   0.035  13.239  0.3575  0.0283  0.1200
20216W        W35347  12.550  17.980   4.042 -0.0555  0.0012  0.3517
20217W        W35348   5.214  17.033   1.381 -0.3272 -0.0596  0.0929
20218W        W35349   3.207   8.013   5.187 -0.0687 -0.1939 -0.2740
20219W        W35350  14.301   7.225   5.422  0.2188  0.0676 -0.1211
20220W        W35351  14.345  16.111  11.408  0.0244 -0.0334 -0.3399
20221W        W35352   9.462  12.976  14.691  0.0401  0.1552 -0.1726
20222W        W35353  14.229  14.843  13.677  0.0323 -0.0625 -0.0190
20223W        W35354  15.063  16.807   0.120  0.0783  0.0167  0.1355
20224W        W35355  14.839   9.701  12.095  0.1553 -0.0431  0.1684
20225W        W35356   6.793   7.405  16.012 -0.0375 -0.0600 -0.0365
20226W        W35357  16.418   1.465  14.401  0.1297  0.0869 -0.1736
20227W        W35358   9.146   3.343  14.535 -0.4344 -0.0680 -0.3110
20228W        W35359   3.861  14.596   5.639 -0.0614  0.1925 -0.3011
20229W        W35360  11.022   7.082  15.741 -0.0712  0.0349 -0.1066
20230W        W35361   2.206   3.917  11.801  0.0807  0.2501 -0.1270
20231W        W35362   2.126   3.498  10.984 -0.0199 -0.0323  0.3616
20232W        W35363  16.381   1.935  12.592  0.1536  0.1434 -0.1578
20233W        W35364   0.428   1.745   1.332  0.2519  0.0628  0.0911
20234W        W35365   9.774   1.376  14.506 -0.1512  0.1673  0.4211
20235W        W35366  15.485  17.683   3.992  0.2102  0.3936 -0.2818
20236W        W35367  14.749  13.628  16.346 -0.0714  0.0759 -0.0499
20237W        W35368   1.094   8.263   1.976 -0.0342 -0.0964 -0.0699
20238W        W35369   5.092  13.304   0.460 -0.2039  0.1018 -0.3432
20239W        W35370   3.249   3.266  15.292 -0.0538 -0.1205 -0.0855
20240W        W35371   6.611   7.691   4.892  0.1858  0.0431  0.2271
20241W        W35372  11.435   2.445  15.408 -0.0173  0.0827 -0.0870
20242W        W35373  10.584   8.366   4.080  0.3530  0.0664 -0.0495
20243W        W35374   6.511   8.219   1.706  0.0851  0.0078 -0.0501
20244W        W35375   3.768  11.624  11.090  0.1995  0.1363  0.2439
20245W        W35376   2.958   9.040  14.224 -0.0181 -0.3169 -0.2444
20246W        W35377   9.854  15.930   3.418 -0.1213 -0.0810 -0.2621
20247W        W35378   2.955   1.557   3.294 -0.0443  0.3170 -0.1069
20248W        W35379  15.061  13.299  12.768 -0.1195  0.2004 -0.1078
20249W        W35380   4.391   9.938   3.312 -0.1131  0.0895 -0.2125
20250W        W35381   1.554   4.329  12.417 -0.4448  0.1210  0.1407
20251W        W35382  11.696  12.296   1.777  0.0806  0.0958 -0.1645
20252W        W35383  11.403   0.648  15.789 -0.1322 -0.1147  0.1578
20253W        W35384  10.226   0.052  15.887  0.0596  0.3250 -0.3208
20254W        W35385   5.784   0.951  14.276  0.1496 -0.1575  0.3269
20255W        W35386   2.802   5.553  11.420  0.0695  0.1957 -0.0089
20256W        W35387  13.364   8.137  14.632  0.0329 -0.0938 -0.1811
20257W        W35388  10.521  16.083   4.677 -0.1625  0.0057  0.2365
20258W        W35389   5.925  15.481   3.978 -0.2120 -0.1752 -0.1156
20259W        W35390   2.341  11.956  12.942 -0.2623 -0.1668 -0.2658
20260W        W35391   8.167   1.444  11.698  0.3818 -0.0764 -0.0538
20261W        W35392  12.045   4.133  10.638  0.3134 -0.0120 -0.1597
20262W        W35393  12.564  13.665  14.333  0.3701  0.1602 -0.0932
20263W        W35394   2.305   0.857  13.118  0.0722  0.0419 -0.1453
20264W        W35395  10.968   4.077   0.044  0.3119  0.2242  0.1167
20265W        W35396  12.791  15.469   4.611  0.0484 -0.1758 -0.1509
20266W        W35397   0.491   6.195  13.426 -0.2291 -0.1418  0.1502
20267W        W35398  15.218   1.892   0.867  0.2006 -0.3767 -0.0711
20268W        W35399   2.395  10.602  11.330  0.0600  0.0695 -0.0194
20269W        W35400   2.110  14.011   3.688 -0.0125 -0.1424 -0.1348
20270W        W35401  11.091   5.685   1.884  0.2651  0.1773  0.2278
20271W        W35402   6.971   5.476  14.807 -0.0386 -0.0234  0.1722
20272W        W35403  12.917  17.502   1.320 -0.0397 -0.2589 -0.2424
20273W        W35404  10.934  16.153  15.409  0.1064  0.1185  0.1084
20274W        W35405   7.806  18.006   4.537 -0.1375 -0.1396  0.2288
20275W        W35406   2.032  15.092  14.994 -0.1306 -0.0520 -0.1163
20276W        W35407  11.185   6.564  12.154 -0.0783  0.0410 -0.0961
20277W        W35408  14.399   8.950   1.915  0.0300 -0.2048 -0.0500
20278W        W35409   8.772  16.603   4.823 -0.2056  0.1549  0.1267
20279W        W35410  12.201   6.184   4.290  0.0939 -0.0098  0.0434
20280W        W35411   9.007   0.355  15.904 -0.0869  0.0789  0.3745
20281W        W35412  12.321  17.875  15.006  0.0654  0.2395  0.0105
20282W        W35413   1.033   0.299   3.325  0.1536  0.0240 -0.1050
20283W        W35414   0.390  14.471  11.669 -0.0561  0.2392  0.4810
20284W        W35415  11.340  16.191  13.814 -0.1343  0.1590  0.1812
20285W        W35416  12.356   4.865  11.602  0.0199 -0.1031  0.1054
20286W        W35417   1.032  11.509  12.049 -0.1374 -0.2214 -0.1051
20287W        W35418  16.375   9.600  10.497  0.1038  0.0733  0.0580
20288W        W35419  11.118   4.944   5.033 -0.3545 -0.2586 -0.0195
20289W        W35420  16.262  10.600  13.140 -0.1616  0.0448  0.0935
20290W        W35421  14.653   8.954  15.894  0.0900  0.1327 -0.0814
20291W        W35422  14.632   1.022  15.041  0.0076  0.5358  0.1259
20292W        W35423   5.696   1.570  13.362  0.1636  0.3274 -0.1574
20293W        W35424   4.427   7.107  11.927 -0.0531 -0.0871  0.0472
20294W        W35425  12.483   0.854  12.884 -0.1405  0.0520  0.1367
20295W        W35426  17.842   5.715  16.217 -0.2326  0.1563 -0.2625
20296W        W35427  14.248   4.753   4.314 -0.4139  0.2921 -0.2287
20297W        W35428   6.062  17.716  13.977 -0.0573 -0.2235  0.1342
20298W        W35429   7.898   1.351  13.433 -0.0598  0.1950 -0.2301
20299W        W35430  13.549  14.218  16.356 -0.0148 -0.2348  0.0130
20300W        W35431  13.597  13.291  15.156 -0.1839 -0.1363 -0.0712
20301W        W35432  10.546  12.988   2.667 -0.1628 -0.1561  0.0197
20302W        W35433   6.810  15.025  13.299 -0.0620 -0.0207 -0.2430
20303W        W35434   6.247   6.912   5.401  0.3078 -0.1398  0.3534
20304W        W35435   0.963  11.144  15.173 -0.1418 -0.0462  0.0646
20305W        W35436   4.827  12.537   1.504 -0.2914  0.0438  0.0941
20306W        W35437   6.726  17.457  11.814 -0.2951 -0.0152  0.3552
20307W        W35438   6.175   9.190  13.107  0.0605  0.3230 -0.1555
20308W        W35439   7.530  15.039   2.013  0.0228 -0.2282 -0.0871
20309W        W35440  13.403   1.834   5.507  0.0843  0.2824  0.0339
20310W        W35441  11.252   0.341  14.516 -0.0168  0.3579 -0.2149
20311W        W35442  17.583  10.759  14.556  0.0889  0.1499  0.1705
20312W        W35443   2.175  16.117  13.744 -0.0682 -0.1394 -0.1032
20313W        W35444   9.395   4.772  10.045  0.2844  0.0199 -0.0215
20314W        W35445   1.161  16.780   0.308  0.1497  0.4240  0.1446
20315W        W35446   0.397  13.074   0.362  0.0913 -0.0852  0.0291
20316W        W35447   1.146   4.744   4.055  0.0805  0.1471  0.2070
20317W        W35448   7.972  15.658   5.493 -0.0668  0.0698 -0.2116
20318W        W35449  11.693   7.401   5.340 -0.1466  0.1282 -0.1926
20319W        W35450  10.339   5.329  13.723 -0.1560  0.2529 -0.0189
20320W        W35451   0.550  12.813  12.039  0.0638 -0.3965 -0.4432
20321W        W35452   6.525  13.486  11.655  0.1300  0.1329  0.0684
20322W        W35453   0.154  17.024  14.998  0.0817  0.1135 -0.0223
20323W        W35454   4.320   2.888  14.123  0.4067  0.0594  0.1685
20324W        W35455  15.673   0.555  16.160  0.1866  0.1341 -0.0521
20325W        W35456   3.802   0.194   2.169  0.0808  0.1718 -0.1184
20326W        W35457  17.929   6.603   5.032  0.0841  0.0883  0.0118
20327W        W35458   9.747   4.139  14.832  0.0355  0.1066 -0.0631
20328W        W35459   2.573  15.662   0.111 -0.0116 -0.1529  0.0721
20329W        W35460   6.973   7.987   3.264  0.1706 -0.0305 -0.3450
20330W        W35461  13.298   1.786   2.029 -0.0688 -0.1598 -0.1171
20331W        W35462  15.367   4.825   0.189  0.1198  0.0978 -0.0889
20332W        W35463  11.670  11.236   4.564 -0.2643  0.1311 -0.0299
20333W        W35464   9.381   5.392  10.743 -0.2731  0.0085 -0.0083
20334W        W35465   7.325   3.633  13.195  0.0111 -0.0917 -0.0126
20335W        W35466  12.114  15.881  15.097 -0.2265 -0.1488  0.0528
20336W        W35467  17.381   4.232  15.038  0.2002  0.1020 -0.0958
20337W        W35468  14.498   9.950   5.928  0.2482  0.2439  0.1122
20338W        W35469  11.749   7.072   3.201  0.2066 -0.0450 -0.1507
20339W        W35470  11.263   6.093  16.019 -0.2888 -0.0376  0.1359
20340W        W35471   5.736   0.856   2.958 -0.0672 -0.2276  0.3485
20341W        W35472  12.536  12.278  16.235 -0.0760  0.0142 -0.1299
20342W        W35473   7.369   9.302  11.195  0.1660  0.2141 -0.2135
20343W        W35474   5.238   4.610   1.859 -0.2299  0.0465 -0.1176
20344W        W35475   5.113   9.350   1.738 -0.1651 -0.3161 -0.1531
20345W        W35476  15.353  12.438  12.663 -0.2069 -0.1050  0.0017
20346W        W35477   0.453   9.883   5.540 -0.2640 -0.1727  0.1756
20347W        W35478   6.498   4.739  11.994  0.0038  0.0167  0.0978
20348W        W35479  13.100   0.593   4.698  0.3128  0.3928  0.1301
20349W        W35480   6.266  15.128   3.269  0.2166  0.0687  0.2154
20350W        W35481  10.382   8.133   5.439 -0.1102 -0.1164  0.0277
20351W        W35482   3.683  10.507  11.998 -0.0102 -0.1137 -0.2861
20352W        W35483  14.965   7.946   3.156  0.2432 -0.1523 -0.2968
20353W        W35484  11.517   6.067   0.998 -0.0436 -0.0027 -0.2755
20354W        W35485   9.165   0.874   2.052  0.0360  0.2668  0.0822
20355W        W35486   4.360  10.864   0.430 -0.0981 -0.1600 -0.1034
20356W        W35487   5.316  13.395   5.090  0.2554  0.2033 -0.0185
20357W        W35488   4.539  13.639  13.704 -0.1930  0.1901  0.0715
20358W        W35489   2.360   2.500   0.937  0.1964 -0.2389 -0.0166
20359W        W35490   7.583   9.824   1.880  0.0440 -0.3957 -0.0973
20360W        W35491  11.975  13.419  11.335  0.4998 -0.0443  0.2553
20361W        W35492   9.012  11.697  10.283 -0.1121  0.3146  0.0764
20362W        W35493   1.880  12.051   3.918 -0.3876  0.0530 -0.0797
20363W        W35494  13.534   1.713   6.095  0.0684 -0.0256  0.1161
20364W        W35495  17.622   5.933   2.506 -0.0860  0.1453 -0.1338
20365W        W35496   5.237   4.670   3.767  0.2882  0.1634 -0.1571
20366W        W35497  17.216  13.343   3.870  0.2317  0.2205  0.1705
20367W        W35498   2.396   2.869  14.053 -0.0302  0.1947 -0.0531
20368W        W35499   0.799   6.141   1.144  0.0264  0.1041  0.1529
20369W        W35500   4.793  17.920   1.600 -0.0217 -0.0189 -0.0326
20370W        W35501  10.681   5.589  13.515  0.3344  0.0794  0.0218
20371W        W35502   7.808  11.035   2.183 -0.4220  0.2123 -0.1647
20372W        W35503   8.401   0.299   5.545 -0.0677 -0.1012 -0.0157
20373W        W35504   7.000   5.169  12.935 -0.2505  0.2693  0.2152
20374W        W35505   9.525   2.150   5.581  0.3703 -0.0244 -0.3853
20375W        W35506   5.453  13.413  14.661 -0.0267  0.2664 -0.0587
20376W        W35507  11.301   6.589   6.024 -0.0029  0.3919  0.1663
20377W        W35508   5.888   7.935   4.799  0.1217  0.2376 -0.0225
20378W        W35509   3.160   4.754   0.695  0.1317  0.2962  0.0515
20379W        W35510  12.139   4.027  12.793  0.2879 -0.0216 -0.1369
20380W        W35511  15.556   1.389  12.326 -0.1340 -0.2641  0.1759
20381W        W35512  16.925  16.759  11.353  0.1538 -0.5747  0.1171
20382W        W35513   8.604   9.458   1.039 -0.0335  0.1871 -0.0030
20383W        W35514  12.938  12.479   5.279 -0.0875  0.0850 -0.2904
20384W        W35515  16.993  13.758  14.639  0.0738 -0.1195 -0.1049
20385W        W35516   7.304  17.571  14.235  0.1598  0.3059  0.1506
20386W        W35517   4.246   4.726   5.017 -0.2108 -0.0012 -0.4309
20387W        W35518   7.839  14.020  11.734  0.1475  0.2809 -0.1309
20388W        W35519   4.787  13.405   3.954  0.0590  0.0360  0.0377
20389W        W35520   2.336  17.780  13.920 -0.1581 -0.0426  0.2946
20390W        W35521  13.031  11.669  13.496  0.1673  0.2397  0.0609
20391W        W35522   0.409  16.162  14.708  0.0417 -0.0036 -0.0385
20392W        W35523   8.467   4.468   2.657 -0.0975 -0.0452 -0.0705
20393W        W35524   2.967   8.910  14.939 -0.0731  0.0330  0.1213
20394W        W35525   1.122   3.146   5.544  0.1697  0.2850  0.2133
20395W        W35526   0.666   5.099   3.691 -0.1759 -0.3306 -0.0601
20396W        W35527  15.020  12.028   2.666 -0.3199  0.0752 -0.1678
20397W        W35528   2.234   5.141  14.902  0.1283 -0.1257  0.0685
20398W        W35529   3.387   5.160   1.422 -0.0297 -0.3912 -0.0819
20399W        W35530  18.024  10.655  12.572  0.0057  0.1851  0.0060
20400W        W35531   8.162   5.594  16.196  0.1764  0.0877  0.0903
20401W        W35532  13.716  16.837  12.739  0.4657 -0.1080  0.3587
20402W        W35533  15.813   9.507   2.573 -0.0987 -0.3280 -0.0473
20403W        W35534   5.795  14.327   2.313  0.0531 -0.0445 -0.1279
20404W        W35535   0.417   4.594   5.742  0.1559 -0.1117  0.0017
20405W        W35536  14.154   4.785   1.759  0.0321  0.2072  0.2423
20406W        W35537  14.491  14.843  12.107 -0.2895  0.0933 -0.4720
20407W        W35538  10.073  12.228  15.470 -0.1062 -0.1283  0.0631
20408W        W35539  12.243  12.420  11.637 -0.0092  0.0910 -0.1089
20409W        W35540   2.630  12.346  15.520  0.2312 -0.1663 -0.2192
20410W        W35541   7.911   4.216   3.214  0.1585 -0.0117 -0.0236
20411W        W35542   4.747   4.666   4.560  0.1492 -0.1409 -0.1151
20412W        W35543   6.313  17.958  11.830  0.0641 -0.1414 -0.0905
20413W        W35544   6.647   0.112   5.469  0.0964 -0.2106  0.1544
20414W        W35545  11.143  12.775  14.965  0.1079 -0.0213  0.0533
20415W        W35546  10.015  10.567  14.397 -0.0274  0.0237 -0.3244
20416W        W35547  15.004  11.576   0.351  0.0240  0.1079  0.4024
20417W        W35548   2.841  10.536  15.922 -0.2641  0.3253 -0.0952
20418W        W35549  11.443  15.091  14.579 -0.0785  0.3375 -0.0554
20419W        W35550  12.481   8.102  14.170 -0.4352 -0.0985 -0.0107
20420W        W35551   3.913   9.232  11.608 -0.0051  0.1371 -0.0056
20421W        W35552   8.764  17.173  14.937  0.0799 -0.2392 -0.0968
20422W        W35553   4.599   3.113  13.198  0.2076  0.1037 -0.0482
20423W        W35554   6.462  12.239   3.303  0.0787 -0.0047  0.0930
20424W        W35555  15.384   3.546   4.753  0.3394 -0.0556  0.2847
20425W        W35556  14.573   7.019   4.599  0.0547 -0.2248  0.0190
20426W        W35557   5.951   6.640   0.635  0.0552 -0.3365 -0.1985
20427W        W35558  16.022   0.694  11.847  0.0622 -0.2460  0.0286
20428W        W35559  16.606  10.357  14.769 -0.0067 -0.1124 -0.1331
20429W        W35560   6.544  13.648  10.170  0.2642 -0.0996 -0.0540
20430W        W35561   9.578   7.017   4.663  0.1100  0.1628  0.0084
20431W        W35562   8.526   8.595  14.375 -0.1661 -0.3000  0.1662
20432W        W35563   4.055  10.311   3.234  0.0851  0.0218 -0.0548
20433W        W35564   0.356   1.673   6.311  0.0982  0.1658 -0.1958
20434W        W35565   7.399   6.765   1.992 -0.0591  0.0004 -0.0603
20435W        W35566  16.559  12.167   2.530  0.1409 -0.0488 -0.0921
20436W        W35567   0.749   6.952  15.577 -0.0487 -0.0757  0.0760
20437W        W35568   7.255  15.542  13.853  0.0389  0.2854 -0.0800
20438W        W35569   0.615   3.064  12.438  0.2406  0.2759 -0.1414
20439W        W35570   1.716   5.879   1.191  0.0205 -0.3808 -0.0667
20440W        W35571  15.211   8.495   5.207  0.1763  0.0928 -0.4345
20441W        W35572   4.096  16.450  11.303 -0.0834  0.1034  0.0670
20442W        W35573  15.088  16.336   1.865  0.0785  0.0497  0.0746
20443W        W35574  17.504   4.810   1.536  0.0941  0.1143 -0.2010
20444W        W35575  11.171  14.540  12.655 -0.1579  0.1517 -0.1032
20445W        W35576  15.596  12.194   5.750 -0.4084  0.3007  0.1699
20446W        W35577  15.976   0.963   5.112 -0.0849 -0.0845  0.0525
20447W        W35578  14.610   5.637   0.270  0.0108  0.2277 -0.3029
20448W        W35579  17.218  14.160   5.323  0.0481  0.1069  0.1036
20449W        W35580   7.628  16.506   4.982  0.0524 -0.2581 -0.1651
20450W        W35581   6.977  17.342  13.200 -0.2145  0.1969  0.1312
20451W        W35582  13.162  13.688   4.985 -0.1447  0.0113  0.4221
20452W        W35583   1.511  17.814  14.931  0.0353  0.2289  0.3376
20453W        W35584   8.954  16.736   3.736 -0.0571  0.0160 -0.0610
20454W        W35585   5.928   3.718   2.716  0.0948 -0.0380 -0.1296
20455W        W35586   0.690  15.539   2.883 -0.0153 -0.0162 -0.1291
20456W        W35587   9.202   4.356  11.813 -0.1491  0.1072  0.2902
20457W        W35588  11.063   0.128   2.984  0.0979  0.0572  0.1420
20458W        W35589  10.420   1.536   4.827  0.1725  0.0143 -0.1390
20459W        W35590   2.472   4.280   0.840  0.1819 -0.0833 -0.0804
20460W        W35591   8.551   2.540   1.719  0.1105  0.2658 -0.0738
20461W        W35592   0.719   4.388   3.161  0.1669 -0.2588 -0.1218
20462W        W35593   8.216  11.977  16.422  0.0676  0.1985 -0.0719
20463W        W35594  14.214  16.008  15.374  0.2135 -0.0049 -0.0279
20464W        W35595  11.181  11.258  11.257  0.4547 -0.0310  0.1205
20465W        W35596  14.479   0.366   4.213 -0.0274  0.2875  0.1574
20466W        W35597   3.093  16.309  16.105 -0.1022 -0.0987 -0.0660
20467W        W35598  17.220  15.971   3.746 -0.1555 -0.1329 -0.1689
20468W        W35599   1.602   7.423   5.281 -0.0779 -0.0636  0.3670
20469W        W35600   5.599   2.399   4.068  0.2540 -0.1686 -0.0012
20470W        W35601  11.204  11.884  12.149 -0.1425 -0.0599  0.1635
20471W        W35602  12.992   5.543  16.127  0.2055  0.2100  0.2596
20472W        W35603  10.576   8.295   3.331  0.0950 -0.1840 -0.0254
20473W        W35604  17.636  16.967   3.530  0.1059  0.0439  0.0136
20474W        W35605   7.329  16.706  11.781 -0.0354  0.0222  0.1924
20475W        W35606  12.215   5.303   5.464 -0.1205 -0.0104  0.1317
20476W        W35607   7.578   0.097   3.390  0.1018  0.1976  0.2936
20477W        W35608   5.900  16.608  14.190  0.0995  0.0090 -0.2458
20478W        W35609   4.249   4.340   3.784 -0.1063  0.1648  0.4515
20479W        W35610   0.904  17.915  13.705  0.2362  0.3587 -0.0547
20480W        W35611   6.404   1.246  16.371  0.0327 -0.0662 -0.3869
20481W        W35612   3.320   9.127   2.715  0.0142 -0.0308 -0.2769
20482W        W35613  17.449   9.018   0.459 -0.0441  0.1822  0.3671
20483W        W35614  14.856   9.976  14.845  0.1653  0.2540  0.0863
20484W        W35615   4.652   4.198  11.886 -0.0947 -0.0984 -0.1605
20485W        W35616  16.409   2.215   3.337  0.0104  0.0215  0.2839
20486W        W35617   7.461   2.507  15.646  0.0728  0.2199  0.0584
20487W        W35618   1.352  10.855   0.436 -0.0921  0.0764 -0.1055
20488W        W35619   9.017  16.107   2.038  0.0308 -0.0945  0.5388
20489W        W35620  15.879  15.772  15.844  0.3213 -0.0190 -0.2066
20490W        W35621  14.403   4.716   0.310 -0.3538  0.2838 -0.0187
20491W        W35622   2.125  14.839   0.661  0.1474  0.2974 -0.1709
20492W        W35623   6.133   3.243   5.022 -0.2818 -0.0156 -0.0780
20493W        W35624   8.780  16.590   4.306 -0.2501  0.1073 -0.0086
20494W        W35625   9.629   1.909  16.052  0.0125 -0.0804  0.0597
20495W        W35626  11.610  14.576  13.062 -0.1419 -0.2041 -0.1384
20496W        W35627  10.685   0.046  15.255  0.2618 -0.1211  0.0359
20497W        W35628  14.026   6.735   6.015 -0.2209  0.0832 -0.0533
20498W        W35629   6.611  17.020  13.450 -0.0664  0.0268  0.0953
20499W        W35630   6.178   5.578  15.294 -0.0172  0.1017  0.1495
20500W        W35631  12.291   3.038  11.808 -0.0093  0.0243  0.3369
20501W        W35632   1.590   4.550   1.412  0.1219 -0.1845 -0.1894
20502W        W35633  12.801   6.272   2.380  0.1124  0.2560  0.0058
20503W        W35634  16.846  15.992  14.045  0.2708  0.2889  0.2889
20504W        W35635  15.534   8.670  14.287  0.0247  0.0977  0.0930
20505W        W35636   5.633  17.772  15.096  0.2721 -0.2566 -0.2188
20506W        W35637   3.416   4.456  13.474 -0.1049 -0.0639 -0.1277
20507W        W35638   8.199  17.640   3.017 -0.1094  0.1937 -0.0923
20508W        W35639  10.288   3.077  15.199 -0.1330  0.1845 -0.0030
20509W        W35640   1.898  14.550  15.943 -0.1855  0.0820  0.0884
20510W        W35641   8.888   8.326   3.259  0.3170 -0.0522  0.3345
20511W        W35642  13.480  16.881   3.866  0.0408 -0.0527  0.0336
20512W        W35643  15.949   2.565   2.605 -0.1152 -0.2161  0.1356
20513W        W35644   6.657  16.237  15.238 -0.1685 -0.1303 -0.0618
20514W        W35645   3.151   7.401   0.105  0.0559  0.3891 -0.3712
20515W        W35646  11.505  12.972  15.550 -0.1677  0.0834 -0.1060
20516W        W35647  17.823  11.016   4.549  0.2745  0.3407  0.2038
20517W        W35648   5.427   0.932  13.894 -0.2507 -0.1639  0.2307
20518W        W35649   7.112   0.510   2.111 -0.0741  0.0771  0.0516
20519W        W35650   7.684   5.587   2.665 -0.0741 -0.0863 -0.1394
20520W        W35651   0.247   5.558  16.152  0.1023  0.0163  0.0198
20521W        W35652   5.429   2.639   3.691  0.1448  0.2303  0.0013
20522W        W35653  12.739  12.417  15.579  0.1082  0.3817  0.1113
20523W        W35654   6.052  17.293   2.017 -0.0277 -0.2986 -0.0173
20524W        W35655  16.211   1.659   5.409  0.4556 -0.2860  0.1260
20525W        W35656   8.797  17.598   3.282  0.0929  0.1481 -0.1976
20526W        W35657   8.319  16.303  11.604 -0.1748 -0.1487 -0.2045
20527W        W35658   6.882   1.890   4.522 -0.2229 -0.2284 -0.0058
20528W        W35659   7.191   0.503  11.818  0.0054 -0.0526 -0.0864
20529W        W35660  17.084   9.877   0.697 -0.0364  0.0910  0.1414
20530W        W35661   1.370   3.568  11.547  0.2316 -0.0703  0.3727
20531W        W35662  12.789   2.056   5.338 -0.0413  0.0313  0.3287
20532W        W35663   9.373   0.721   1.527  0.1629 -0.1710  0.0228
20533W        W35664  17.120   1.322   0.470 -0.0352 -0.3495 -0.3506
20534W        W35665   6.647   9.944  14.488  0.3762  0.0377 -0.0230
20535W        W35666   8.520   1.299   5.008 -0.1747 -0.0781  0.1910
20536W        W35667   0.979   8.038  13.083  0.0766  0.0288  0.1459
20537W        W35668  17.982   0.147  15.613  0.0722  0.0025  0.0864
20538W        W35669   5.451   5.363  15.162 -0.2226  0.0722  0.1413
20539W        W35670  17.995   5.546   2.515  0.2232 -0.3424  0.0076
20540W        W35671  14.785   7.018   3.690 -0.1131 -0.1415 -0.0589
20541W        W35672  14.334   2.891  12.897 -0.1056  0.0763 -0.1575
20542W        W35673  18.077   5.230  12.611 -0.1255 -0.4204  0.0516
20543W        W35674  13.374   8.274   4.081 -0.2488 -0.2352  0.1641
20544W        W35675   9.452  13.628  13.717 -0.1614 -0.0784 -0.0475
20545W        W35676  16.307   8.808   5.283 -0.1575  0.2518  0.0290
20546W        W35677   8.812  12.427   2.153  0.1129 -0.0233 -0.3950
20547W        W35678   2.398   3.486  13.162  0.2794 -0.1914  0.1556
20548W        W35679   1.874   9.839  15.559 -0.0552  0.3001 -0.0930
20549W        W35680  13.867   2.093   0.507  0.2362 -0.0629  0.3071
20550W        W35681  11.128  11.427  13.581  0.0813  0.1274 -0.2172
20551W        W35682   4.780   2.779   2.906  0.3320  0.0662  0.0624
20552W        W35683   3.668  10.769   3.200  0.0263  0.1696  0.0791
20553W        W35684  13.485  13.269  15.896  0.2111  0.1293 -0.2202
20554W        W35685  15.183  11.467  15.905 -0.3719  0.3059 -0.2104
20555W        W35686  14.824  12.849   5.878  0.0750 -0.0477  0.0608
20556W        W35687  10.320  13.457  14.613  0.0632  0.1245 -0.0812
20557W        W35688   9.174   9.568   0.496  0.2257  0.3577 -0.2802
20558W        W35689  17.184   5.435  11.887 -0.0215 -0.0996 -0.0779
20559W        W35690  16.330  13.768   3.916 -0.1256  0.1687 -0.0858
20560W        W35691  17.446  10.619  14.999 -0.0097 -0.2017 -0.3761
20561W        W35692  16.167  12.182   4.639 -0.3095 -0.2506  0.0930
20562W        W35693  15.980  15.183  12.469  0.0082  0.4519 -0.2789
20563W        W35694   3.507  14.953   2.995 -0.0612  0.0817 -0.0381
20564W        W35695   0.551   1.314   1.616 -0.0352  0.2473  0.2236
20565W        W35696   2.368   1.446   5.547 -0.3807 -0.0745 -0.2035
20566W        W35697   0.926   5.157   2.775  0.2967 -0.3831 -0.2297
20567W        W35698  13.184  12.845  15.700  0.1668  0.1645  0.1194
20568W        W35699  15.030   1.792  14.466  0.2417 -0.0133 -0.0735
20569W        W35700   0.330   9.355   2.155  0.0509 -0.0527  0.3503
20570W        W35701   2.220  14.549   6.464 -0.1355 -0.1284 -0.1180
20571W        W35702  13.492  13.594  11.581 -0.0650  0.1812 -0.3328
20572W        W35703   5.097   6.352   2.976 -0.0407  0.0138  0.0282
20573W        W35704   3.779  16.688   1.359 -0.0393  0.2476 -0.0725
20574W        W35705   6.863  11.943  13.555 -0.4316  0.4474  0.2383
20575W        W35706   1.542  11.583  16.007  0.1690  0.2690  0.1467
20576W        W35707   7.625   0.795   4.629  0.4014 -0.0944 -0.0917
20577W        W35708  17.675   8.870   3.892  0.2055 -0.0210  0.2487
20578W        W35709  14.620  17.388  12.843  0.1068 -0.2255 -0.2525
20579W        W35710   2.780  10.422  12.332  0.0461 -0.0282 -0.1227
20580W        W35711  17.702  13.038  12.301  0.0390  0.0182  0.0309
20581W        W35712   6.087   6.091  14.080  0.0474  0.1683 -0.0643
20582W        W35713   6.581   7.782   5.411 -0.1638  0.0858 -0.0859
20583W        W35714   9.133  12.129   2.341 -0.1200 -0.4103  0.0204
20584W        W35715  16.916   6.562   2.495 -0.2565 -0.0385 -0.0731
20585W        W35716  18.033   7.810   1.581  0.2308 -0.2146  0.1027
20586W        W35717  13.877  15.663   2.974 -0.1199  0.3586 -0.0331
20587W        W35718   7.513  15.431   1.169 -0.2110 -0.4481 -0.0550
20588W        W35719   1.393   5.475   5.775 -0.3142  0.1607  0.3485
20589W        W35720  11.397   1.164   5.719  0.1177 -0.5264  0.0689
20590W        W35721   6.578   7.333   0.952 -0.0801  0.1690 -0.2001
20591W        W35722   1.008  14.539  16.329 -0.2816  0.0280 -0.1688
20592W        W35723   2.128   7.109  15.711  0.3531  0.1718  0.2440
20593W        W35724  14.454   5.563  11.281  0.0532  0.0470 -0.0481
20594W        W35725   0.698  10.641   2.457  0.3909  0.0009 -0.2154
20595W        W35726  16.413  13.381  15.622  0.3531  0.1024  0.0248
20596W        W35727   2.997  18.039   3.036 -0.0018  0.0175 -0.2005
20597W        W35728   4.098   6.051  11.366  0.2170  0.2184  0.1102
20598W        W35729  17.792   2.436   1.901  0.0858  0.1271 -0.1626
20599W        W35730   5.488   4.877   5.009 -0.1547  0.1014 -0.3575
20600W        W35731  17.237   5.937   1.163  0.0358 -0.1619  0.2808
20601W        W35732   6.658   4.961  16.286 -0.1228  0.1040 -0.3827
20602W        W35733   5.693  11.985   0.445  0.0755 -0.1121  0.0184
20603W        W35734  13.857  13.753  12.449  0.2806 -0.0734  0.3111
20604W        W35735   2.487  13.294   3.032  0.3410  0.1877  0.3175
20605W        W35736  13.868   3.027   5.663  0.1241 -0.0467  0.1866
20606W        W35737   4.212   6.204   0.368  0.2617 -0.2254 -0.2176
20607W        W35738   9.470  16.953   1.954  0.0955  0.3050 -0.0372
20608W        W35739   5.923   2.668  11.322  0.2715  0.0623  0.1038
20609W        W35740   6.535  15.414  13.546  0.0441 -0.1326 -0.1339
20610W        W35741   8.994   0.400  10.157 -0.0755  0.2759  0.1287
20611W        W35742  10.532   3.913  14.386  0.1937  0.1836 -0.2218
20612W        W35743   5.174   6.504  11.419 -0.1935 -0.3453  0.0740
20613W        W35744  11.587   0.688   0.879  0.0130  0.3302 -0.1405
20614W        W35745  10.358   6.523  10.814  0.1632  0.0431 -0.1073
20615W        W35746   1.316   7.462  13.897  0.0355 -0.0375  0.0403
20616W        W35747   5.658  15.509   1.865  0.0248  0.1843  0.2753
20617W        W35748   5.330  10.435   2.806 -0.1107  0.2210  0.0895
20618W        W35749   2.043  12.578  12.445  0.0261 -0.1554  0.2588
20619W        W35750  12.780   1.380  12.922  0.0308 -0.3443 -0.0152
20620W        W35751   7.301  11.367   5.062 -0.2569  0.1036  0.4184
20621W        W35752  14.829  10.149   2.003  0.1392 -0.1281 -0.3049
20622W        W35753   4.376  16.663   5.882  0.2760 -0.0713 -0.1551
20623W        W35754  15.537  14.449  15.877 -0.2437  0.0317  0.0939
20624W        W35755  12.978   1.478   0.768  0.2611  0.0641 -0.2066
20625W        W35756   5.647   1.805   5.438 -0.0747 -0.0174  0.2596
20626W        W35757   5.196   6.636   0.617  0.2550  0.0694  0.1628
20627W        W35758  13.313  16.903  13.735 -0.1520 -0.3216 -0.0611
20628W        W35759  10.681   2.806  16.442 -0.0132 -0.0796  0.1206
20629W        W35760   4.809   9.228  11.335 -0.1050 -0.0260  0.2053
20630W        W35761   5.434  10.466  14.067  0.0008 -0.2942  0.1823
20631W        W35762   6.647   6.318   3.680 -0.0035  0.1312 -0.2750
20632W        W35763   6.099  14.065   2.029  0.1342  0.1881  0.0783
20633W        W35764   0.039  12.026   3.244 -0.0361  0.1701 -0.1600
20634W        W35765   8.295   3.943   0.081 -0.0992 -0.0141  0.0579
20635W        W35766   5.753   3.685  12.083 -0.2325 -0.2405  0.1179
20636W        W35767  14.733   3.824  14.520 -0.3730  0.0147  0.1176
20637W        W35768   9.960   3.255   2.555  0.1646  0.1718 -0.1832
20638W        W35769   9.592  13.340  12.471  0.3540 -0.5203 -0.1917
20639W        W35770   3.594  15.311  14.669 -0.2015  0.2305  0.0661
20640W        W35771  17.855   4.760   2.509 -0.1080 -0.1263 -0.3575
20641W        W35772  10.206  13.238  15.387 -0.2474 -0.1347 -0.1641
20642W        W35773   1.987   4.651  15.110  0.1931  0.1252 -0.2556
20643W        W35774  13.574  15.897   2.675  0.0810  0.1260  0.1569
20644W        W35775  11.315   8.025  16.159 -0.3983 -0.2227 -0.1163
20645W        W35776   8.065  17.247  12.732 -0.0899  0.0124 -0.1274
20646W        W35777   7.235  16.451   1.993  0.0097  0.1414  0.0594
20647W        W35778  15.318  14.217   4.502 -0.0542 -0.0285  0.4740
20648W        W35779  12.012   6.914  13.059  0.0789 -0.0197 -0.1937
20649W        W35780  15.213   3.185   5.169  0.0214  0.1525 -0.2776
20650W        W35781   8.122   0.701   0.749  0.0534 -0.0365  0.1467
20651W        W35782  14.648   9.251  16.362  0.0375  0.0868 -0.0881
20652W        W35783   8.267  14.897   1.460  0.0180 -0.0681  0.1074
20653W        W35784  17.702  15.553   1.203  0.1984 -0.2562  0.2308
20654W        W35785  17.122  13.486   2.936  0.0876 -0.0989  0.2546
20655W        W35786   1.999  18.073   3.164  0.0269 -0.1248  0.1054
20656W        W35787   9.058   9.064  14.547 -0.1375  0.4440  0.3713
20657W        W35788  18.035   6.336  14.583 -0.1476  0.0549  0.0053
20658W        W35789   1.592   8.559   1.985  0.0237  0.2376  0.0198
20659W        W35790   0.795  12.202   3.532 -0.2026  0.1615  0.0883
20660W        W35791  10.949   3.318  10.378  0.0155  0.2545 -0.2526
20661W        W35792   4.267  17.386   2.962  0.1193  0.2047  0.1108
20662W        W35793   3.810  14.237  16.381  0.2689 -0.0676 -0.0296
20663W        W35794   9.262  11.121   3.648 -0.1761  0.1150  0.0516
20664W        W35795   1.425   5.430   0.174  0.1560 -0.1061 -0.0638
20665W        W35796   0.616  15.289  13.822  0.0867  0.0296  0.3466
20666W        W35797   0.986   1.560  11.922  0.0563 -0.2655 -0.0865
20667W        W35798   7.015  12.162   4.884  0.3001 -0.2291 -0.1036
20668W        W35799   6.854  10.506  15.664  0.1434 -0.0790  0.2266
20669W        W35800  15.398  13.757   1.616  0.3489 -0.1325 -0.0967
20670W        W35801   5.671   0.210   1.414 -0.0521  0.1628 -0.0367
20671W        W35802  17.995   2.127   3.200 -0.0213 -0.0998  0.1676
20672W        W35803   9.329  10.553   0.433  0.2531 -0.1682  0.0908
20673W        W35804  15.981  12.452   5.520 -0.0769  0.2380 -0.0612
20674W        W35805   2.539  12.454  11.589 -0.3139 -0.1265 -0.0535
20675W        W35806  14.967  17.198  14.273 -0.1199  0.2861 -0.1111
20676W        W35807  13.283  16.142   0.712  0.1196  0.1744 -0.1943
20677W        W35808   1.426  15.077   1.309  0.2544 -0.1770 -0.1173
20678W        W35809   4.403   6.994  11.383  0.1208 -0.0199 -0.2527
20679W        W35810   4.706  10.934  13.233 -0.1496 -0.0635  0.1322
20680W        W35811  13.000   5.787   3.926 -0.0829  0.0608  0.3210
20681W        W35812  13.561   8.265  12.219  0.0968  0.0992  0.1092
20682W        W35813   8.794   5.468  13.392 -0.0966 -0.2041 -0.0692
20683W        W35814   0.978   2.268   5.069  0.0083 -0.1128  0.3158
20684W        W35815  11.762   0.076  11.360  0.4660  0.2124  0.3020
20685W        W35816  17.291   4.478  12.241  0.0008 -0.2846 -0.1359
20686W        W35817   8.366  17.547  11.295 -0.0676  0.2997  0.1726
20687W        W35818   9.293   0.321  11.058  0.0481 -0.0343 -0.0105
20688W        W35819  13.123   4.797  16.156 -0.0591  0.2548 -0.0612
20689W        W35820   5.423  15.119  12.730  0.0701  0.1955 -0.2090
20690W        W35821   6.987  17.826   5.477  0.1891 -0.0493  0.0452
20691W        W35822  15.891  12.441   1.876  0.0238 -0.1282 -0.0430
20692W        W35823   2.917  16.143  15.669 -0.4400  0.2234 -0.1043
20693W        W35824   7.714  17.409   5.203  0.2046  0.3498  0.3069
20694W        W35825  13.424  11.852  11.208 -0.0211 -0.0492 -0.4037
20695W        W35826  13.208   2.115   5.077 -0.2685 -0.0812  0.0727
20696W        W35827  10.126   1.718  14.218  0.2292 -0.0644 -0.0493
20697W        W35828  12.030   2.694   3.213 -0.4543  0.3180  0.1943
20698W        W35829   3.601  13.196   0.473 -0.2523  0.1641 -0.1046
20699W        W35830   4.902  17.567  13.928  0.0020  0.2436 -0.1207
20700W        W35831   3.573  10.945  11.758 -0.0461 -0.1203  0.0614
20701W        W35832  14.336   2.910  15.392 -0.1780 -0.0075  0.0002
20702W        W35833  13.274  14.149  10.838 -0.0257  0.2312 -0.2964
20703W        W35834  13.551   3.347   5.419 -0.0656  0.2382  0.0128
20704W        W35835  12.344  17.641   1.427  0.4091 -0.1627  0.2056
20705W        W35836  10.779  13.221   4.487 -0.2339 -0.4115 -0.0719
20706W        W35837  13.816   5.739  14.471 -0.2398 -0.0388 -0.0144
20707W        W35838   4.669   4.835  11.958  0.1799 -0.2500  0.1616
20708W        W35839  14.439   4.055  16.047  0.2076  0.2335 -0.0514
20709W        W35840   1.152  14.401  13.920  0.1811 -0.1059  0.2018
20710W        W35841   1.418  15.459  11.640 -0.1737 -0.1001  0.3066
20711W        W35842   3.052   4.493  13.150  0.0298  0.0866  0.0952
20712W        W35843   7.679   4.855   3.183 -0.0388  0.3175 -0.1711
20713W        W35844   4.944  13.273   3.523 -0.1279 -0.5715  0.0742
20714W        W35845   5.446   0.906   5.134 -0.1953  0.1445 -0.0384
20715W        W35846  12.121  16.677   3.534  0.1363 -0.0401 -0.3232
20716W        W35847   2.117   7.362  12.843  0.1152 -0.2196  0.0035
20717W        W35848   3.649   5.060   0.367 -0.2814  0.1205 -0.2134
20718W        W35849  12.806  10.715   5.385 -0.0013 -0.2964  0.1788
20719W        W35850  15.173   0.611   3.547  0.2617 -0.2950  0.1149
20720W        W35851  13.596  11.808  12.588 -0.1167  0.1285  0.1045
20721W        W35852  14.700   2.659  12.671  0.0348 -0.0983  0.0836
20722W        W35853  12.405   4.119  16.365  0.2744  0.0777  0.2780
20723W        W35854   6.696  15.927  13.196 -0.0014 -0.0062 -0.0185
20724W        W35855  13.335  17.400  13.551  0.2804  0.2284  0.2937
20725W        W35856   8.190  14.914  14.397  0.0186 -0.4363  0.1119
20726W        W35857  13.129  15.121   2.910 -0.0366 -0.1157  0.0018
20727W        W35858  12.320   1.920   1.070  0.0957 -0.2579 -0.0968
20728W        W35859  13.625  12.208   4.989  0.0186  0.0798 -0.2981
20729W        W35860   1.534   9.599  14.087  0.0572 -0.1387  0.0258
20730W        W35861  10.478  14.531  15.171  0.0183  0.1387 -0.1700
20731W        W35862  11.796  17.428  15.890  0.0007  0.0160  0.0324
20732W        W35863   2.932  16.320  14.258  0.0575  0.0751 -0.2692
20733W        W35864   1.310  14.751   3.333  0.4138 -0.2609  0.0813
20734W        W35865  12.930  11.622   5.207 -0.1489 -0.0842  0.1269
20735W        W35866  14.269   4.272   4.545 -0.0387 -0.2719 -0.1453
20736W        W35867  14.754   7.894   0.974 -0.1653 -0.0511  0.3758
20737W        W35868  13.622   2.756   1.912 -0.0891  0.1784 -0.3253
20738W        W35869  14.375   8.529  13.718 -0.0732 -0.1616 -0.0271
20739W        W35870  13.802   6.564  12.522 -0.2627 -0.1585  0.3487
20740W        W35871   6.794  14.834  11.536 -0.1236  0.1291 -0.0105
20741W        W35872  17.375  12.109  11.913  0.1323 -0.4278 -0.0249
20742W        W35873   0.727  14.649  14.521 -0.1054 -0.0547  0.0906
20743W        W35874   1.828   9.738  12.177 -0.0537  0.0064  0.0367
20744W        W35875  16.869   3.988  13.398 -0.1402 -0.1988  0.1269
20745W        W35876   8.542   3.438   4.716 -0.4676 -0.3724  0.2091
20746W        W35877   0.424  17.442  16.377  0.1311  0.2186  0.0659
20747W        W35878   9.981   4.794   1.950  0.0745  0.2445  0.1353
20748W        W35879  16.194  10.827  12.608 -0.2634  0.1468  0.2578
20749W        W35880   4.338  13.561   4.740 -0.1564 -0.2283  0.0418
20750W        W35881  13.500   5.696   3.801  0.1937  0.0257  0.1350
20751W        W35882   0.653  10.088  15.816  0.0901  0.1660 -0.0464
20752W        W35883   6.537   4.944  15.805 -0.0492  0.1366 -0.0826
20753W        W35884   6.146   7.190   1.983  0.2948  0.0676  0.3793
20754W        W35885  13.718   1.635  14.039  0.4610 -0.1016  0.0708
20755W        W35886   1.223  16.726  13.195 -0.3131  0.0973  0.0876
20756W        W35887   7.310   9.147  14.837  0.2494  0.0725  0.1893
20757W        W35888  11.234   8.764   4.635  0.1240 -0.1058  0.0997
20758W        W35889  17.382   5.881  16.374  0.0580  0.1958  0.4259
20759W        W35890  14.051   7.408  16.242 -0.0582  0.0574 -0.4736
20760W        W35891  13.758   3.134  11.110  0.2035 -0.1170 -0.2602
20761W        W35892  10.735  16.047  11.431 -0.0440 -0.0618 -0.0740
20762W        W35893  17.888   8.795   2.860 -0.0021  0.2648  0.0124
20763W        W35894   1.707   1.233   6.207  0.3202 -0.0341 -0.4619
20764W        W35895   3.924   9.692  11.226 -0.4441 -0.0606  0.1836
20765W        W35896  10.932  15.190   5.669  0.0263 -0.1581 -0.0200
20766W        W35897  15.791   1.273  14.471 -0.1229  0.0672 -0.2372
20767W        W35898   6.171   1.122   5.768  0.3042  0.1244  0.1129
20768W        W35899  15.005   4.369  14.356  0.0097 -0.1473 -0.1247
20769W        W35900   8.681   9.029  12.338  0.0505 -0.2721 -0.2086
20770W        W35901  12.797  14.728   4.137 -0.2849 -0.2053  0.2821
20771W        W35902   7.224  12.114  11.522 -0.1748  0.2778  0.0250
20772W        W35903  15.324  10.074   1.833 -0.0454  0.1148  0.1302
20773W        W35904   2.385   4.680  13.887 -0.2735 -0.1109 -0.2165
20774W        W35905   9.145   5.278  11.262 -0.5068 -0.0602  0.1136
20775W        W35906   4.500  12.687   2.213  0.2907 -0.0354 -0.2830
20776W        W35907  16.423   3.888   4.776  0.1036 -0.2346  0.0002
20777W        W35908  17.582   1.409   4.290  0.4768  0.4672  0.2139
20778W        W35909   4.548   4.922   5.808  0.1442 -0.0244 -0.2984
20779W        W35910   6.226   0.246  11.227  0.1292  0.1540  0.2015
20780W        W35911   3.884  11.100  11.220 -0.1374  0.0963  0.1033
20781W        W35912   6.180  15.767  13.675 -0.0541  0.2132 -0.0740
20782W        W35913   2.991  11.744  13.903 -0.0045  0.1880 -0.2208
20783W        W35914   7.298   6.208  14.806 -0.2628  0.1045 -0.0640
20784W        W35915   2.074   9.629   0.489 -0.2592  0.2195  0.0210
20785W        W35916   0.246  11.069  11.354  0.1046  0.1559 -0.0146
20786W        W35917  13.913   3.717   0.182  0.1143  0.0502 -0.0915
20787W        W35918   9.333   5.943  10.489  0.0686 -0.0377  0.0623
20788W        W35919   2.653   9.166  14.674  0.0795  0.2271  0.1027
20789W        W35920  17.253  12.464   2.853 -0.2154  0.2230 -0.0037
20790W        W35921  14.697   7.451   4.347  0.0606 -0.1592 -0.3102
20791W        W35922   8.655   3.348  13.492 -0.1467 -0.1950  0.2536
20792W        W35923   7.151  17.471   3.582 -0.1255  0.2123  0.0409
20793W        W35924   4.434  16.638   4.637  0.1949  0.2515 -0.0902
20794W        W35925  11.958   7.328  12.127 -0.2764  0.2331  0.0500
20795W        W35926   7.557   8.552   1.962 -0.1514  0.0845 -0.0471
20796W        W35927  10.681   8.543   1.451  0.1662  0.1055 -0.0183
20797W        W35928   5.557  12.090  12.670 -0.4495  0.1662 -0.3047
20798W        W35929   0.354   3.445  15.406  0.1098  0.0824  0.1636
20799W        W35930  13.583  14.839  15.273 -0.1597  0.1921  0.1265
20800W        W35931   7.836  17.073   5.620  0.0362  0.0951  0.2362
20801W        W35932  17.870   7.205  13.414  0.0153  0.0432  0.1628
20802W        W35933   8.042  11.192  16.399 -0.1567  0.2880 -0.1354
20803W        W35934   8.187   5.933  15.263 -0.0558  0.2309  0.2071
20804W        W35935  16.960  17.973   4.381  0.4090  0.0265  0.4042
20805W        W35936   5.619  16.346   3.690 -0.2133  0.0054 -0.1393
20806W        W35937   2.624   9.866   3.085 -0.3417  0.1361 -0.3443
20807W        W35938  13.001   0.147  13.375 -0.1324  0.1830  0.1117
20808W        W35939  15.698   6.202  15.691 -0.1829 -0.0436 -0.0602
20809W        W35940   9.785  15.404   2.426 -0.0268 -0.0721 -0.1179
20810W        W35941   5.238   0.039   2.469  0.1624  0.1093 -0.0112
20811W        W35942   5.087   9.752   3.627  0.0997 -0.1912  0.0750
20812W        W35943   5.808  14.572  16.285  0.0300  0.1679 -0.0969
20813W        W35944   7.785   2.091   6.520 -0.1285  0.2127 -0.0924
20814W        W35945   8.990  15.262  13.200  0.0267  0.1621  0.5192
20815W        W35946   4.989  17.469   2.840  0.1408  0.1719 -0.1991
20816W        W35947   3.124  12.458  12.529  0.0624  0.0722 -0.1179
20817W        W35948   0.274   1.974  16.384  0.0882  0.1015 -0.1315
20818W        W35949  17.527   9.594  16.110  0.3053  0.0433 -0.1530
20819W        W35950   4.508  15.226  15.664  0.1009 -0.0233 -0.1797
20820W        W35951   5.498   0.202  14.826 -0.1211  0.0459  0.0444
20821W        W35952  17.738   8.906  12.632  0.1987  0.0133 -0.2528
20822W        W35953   1.091   0.790   4.441  0.1129 -0.1094  0.3205
20823W        W35954   8.798  16.283  11.686 -0.2386 -0.0204 -0.2263
20824W        W35955  16.007  14.433   1.839 -0.1867  0.2247 -0.1398
20825W        W35956   3.799   3.117   1.886  0.1418  0.2670 -0.0457
20826W        W35957  11.906   8.972  16.309  0.1694 -0.2463  0.2073
20827W        W35958  12.937   6.129  14.113 -0.1514 -0.1366  0.2557
20828W        W35959   1.822  12.953  13.838 -0.0226 -0.1696  0.2117
20829W        W35960  10.734  13.932  15.062  0.0351 -0.1603 -0.2620
20830W        W35961  16.250   7.765  15.411 -0.1053 -0.0884  0.1337
20831W        W35962  11.192   6.824  14.381  0.2107 -0.1549 -0.0203
20832W        W35963   3.063  11.637  10.808  0.0320  0.0294  0.1092
20833W        W35964  17.540  10.113   0.682  0.0160 -0.0520  0.2898
20834W        W35965   5.100  17.882   0.698 -0.2149  0.0502  0.4146
20835W        W35966  13.959  12.038   3.469  0.0745 -0.0290  0.0837
20836W        W35967   4.601   7.091   2.044  0.2560  0.0144  0.0081
20837W        W35968   1.238   7.693  12.865  0.0538 -0.2157 -0.2755
20838W        W35969  11.443   2.795  14.029  0.0453 -0.0764  0.1535
20839W        W35970  14.005  14.757  15.658 -0.0965 -0.3307 -0.1053
20840W        W35971   1.826  16.338  11.931  0.2011  0.0317 -0.4050
20841W        W35972   4.348   2.769   5.414  0.1162  0.1389  0.0138
20842W        W35973  14.574   2.383   5.997  0.0111 -0.1988 -0.1915
20843W        W35974   1.158  11.859   0.582  0.1930  0.2867  0.0044
20844W        W35975   8.876  13.422  16.297 -0.2022 -0.1185  0.2061
20845W        W35976   2.606   8.334  13.145 -0.0703 -0.1528 -0.0615
20846W        W35977  12.837  14.312  15.422  0.2581 -0.0090  0.0665
20847W        W35978   1.664   2.354  13.591 -0.2272 -0.0065 -0.0115
20848W        W35979  10.017   6.012   1.467 -0.0301 -0.3315  0.0643
20849W        W35980  10.997   2.000  14.678  0.2297  0.1045  0.1338
20850W        W35981  13.723   3.706   1.070 -0.4250  0.2039  0.0615
20851W        W35982   6.066  12.481  12.623 -0.3206  0.2768 -0.0151
20852W        W35983  10.637  11.251  16.390 -0.1239 -0.3425 -0.2783
20853W        W35984   9.934   9.302  14.944 -0.1817 -0.1729 -0.0711
20854W        W35985  10.664  10.904  11.707  0.2731  0.1855  0.0135
20855W        W35986   4.833   2.570   2.390  0.1437 -0.0129 -0.0984
20856W        W35987   5.497  13.342  14.073  0.3782 -0.0302  0.2875
20857W        W35988  10.459   2.860  12.389 -0.0812  0.1471  0.0652
20858W        W35989   5.371   2.603  11.184 -0.3369 -0.1265 -0.0010
20859W        W35990   6.104  14.681   2.007 -0.2414  0.0167 -0.1625
20860W        W35991  16.857   2.212   1.982 -0.4374 -0.0332 -0.0534
20861W        W35992  12.414   4.843  12.086  0.0094 -0.1560  0.0205
20862W        W35993   6.840  11.709  15.160  0.2412  0.1704 -0.1133
20863W        W35994   9.318  16.538   1.705 -0.2200 -0.1403 -0.1303
20864W        W35995   3.815  11.017  10.711 -0.4143  0.0889 -0.1174
20865W        W35996   6.288   1.547  16.029 -0.1673  0.0590  0.3647
20866W        W35997   3.720  14.313  13.100  0.0373  0.1009 -0.1215
20867W        W35998   6.896  17.883  11.614  0.4590 -0.2329  0.0691
20868W        W35999   6.384  16.402   2.055  0.2618  0.0256  0.1496
20869W        W36000   6.672   9.768   3.948 -0.0827  0.1399  0.2270
20870W        W36001  13.974  13.780  11.402 -0.1663 -0.0332  0.1132
20871W        W36002   4.437  14.410   1.914 -0.2795  0.1924  0.2523
20872W        W36003   4.230  13.831   1.640 -0.0172  0.1104 -0.2251
20873W        W36004  12.408  14.704   3.491  0.1757  0.0164 -0.3485
20874W        W36005   8.268   5.722  10.872 -0.4129  0.3598 -0.2241
20875W        W36006   7.756   6.049  15.526 -0.0935  0.2601  0.1642
20876W        W36007  16.239   6.205   6.561  0.1541  0.1325 -0.2264
20877W        W36008  11.536  12.812   1.838 -0.3344  0.0011  0.4079
20878W        W36009   8.818   4.563  13.837  0.1220  0.1986  0.0763
20879W        W36010   2.181   7.095   0.421  0.1054  0.0734  0.0868
20880W        W36011  10.944   2.749   4.646 -0.1406  0.2509  0.0383
20881W        W36012  11.277   0.425   3.381  0.1137 -0.0045 -0.0799
20882W        W36013   8.000   7.326   9.554 -0.0680  0.1682 -0.0614
20883W        W36014  11.827  12.457   4.521 -0.1003  0.2184  0.1464
20884W        W36015  16.437   2.739  12.201 -0.0049  0.0102 -0.1789
20885W        W36016   4.946   7.948   1.669  0.5504  0.3519  0.1935
20886W        W36017   6.486   9.877  15.271  0.0321  0.0513 -0.0335
20887W        W36018   0.632  12.766  12.575  0.0617 -0.3649 -0.1406
20888W        W36019  11.207  11.528  14.842  0.0904  0.1136 -0.0639
20889W        W36020  16.878  12.305  16.355  0.3431  0.2935 -0.2065
20890W        W36021   5.340   5.060   1.496  0.1362  0.1883  0.1786
20891W        W36022   5.500  15.563  11.596 -0.0729 -0.2470 -0.2316
20892W        W36023   8.524  15.791   3.303  0.0307 -0.1783 -0.1697
20893W        W36024   3.277  11.489  11.932 -0.0046  0.2605 -0.0812
20894W        W36025  15.371  11.975  14.515  0.0489  0.2207  0.1463
20895W        W36026   3.478   9.055  13.808 -0.0125  0.0804 -0.0483
20896W        W36027   2.006   7.203   5.497  0.2234 -0.1407 -0.0980
20897W        W36028   7.716   6.570  14.625  0.3579  0.2388 -0.0534
20898W        W36029   0.107   0.050  13.319 -0.2132 -0.0257 -0.0226
20899W        W36030  10.888  12.230  12.359 -0.2061 -0.0830 -0.1799
20900W        W36031  10.273   3.941   4.940 -0.3661  0.3104 -0.0250
20901W        W36032   3.673  14.870   5.091 -0.4541  0.1798  0.1071
20902W        W36033  11.022  14.657   2.123  0.0351 -0.1892 -0.1191
20903W        W36034   6.152   7.641   3.499 -0.6567 -0.2942 -0.3496
20904W        W36035   0.885   2.852   1.905 -0.0722 -0.0248  0.1272
20905W        W36036   3.540   1.243  10.872  0.2239  0.1184  0.0578
20906W        W36037  17.819  10.346   3.956  0.1924  0.0343 -0.3669
20907W        W36038   8.260  16.149   3.620  0.0457  0.1956 -0.2586
20908W        W36039   0.707   7.721  11.429  0.1164  0.1480 -0.0578
20909W        W36040   2.094   5.793  13.141 -0.0325  0.1126  0.2468
20910W        W36041   8.104  13.114   0.880 -0.0322  0.4464  0.1848
20911W        W36042   2.431  12.959  12.734  0.0414 -0.4127 -0.0410
20912W        W36043   8.785   8.012   1.596  0.1774 -0.0779  0.0675
20913W        W36044  16.623  10.466   3.162 -0.0897 -0.0805 -0.0543
20914W        W36045   9.361  14.997   1.054 -0.1283  0.0354 -0.1649
20915W        W36046   6.156   0.331  14.381 -0.0561 -0.1089  0.2988
20916W        W36047  11.747   3.268   0.568 -0.0098  0.2789  0.0988
20917W        W36048   2.697   2.533  14.855 -0.0971 -0.3105 -0.0551
20918W        W36049   5.263   6.588  14.589 -0.0488 -0.2781  0.0764
20919W        W36050   0.421  15.896  15.198 -0.0240  0.0776 -0.4488
20920W        W36051   6.217   2.938   4.677  0.2765 -0.1307  0.0926
20921W        W36052  12.769  15.496  14.029  0.0659 -0.2191  0.2224
20922W        W36053  13.341   6.573  12.225  0.0183 -0.0127 -0.0207
20923W        W36054   3.727  11.584  15.208  0.1938 -0.0608  0.0527
20924W        W36055   6.833  14.470   2.457  0.1954  0.0599 -0.1201
20925W        W36056  14.675  15.589   4.683 -0.1084  0.1703  0.5207
20926W        W36057   8.055  16.451  15.917 -0.1899  0.4130 -0.2949
20927W        W36058   5.031  10.146  11.637 -0.1361  0.3320  0.0382
20928W        W36059   1.737   1.465  12.486 -0.1849  0.0381  0.1323
20929W        W36060   8.719  16.803   0.658  0.1049 -0.2498 -0.1086
20930W        W36061   1.852   5.670   2.703  0.2350 -0.1133  0.0423
20931W        W36062   8.692   2.677  10.981  0.0707 -0.0027  0.0316
20932W        W36063   5.874  17.237  12.026  0.1241  0.0520 -0.0263
20933W        W36064  11.273   9.171  10.950  0.1156 -0.2259 -0.1855
20934W        W36065  17.733  17.546  11.228 -0.1612  0.2645  0.0636
20935W        W36066  17.038  12.443  15.134 -0.3499  0.0866 -0.1340
20936W        W36067   6.655   3.836   4.126  0.0270  0.0249  0.0505
20937W        W36068   7.033  15.092   2.096 -0.0921 -0.2075 -0.0226
20938W        W36069   8.239  17.334   0.169  0.2950 -0.0677  0.0797
20939W        W36070   4.393  14.963   3.018  0.1763 -0.1365  0.4118
20940W        W36071   4.301   5.833   4.025 -0.0598  0.4464 -0.0380
20941W        W36072  16.730  18.017   0.277  0.0771 -0.1805 -0.2306
20942W        W36073   7.883  15.080   3.268  0.0709  0.4096  0.1900
20943W        W36074  10.490   3.977  15.381  0.2019  0.1082  0.0837
20944W        W36075   7.080   3.041   3.808  0.1109 -0.0250 -0.4134
20945W        W36076  12.441   6.395  12.408 -0.2377  0.1570  0.2827
20946W        W36077   4.070   8.980   3.301 -0.1300  0.2943  0.0619
20947W        W36078   1.540  16.053   6.073  0.2103 -0.2287  0.2044
20948W        W36079   1.339   8.656   0.986 -0.1952 -0.2302  0.0402
20949W        W36080   5.254   0.166  15.929 -0.0676 -0.0605 -0.3085
20950W        W36081   7.988  13.806  15.775  0.3005 -0.0334 -0.4187
20951W        W36082  12.690  17.426   1.794  0.0178  0.1067 -0.1449
20952W        W36083  15.343  10.191  13.942 -0.0956  0.1045 -0.0535
20953W        W36084  10.040  14.529   0.752  0.0871  0.2236 -0.1228
20954W        W36085   8.360  11.161  11.219 -0.0162  0.0268 -0.1272
20955W        W36086  17.729  15.281  15.855  0.0649  0.4070 -0.0168
20956W        W36087   5.388  12.344   1.686 -0.2275  0.0432 -0.2182
20957W        W36088  11.348  14.959  11.855  0.1728 -0.0536 -0.0421
20958W        W36089   9.432   0.577  15.352 -0.1369 -0.3754  0.3217
20959W        W36090   6.126   2.989  16.298 -0.0878 -0.0970  0.3650
20960W        W36091   9.214   6.711  10.925 -0.0054  0.3058  0.1254
20961W        W36092   4.562  16.325   1.660  0.0668  0.0611 -0.0219
20962W        W36093   6.571   1.388   5.453  0.1231 -0.1516 -0.1524
20963W        W36094   9.533  17.947  13.961 -0.0879  0.1050 -0.1967
20964W        W36095   9.836   4.333   5.750  0.2200  0.1474 -0.0834
20965W        W36096   8.871  14.711   6.367  0.2431  0.2650  0.1697
20966W        W36097  12.609  10.463  12.997 -0.0052  0.0963  0.0614
20967W        W36098  12.396   2.935  11.317 -0.0206 -0.0317  0.1373
20968W        W36099  10.936  15.634   3.468  0.4914 -0.3083  0.0619
20969W        W36100   5.205  12.977   1.938  0.0191  0.1926 -0.2165
20970W        W36101  12.006   0.679  15.113 -0.0270  0.0439  0.1624
20971W        W36102  11.175   5.681  13.366  0.2017  0.0724  0.0435
20972W        W36103  17.754  16.367  15.129  0.1413 -0.1944  0.3738
20973W        W36104   9.996   4.196  10.801 -0.2726  0.0976 -0.0408
20974W        W36105   7.173   9.231   4.117 -0.0373 -0.0235 -0.0043
20975W        W36106  11.439  12.657   5.965  0.0837 -0.4139  0.0848
20976W        W36107   8.284   6.384   3.245  0.0407  0.0221 -0.0255
20977W        W36108   3.415   5.348   2.521 -0.1674  0.2257  0.4795
20978W        W36109  14.633  16.063  14.348 -0.1015  0.5886 -0.0637
20979W        W36110   3.977   0.567  11.871 -0.1312 -0.1475 -0.1683
20980W        W36111  16.982  14.962  12.202  0.2520  0.0047 -0.1181
20981W        W36112   8.878  11.246  14.990  0.0235  0.1230 -0.0158
20982W        W36113   2.031  11.812   4.563  0.1052 -0.2136  0.2663
20983W        W36114  11.646   0.173   1.379  0.0736 -0.1072 -0.1390
20984W        W36115   9.225  15.867  15.594  0.1131 -0.1801  0.2140
20985W        W36116   5.454   6.853  12.743  0.5018  0.0549 -0.4746
20986W        W36117   3.751   8.642  14.242  0.0149 -0.2137 -0.0303
20987W        W36118  16.102   8.195  10.016  0.1499  0.2826  0.0145
20988W        W36119  13.966   1.616  15.877 -0.2050  0.1550 -0.1700
20989W        W36120  17.319   0.673   3.965 -0.1022 -0.1774  0.0494
20990W        W36121   8.149   7.056  13.854  0.0210  0.0017  0.3902
20991W        W36122   3.288   3.628   1.345 -0.0219 -0.2851 -0.0942
20992W        W36123   5.574  16.909  13.793  0.0855  0.3229 -0.4134
20993W        W36124   6.398  10.460  10.168  0.1365 -0.2609  0.0205
20994W        W36125  16.365  13.225  12.545 -0.0341  0.2560  0.3082
20995W        W36126  12.010  15.982   5.706  0.0903 -0.2474 -0.0813
20996W        W36127  11.189  15.281  15.393 -0.4580 -0.0346  0.1970
20997W        W36128  11.581   0.310  16.187  0.3241  0.0083  0.0612
20998W        W36129  13.968   6.092   3.072 -0.1049 -0.2103  0.1003
20999W        W36130  12.671  16.531  12.543  0.3232 -0.0208  0.1828
21000W        W36131  17.697  10.939  14.075  0.0602 -0.0536 -0.0591
21001W        W36132  15.410  15.732  12.139  0.0714 -0.5155 -0.1882
21002W        W36133   2.039   8.401   1.915 -0.1890  0.0941 -0.3827
21003W        W36134   7.444   4.682   2.704 -0.0063  0.1642 -0.3191
21004W        W36135  10.498  14.291   6.209 -0.4556  0.0610 -0.2955
21005W        W36136  14.606  14.757   4.304  0.1899  0.1025  0.3763
21006W        W36137  14.890   4.479  13.197 -0.2167 -0.4241 -0.1277
21007W        W36138  14.783  15.845   3.173 -0.3052 -0.0284 -0.4076
21008W        W36139  17.829  14.713  15.480  0.1709 -0.3567  0.1959
21009W        W36140  15.597   3.362   6.134  0.0095  0.1234  0.0341
21010W        W36141  13.303  15.324   3.616  0.0426  0.0416 -0.1747
21011W        W36142  12.071  11.474   4.392 -0.2521  0.2439  0.1071
21012W        W36143   0.080   3.182  12.696 -0.4543 -0.0296  0.0522
21013W        W36144   5.829   8.154  14.725  0.1344 -0.3758  0.1181
21014W        W36145   9.576   1.150   1.814  0.0546  0.1408  0.1227
21015W        W36146   0.519  13.342   2.094 -0.3238  0.2198  0.1239
21016W        W36147   6.671   0.403  13.382  0.4729  0.1675 -0.0928
21017W        W36148  14.427   8.227   0.575  0.1430  0.2931 -0.0641
21018W        W36149   4.012   2.456  11.334 -0.0046  0.0159 -0.0134
21019W        W36150   2.193   7.780   4.526  0.1148 -0.0481  0.2563
21020W        W36151   1.253   0.838  14.818 -0.0757  0.0367 -0.0765
21021W        W36152   5.288  15.953  13.658 -0.2851  0.1871  0.0803
21022W        W36153  12.263   5.868  15.325  0.1899  0.0231  0.0384
21023W        W36154  14.020   4.564   3.153 -0.2552  0.0754  0.1062
21024W        W36155   8.035  11.189  12.213 -0.0019 -0.4177  0.2080
21025W        W36156   1.922   3.351   0.549  0.5629 -0.1018  0.0928
21026W        W36157   4.158   3.042   2.811  0.3165  0.0501  0.0057
21027W        W36158   6.989   4.810  15.636  0.0446  0.0792  0.0338
21028W        W36159   1.696   7.502   2.216  0.1246 -0.2433  0.0145
21029W        W36160   9.956   2.897   1.875  0.3772 -0.2503 -0.1717
21030W        W36161   4.588   1.743   3.408  0.1082 -0.0413  0.1082
21031W        W36162   5.843   9.997  14.761  0.2170  0.0399 -0.2029
21032W        W36163   1.636   4.065  13.565  0.0511 -0.0194 -0.4184
21033W        W36164   3.785  18.074   0.845  0.3724 -0.1409  0.3509
21034W        W36165   1.183  13.916   3.969 -0.2002  0.2186 -0.0454
21035W        W36166   9.523   7.455  12.005 -0.0443 -0.0524 -0.2652
21036W        W36167  13.890  12.041  11.559 -0.1733  0.3045 -0.1908
21037W        W36168  13.678   7.256   0.136 -0.1031  0.0102  0.0056
21038W        W36169   6.615   6.837   0.111 -0.0462  0.0129  0.4303
21039W        W36170   0.439  10.541  13.397  0.0574  0.0685 -0.0058
21040W        W36171  13.846   0.312  10.808  0.0722  0.0253  0.0796
21041W        W36172  10.304  16.597  14.282 -0.1881  0.3325 -0.2150
21042W        W36173   9.834   5.091  10.694  0.1838 -0.0184 -0.2606
21043W        W36174  17.559   2.644   3.606 -0.0077  0.0259  0.2304
21044W        W36175   0.632  11.175  12.621 -0.3612  0.4212 -0.0733
21045W        W36176   8.827   8.042   0.668 -0.0896  0.0288 -0.0625
21046W        W36177  14.778  13.276  13.233 -0.0014 -0.0444  0.2677
21047W        W36178   9.796  14.161  15.036  0.3118  0.4024 -0.0922
21048W        W36179   8.854   7.118   3.375  0.0274  0.0957  0.0955
21049W        W36180   5.523  16.503   1.335  0.1393  0.0865 -0.1757
21050W        W36181  14.077  11.513   5.709 -0.1115  0.0880 -0.0120
21051W        W36182   9.588  11.310   2.773 -0.0020  0.2301 -0.1564
21052W        W36183   1.352   2.522  10.931  0.1975  0.0376 -0.4449
21053W        W36184  16.196  14.632   2.241  0.3205 -0.1708 -0.1781
21054W        W36185  10.683   8.003  11.761 -0.2867  0.2683  0.2554
21055W        W36186   0.154   1.378  12.932  0.1066 -0.1191  0.0841
21056W        W36187  17.625  13.871  13.312 -0.4240  0.0172  0.1300
21057W        W36188  14.713  12.372  11.736  0.2868 -0.1326  0.0994
21058W        W36189  14.837   2.143   1.749 -0.0166 -0.1091 -0.1242
21059W        W36190   1.407  14.287  16.034  0.1219  0.0911 -0.2887
21060W        W36191  15.145  14.875   2.301  0.3037 -0.0724  0.2543
21061W        W36192  12.773  10.520  11.548 -0.0470  0.0767  0.0220
21062W        W36193  11.939   5.456   3.558  0.1267  0.1330  0.2558
21063W        W36194   2.912   2.558   1.723  0.0828 -0.0714  0.2613
21064W        W36195  12.416   0.031   2.984  0.1497  0.0325  0.2567
21065W        W36196   5.462  11.513  14.910  0.4067 -0.0263  0.0946
21066W        W36197  17.816  11.366   1.466 -0.3394  0.1370  0.0001
21067W        W36198  14.904   5.801   1.576  0.2155 -0.2472  0.3141
21068W        W36199  11.171  17.697  14.452 -0.3027 -0.2842 -0.0510
21069W        W36200   4.593   5.634   0.957  0.1736  0.0947  0.1133
21070W        W36201   6.065  11.304   0.852  0.0382 -0.3106  0.5601
21071W        W36202  11.650   2.095  13.363  0.0987 -0.0068 -0.1839
21072W        W36203  15.491  16.946  15.643 -0.0065 -0.2359 -0.1388
21073W        W36204   0.114  17.745   4.047 -0.2475 -0.3347 -0.0881
21074W        W36205   0.716   5.270  13.270  0.2321  0.2645 -0.1558
21075W        W36206   2.375   2.797   2.105  0.3345  0.2525  0.4911
21076W        W36207   2.531  17.641  11.413 -0.0898 -0.2868 -0.1021
21077W        W36208  11.481   9.093  15.969 -0.1304 -0.4530  0.1132
21078W        W36209  14.888  14.307  11.738  0.0639 -0.2067  0.1573
21079W        W36210   0.190  12.870  13.154 -0.1426  0.0406 -0.2658
21080W        W36211   6.641  12.480   2.664 -0.0307  0.2773 -0.0222
21081W        W36212  11.635  13.166  11.701  0.3680  0.0592 -0.0035
21082W        W36213   6.026  11.362   4.169  0.3485  0.1264 -0.0088
21083W        W36214  12.519   9.344  11.627 -0.0682 -0.1402  0.2734
21084W        W36215   1.646  13.311  16.013  0.2510  0.1192  0.1348
21085W        W36216   7.683   9.750  14.152  0.2074 -0.0323 -0.2186
21086W        W36217   5.363  17.688   3.681  0.2797 -0.1931 -0.0427
21087W        W36218   4.158   9.770   2.469 -0.0249  0.0973  0.1644
21088W        W36219  15.035   6.342   1.983 -0.0634 -0.1643 -0.0959
21089W        W36220   2.593  12.268  14.424 -0.0743 -0.1480 -0.1133
21090W        W36221  16.606   2.780  11.499 -0.1130 -0.0316 -0.2419
21091W        W36222  17.169   7.693  14.556  0.1264  0.0071  0.0872
21092W        W36223  16.126  13.881   1.723 -0.1171 -0.1222 -0.0793
21093W        W36224  10.291   1.808   1.462 -0.1174 -0.1661 -0.2124
21094W        W36225   5.399   9.748   1.578 -0.1250 -0.1085  0.0577
21095W        W36226  14.612   8.028   1.873 -0.2087 -0.4045  0.1099
21096W        W36227  14.107   8.932  14.507  0.3865 -0.2163 -0.1105
21097W        W36228   3.199   8.468   3.480 -0.1087 -0.0940  0.1449
21098W        W36229   7.651  13.732   4.842 -0.1125  0.3728  0.4192
21099W        W36230   6.527  18.021   0.337 -0.0949 -0.2650 -0.0550
21100W        W36231  10.171   4.175  16.105  0.2277 -0.1732  0.0402
21101W        W36232  10.185   3.382  11.615  0.3013 -0.2143 -0.0452
21102W        W36233   5.690  13.037  12.790  0.0697  0.0502 -0.0020
21103W        W36234  11.858   8.850  11.704 -0.0999  0.2227  0.1704
21104W        W36235  16.721  16.690   3.074 -0.3350 -0.0980 -0.0350
21105W        W36236   0.894  12.291  16.101 -0.0967 -0.1127 -0.1413
21106W        W36237   6.257  10.913  11.371  0.1037  0.2417 -0.0084
21107W        W36238   0.291   7.202  15.403 -0.0097  0.4123  0.0942
21108W        W36239   9.398   8.752  13.783 -0.1017 -0.0470  0.0016
21109W        W36240  12.812   8.868  16.238  0.0830 -0.1595 -0.1784
21110W        W36241  17.296   8.968  16.349 -0.0867 -0.0843 -0.0247
21111W        W36242   9.551  10.100  12.725  0.1174 -0.0969  0.0638
21112W        W36243  11.733  15.773  11.269  0.1628 -0.0648 -0.0724
21113W        W36244  12.549   2.381  15.563  0.1021  0.1466 -0.2445
21114W        W36245   6.926   9.689   2.971 -0.1103 -0.0135  0.0954
21115W        W36246   8.062   6.437  15.509  0.5058  0.0441  0.1564
21116W        W36247  17.909   9.272   5.039 -0.3052  0.0692  0.2571
21117W        W36248   1.438  16.150  13.245 -0.1027 -0.1980 -0.0391
21118W        W36249  13.957  10.501  14.648 -0.1686 -0.0650  0.5264
21119W        W36250   9.248  14.824  13.843 -0.1994  0.1500  0.0607
21120W        W36251  15.382  14.228  12.678  0.0751  0.1161 -0.0257
21121W        W36252   7.165  17.837   3.220  0.2208 -0.2121  0.1971
21122W        W36253   8.330  14.222   0.020  0.0236  0.3538  0.0845
21123W        W36254  14.518  13.195  11.237  0.1654 -0.0926 -0.1316
21124W        W36255   7.850  17.021   0.234  0.1407 -0.1962  0.1452
21125W        W36256   4.859   5.679  11.065 -0.2666 -0.0038  0.1249
21126W        W36257   8.034   2.017   0.110  0.1207 -0.1156  0.0512
21127W        W36258   7.734   3.475  14.792  0.0678  0.2367 -0.2911
21128W        W36259  14.941   1.852   0.465 -0.1326  0.2124 -0.1111
21129W        W36260  15.678  13.467   4.854 -0.1720  0.1301 -0.0672
21130W        W36261  10.923   5.420  14.802  0.4571  0.2314  0.0823
21131W        W36262   9.369  16.389   2.789  0.0465 -0.1095  0.1581
21132W        W36263  17.291  16.382   0.353 -0.1281 -0.0089 -0.1119
21133W        W36264   2.833   7.191   4.383 -0.2306  0.1573 -0.0904
21134W        W36265  10.641  12.538  13.366 -0.0153  0.0259  0.2404
21135W        W36266  17.789   3.297  12.424  0.1231 -0.0151  0.3534
21136W        W36267   9.053  17.706   2.322 -0.1632 -0.2637 -0.2296
21137W        W36268   4.554   5.447  15.047 -0.1169 -0.0484  0.1137
21138W        W36269   9.627  14.434  13.965  0.0938 -0.1669  0.3405
21139W        W36270   5.030   7.150   5.961 -0.0918  0.0695  0.0459
21140W        W36271   1.232   7.053  11.753  0.3777  0.1577  0.2541
21141W        W36272   1.692   7.419  15.834  0.0992 -0.0659 -0.1508
21142W        W36273   5.135   9.611  14.299 -0.1345 -0.3033  0.2160
21143W        W36274   4.766   2.404   5.444  0.1261  0.1256 -0.0826
21144W        W36275  16.235   0.185  11.851  0.1518  0.0567  0.0023
21145W        W36276  15.474   2.270  13.011  0.0305 -0.0718 -0.0941
21146W        W36277   8.562  13.666  12.168  0.4817  0.1678  0.0193
21147W        W36278   5.761   4.465   4.690 -0.0863  0.3128 -0.0117
21148W        W36279   0.961   0.379   4.111 -0.0071 -0.3599 -0.2877
21149W        W36280   4.075   5.073  15.463  0.1703  0.2890 -0.1008
21150W        W36281  10.938   7.356   4.156  0.4315  0.3942  0.0079
21151W        W36282  16.343  17.546  14.567  0.0610 -0.3678 -0.2615
21152W        W36283   4.419   6.076   4.519  0.1092 -0.0011  0.0464
21153W        W36284  10.814  13.570   0.299  0.2108  0.0962  0.1011
21154W        W36285   3.053   0.680   3.723  0.0991 -0.1694  0.1735
21155W        W36286   4.673   9.960  13.769  0.1619  0.1001 -0.2511
21156W        W36287  10.346  13.348   4.268  0.2725 -0.3414  0.1043
21157W        W36288   8.999  13.987   4.381 -0.1581  0.2679 -0.0836
21158W        W36289  16.763   9.199   2.272  0.1521  0.1437 -0.1559
21159W        W36290  11.363   0.597   1.304 -0.0613 -0.1903  0.1852
21160W        W36291  15.923   9.138   5.267  0.1604 -0.1814 -0.1937
21161W        W36292   0.265   1.016   4.888  0.2933  0.0709  0.0069
21162W        W36293  16.226   1.772   2.651  0.0881  0.0032 -0.0569
21163W        W36294   0.832  16.023   1.988 -0.1883 -0.2419 -0.0606
21164W        W36295   4.498  15.475   2.673  0.0053  0.0650 -0.1467
21165W        W36296   1.068  16.982  15.546 -0.0939  0.0552  0.2826
21166W        W36297  17.838  13.302  15.566  0.0891 -0.0090  0.0051
21167W        W36298   3.375  10.483  12.507 -0.0804 -0.2580  0.3559
21168W        W36299  13.412   9.920  11.133 -0.1984  0.0557 -0.0033
21169W        W36300   8.760  12.778  12.494  0.0061  0.0264  0.0533
21170W        W36301  15.700   2.587  15.246 -0.2616 -0.1255 -0.1348
21171W        W36302  14.191  13.607  16.396 -0.0112 -0.0928  0.0926
21172W        W36303   1.128   0.163   5.539  0.2149 -0.0847  0.0949
21173W        W36304  12.392  15.373  13.662  0.2754 -0.2021  0.2359
21174W        W36305   3.792   4.375   2.500  0.1225  0.0705  0.1064
21175W        W36306  16.139  13.993  13.694  0.4753  0.3248 -0.1811
21176W        W36307   7.494   9.310   1.924  0.1670  0.2208  0.2017
21177W        W36308   6.872  15.786  10.871 -0.1298 -0.6158 -0.2654
21178W        W36309   1.218  16.062  12.443  0.0044  0.0643 -0.2900
21179W        W36310  16.647   0.489  14.430 -0.3180 -0.0040 -0.1653
21180W        W36311   1.313  10.288   3.636  0.1735 -0.0555  0.0222
21181W        W36312   4.191   2.113  14.494 -0.1248 -0.0127  0.2901
21182W        W36313   3.579   2.102  11.609 -0.0718 -0.0697  0.2773
21183W        W36314  15.578  16.247   4.019  0.0500  0.0469 -0.0231
21184W        W36315   2.420   1.539   4.629 -0.0711 -0.1704  0.1747
21185W        W36316   3.868   1.669   3.649 -0.0047  0.2306  0.1025
21186W        W36317  17.865   6.058   3.834  0.1097 -0.2024 -0.2494
21187W        W36318  10.641  10.352   1.825  0.0625  0.2000  0.1007
21188W        W36319   3.959   4.609  11.758 -0.2213 -0.2656 -0.0540
21189W        W36320  11.624  17.426  15.307  0.0050 -0.1159  0.1124
21190W        W36321   8.078  11.357   3.637 -0.3996 -0.1485  0.1154
21191W        W36322   4.045   4.126  11.720 -0.0232 -0.0882 -0.1069
21192W        W36323  10.523   1.859  13.378 -0.4122 -0.2796  0.2758
21193W        W36324  14.703  10.641  12.625  0.1048 -0.1287  0.1087
21194W        W36325  16.962  13.460  14.029 -0.0907 -0.0109  0.1369
21195W        W36326   2.010  12.419  11.578  0.0362  0.1142 -0.0567
21196W        W36327   0.943  15.649   4.359  0.0723 -0.0116  0.0965
21197W        W36328   2.542   0.811   3.546 -0.0328  0.1401 -0.2093
21198W        W36329  12.989   9.480  12.403  0.0615 -0.0466 -0.0796
21199W        W36330  15.363  16.777  15.087 -0.1205 -0.1105  0.4019
21200W        W36331   2.639  17.429   3.919  0.2150  0.1864  0.0648
21201W        W36332  16.761  13.920   4.170 -0.2137  0.3816 -0.2094
21202W        W36333  11.220  16.800  13.856 -0.1174 -0.0143  0.1423
21203W        W36334  10.398  17.124  14.267  0.2680 -0.0060 -0.0271
21204W        W36335   5.009  15.925  13.179  0.0145  0.0983  0.0799
21205W        W36336   1.694   1.265  16.307 -0.2476  0.2545  0.1105
21206W        W36337   5.892   0.986   4.315  0.1234  0.0893  0.0296
21207W        W36338   8.190  13.480  12.741  0.0583 -0.1455 -0.2361
21208W        W36339  12.133  11.412  13.321  0.0700 -0.0911  0.0408
21209W        W36340  10.419  15.167   4.547  0.0033  0.1594  0.0050
21210W        W36341   5.011   7.220   4.243  0.0969  0.0086 -0.3534
21211W        W36342  12.847  16.182  15.225  0.1458  0.1721 -0.0492
21212W        W36343   1.894  16.986  11.537 -0.3200 -0.2027  0.0254
21213W        W36344  18.070   9.368  14.805 -0.3747  0.0361  0.0868
21214W        W36345  17.253  11.544   2.774  0.1266  0.0836 -0.1283
21215W        W36346  11.664  15.806   3.030  0.1667  0.1145  0.3582
21216W        W36347   0.467   7.672  12.300 -0.1122 -0.1763  0.2314
21217W        W36348   1.380  16.265   2.609  0.1967 -0.2359  0.0109
21218W        W36349  17.216  11.067  14.341 -0.2968 -0.3261 -0.1430
21219W        W36350   2.942   2.670   4.629  0.0481 -0.2733 -0.1913
21220W        W36351  11.655  10.722   4.655  0.2593 -0.2211  0.3217
21221W        W36352   7.236   8.129   2.113 -0.4684 -0.0986  0.0619
21222W        W36353   1.501   1.275   3.917 -0.2907 -0.0444 -0.2125
21223W        W36354   9.104  14.801  15.795 -0.0611 -0.1658  0.2424
21224W        W36355   8.591  11.947  15.526 -0.1629 -0.0120 -0.2160
21225W        W36356   1.999  14.350   2.754 -0.2010  0.2471 -0.1136
21226W        W36357   1.303   9.322   5.177 -0.0011  0.1227  0.4639
21227W        W36358  16.705   2.274   4.226 -0.2543 -0.1900  0.1963
21228W        W36359  16.848  17.444   4.475  0.1772  0.0039  0.0275
21229W        W36360   9.252   5.611  14.175 -0.0349 -0.3153 -0.0350
21230W        W36361  11.433   7.475  13.582 -0.0017 -0.1308  0.0752
21231W        W36362   9.052  17.059  13.742  0.1753 -0.0218 -0.2708
21232W        W36363   8.331   0.985  13.406  0.0089 -0.0758  0.2124
21233W        W36364  14.005   3.943   1.392 -0.1632 -0.1486  0.1393
21234W        W36365   3.005   0.920  11.625  0.0707  0.0917  0.0205
21235W        W36366  14.088   7.451   0.910  0.0610  0.2609 -0.2442
21236W        W36367  11.741   9.972  14.421 -0.1167 -0.0099 -0.1052
21237W        W36368   3.017  12.751  11.529 -0.2203  0.0558  0.0222
21238W        W36369   6.356   5.780  15.806 -0.3222 -0.3090 -0.0542
21239W        W36370   7.048   8.795   0.245  0.0460 -0.1911  0.4307
21240W        W36371  16.324   2.747  14.172  0.2134 -0.0537  0.1580
21241W        W36372  15.962   9.587   4.010 -0.2993 -0.2208 -0.3249
21242W        W36373   6.714   7.251   5.301  0.4508 -0.2270  0.0007
21243W        W36374   6.107   9.651  14.304  0.3726  0.1895  0.1009
21244W        W36375   0.795  17.730   4.502 -0.1088 -0.2466 -0.1663
21245W        W36376  12.410  11.574  11.675 -0.1007 -0.0180 -0.3924
21246W        W36377   7.816   7.919   2.747  0.0955 -0.1164  0.4436
21247W        W36378   0.637   6.305   3.604 -0.0470 -0.2295 -0.0174
21248W        W36379   6.205   6.597  14.179  0.0912  0.2225  0.0309
21249W        W36380  17.127   8.325  12.768  0.0997  0.2507 -0.1675
21250W        W36381  10.593  11.299  12.789  0.2095 -0.0719  0.1265
21251W        W36382   5.873   7.529   3.917 -0.1831 -0.0624  0.0451
21252W        W36383  11.482   2.362   1.643 -0.1936 -0.0115  0.3752
21253W        W36384   2.066   7.434  13.558 -0.2913 -0.2325 -0.2077
21254W        W36385  16.097  15.926  12.739  0.0610  0.0672  0.0148
21255W        W36386   7.606   2.062   1.835  0.0141  0.0867 -0.5169
21256W        W36387   4.584   6.258  13.034 -0.0911 -0.0647  0.2912
21257W        W36388  13.988   2.222  11.644  0.0619 -0.2554  0.0339
21258W        W36389   3.739  17.721  14.600  0.0189 -0.0169 -0.1214
21259W        W36390   9.427  13.460  14.730  0.0219  0.0393 -0.0597
21260W        W36391   7.719  12.621   0.150 -0.1063 -0.1526  0.1409
21261W        W36392   3.965   8.096   3.151 -0.1869  0.3107 -0.0095
21262W        W36393  10.578   7.857  15.959  0.2995 -0.0953 -0.0791
21263W        W36394  15.561   6.852   5.871 -0.1708  0.0975 -0.1952
21264W        W36395   4.226  10.485   3.716 -0.1109  0.4198  0.0163
21265W        W36396  11.811  15.732   1.877 -0.0453 -0.0133 -0.2410
21266W        W36397  17.717  16.360  11.311  0.1946  0.1262  0.1795
21267W        W36398   1.329   9.609   1.419  0.1434 -0.1323  0.2141
21268W        W36399   7.210   8.032  13.843 -0.2103 -0.1809  0.2737
21269W        W36400   0.259   0.051  15.148 -0.1422  0.0786 -0.2336
21270W        W36401   4.100  10.874   4.321  0.0797  0.0539 -0.3150
21271W        W36402  11.547  13.191  10.970 -0.0426  0.0482 -0.1669
21272W        W36403   6.133  10.988  13.879 -0.1255  0.2137 -0.4768
21273W        W36404   2.321  14.632   4.616  0.3040  0.1665  0.0878
21274W        W36405   9.293   3.118   3.979  0.1034 -0.0579  0.0650
21275W        W36406  14.892   4.105   1.904  0.1428 -0.0717 -0.2557
21276W        W36407   5.878   9.539   4.248  0.1591 -0.0053 -0.1112
21277W        W36408   8.535   6.359  10.095 -0.0580  0.0059  0.0193
21278W        W36409  13.694  10.604   5.345 -0.1061  0.0966  0.0196
21279W        W36410  16.021  15.144   2.521 -0.0345  0.2674 -0.0726
21280W        W36411   6.014   4.623  10.404  0.4126 -0.1167 -0.0543
21281W        W36412   0.286  17.324   2.179  0.1287  0.1204 -0.1432
21282W        W36413  16.942  17.763   5.446  0.2229  0.1212 -0.1569
21283W        W36414   3.487   8.642   2.522  0.1086  0.0974  0.0501
21284W        W36415  11.446   7.517   3.885  0.0318  0.0274  0.4206
21285W        W36416   5.305  10.152   0.033  0.2373  0.2021  0.1073
21286W        W36417   9.110   6.249  15.494 -0.0544 -0.0167  0.1753
21287W        W36418   5.288  12.610  16.290 -0.0051 -0.1361  0.1760
21288W        W36419  13.519  14.749   0.890  0.1962 -0.0073  0.0947
21289W        W36420   9.687   0.143  14.504 -0.0684  0.0767 -0.1499
21290W        W36421   1.589  10.698  13.900 -0.1121 -0.2295  0.1905
21291W        W36422  17.231  10.634  11.055 -0.2147  0.1084  0.3162
21292W        W36423  14.036  17.971   1.854  0.2781  0.1589  0.0127
21293W        W36424  17.035  14.656   4.505  0.1439 -0.1896 -0.1882
21294W        W36425   9.773  10.151  14.521 -0.1618  0.0980  0.3282
21295W        W36426   7.937   1.724  12.105 -0.2318  0.2979 -0.2444
21296W        W36427   0.135   7.608   3.104  0.1687 -0.2122  0.1176
21297W        W36428  13.963   2.539  15.470 -0.1166  0.0803 -0.0317
21298W        W36429  13.822   0.834  16.089 -0.1254  0.0794  0.0267
21299W        W36430  17.281  13.083   3.464 -0.0972  0.2549  0.2180
21300W        W36431  10.217  13.664   0.986  0.0096  0.2101 -0.1342
21301W        W36432   2.299  15.539  11.408 -0.1324 -0.0048  0.2267
21302W        W36433  10.481   0.648   0.777 -0.2853 -0.1886 -0.0421
21303W        W36434  12.419  14.231  11.891 -0.2621  0.0027 -0.1159
21304W        W36435   4.538  17.609  12.527  0.0646 -0.2024  0.2899
21305W        W36436   9.775  16.424   3.185  0.0259 -0.0169 -0.1595
21306W        W36437   5.796  11.876   2.750  0.2237  0.1512 -0.3528
21307W        W36438   0.251  10.725  16.044 -0.2242 -0.0733  0.3601
21308W        W36439  13.118   7.507   5.316 -0.0917 -0.2054  0.0705
21309W        W36440  16.745   8.475   2.742  0.1493  0.0343  0.0661
21310W        W36441   1.851  11.486  15.498 -0.1248  0.1613  0.2079
21311W        W36442   6.536  12.973   0.188  0.1807 -0.1137 -0.0686
21312W        W36443  11.924   9.496   1.498 -0.0120 -0.4744 -0.2385
21313W        W36444  11.888  17.012   2.629  0.0813 -0.3174 -0.0703
21314W        W36445  12.610   4.758   0.506  0.0243 -0.2457 -0.1028
21315W        W36446   3.600   1.271  16.294 -0.0139  0.0657 -0.1510
21316W        W36447  14.014   4.436   3.820  0.2379 -0.2171 -0.0783
21317W        W36448  17.381  15.853   4.335  0.1912 -0.0057  0.1656
21318W        W36449   5.683  15.010  14.579 -0.1666 -0.1354 -0.0564
21319W        W36450  11.537   6.954  12.194  0.3022  0.0919  0.2662
21320W        W36451  10.434   7.958  16.395 -0.1411  0.1339  0.1361
21321W        W36452  15.345   4.229  11.331  0.1293  0.1143 -0.0815
21322W        W36453  16.190  12.845   5.736  0.2967 -0.2722 -0.2337
21323W        W36454  15.563   6.748   2.574 -0.1676 -0.2486  0.1796
21324W        W36455   3.307   2.638   2.631 -0.0820  0.4110  0.1955
21325W        W36456  12.367   8.657  12.480 -0.0290  0.2603 -0.0665
21326W        W36457   1.841  16.912  13.731  0.3910 -0.2427 -0.2105
21327W        W36458   6.904  10.358  11.118  0.3012  0.1600  0.1206
21328W        W36459   8.954   3.379   3.487  0.0299 -0.0182 -0.3037
21329W        W36460   3.281  15.429   3.779 -0.0385 -0.0172 -0.1984
21330W        W36461   2.678  16.657  16.347 -0.2541 -0.0615 -0.0558
21331W        W36462  12.408   7.679  10.803 -0.1185  0.2996  0.1200
21332W        W36463  10.729  15.898  13.421 -0.1968 -0.0382 -0.2571
21333W        W36464   3.977  13.984  12.615 -0.0305  0.0266 -0.3083
21334W        W36465   5.746   6.327   2.362 -0.0115  0.0339  0.0142
21335W        W36466   3.943  13.074   5.479 -0.0601 -0.0374  0.0812
21336W        W36467  16.825   2.790   1.288 -0.5563  0.1000 -0.0389
21337W        W36468   3.021   8.960   5.091 -0.0230  0.1275 -0.0359
21338W        W36469  14.630   1.906  14.156  0.0050 -0.0507 -0.0501
21339W        W36470   1.749  12.065  15.762 -0.3028 -0.2824  0.0602
21340W        W36471   1.932   4.556  11.389  0.2010  0.2129 -0.1559
21341W        W36472   2.845  17.396  15.150 -0.1008  0.1730  0.1762
21342W        W36473   3.911   7.474   2.810 -0.0111  0.0399 -0.0392
21343W        W36474  16.293   9.958   3.265  0.3100 -0.0860 -0.1301
21344W        W36475   7.848   4.918   3.707  0.0848 -0.2584 -0.0354
21345W        W36476   6.257  15.816   5.648  0.2449 -0.1439 -0.2287
21346W        W36477  17.437  13.179  11.816 -0.4402  0.0534 -0.1435
21347W        W36478  12.352   2.795   2.016  0.1034  0.2451 -0.1631
21348W        W36479   4.394   6.314  16.377 -0.1319 -0.0950 -0.1446
21349W        W36480   1.170  10.070  11.402  0.0613 -0.0069  0.1324
21350W        W36481   6.004  14.324  15.518 -0.2061  0.1257  0.0977
21351W        W36482  14.561   7.722   5.243  0.0720 -0.0015 -0.3573
21352W        W36483  12.998  15.161  13.064 -0.2323  0.3267  0.0490
21353W        W36484  15.249  16.051  11.491  0.2386 -0.2011  0.2136
21354W        W36485  11.292   5.096  14.867 -0.0832 -0.0380 -0.0071
21355W        W36486   7.862  17.108  15.026 -0.0866  0.2849  0.3359
21356W        W36487   0.800   8.237  15.146  0.1425 -0.2270  0.0398
21357W        W36488   2.743  17.995   0.135  0.0242 -0.3279  0.0540
21358W        W36489  13.388  15.151  11.115 -0.0518 -0.0423 -0.0187
21359W        W36490  13.725  10.958   4.987 -0.0107 -0.1292  0.0000
21360W        W36491  16.316  17.593   0.284  0.1935 -0.0154 -0.2718
21361W        W36492  10.495   1.903  11.579  0.1104  0.1232  0.0009
21362W        W36493   7.549  12.178   4.557 -0.0686  0.0290 -0.2325
21363W        W36494   8.864  14.035   1.657 -0.1457 -0.1109 -0.0062
21364W        W36495  10.644   0.889  14.577 -0.0651  0.2315  0.2110
21365W        W36496  16.529   1.324  11.946 -0.1389  0.0035  0.0482
21366W        W36497   3.475   9.117   4.087  0.2026 -0.0779  0.1581
21367W        W36498  12.629   7.325   3.057 -0.0337 -0.1549 -0.0790
21368W        W36499  12.348   6.342   2.149  0.0303  0.1632 -0.0624
21369W        W36500   6.940  17.128  10.455 -0.0226 -0.1570  0.1642
21370W        W36501   0.755   5.731   0.251 -0.1433  0.2825 -0.2222
21371W        W36502   4.438   5.195   2.191 -0.3307  0.2660  0.2171
21372W        W36503   3.963   0.074  14.801  0.1106 -0.1882  0.0953
21373W        W36504  17.070   7.625   2.481  0.1432  0.0875  0.3245
21374W        W36505  12.622  11.467  15.940  0.1022  0.0165  0.1478
21375W        W36506   2.578   3.309  14.068  0.0055 -0.3316  0.0570
21376W        W36507  14.744  15.357   0.328  0.2843  0.1109  0.0352
21377W        W36508   3.841   2.013  12.845  0.0603  0.0501  0.0595
21378W        W36509   1.451   8.084  15.175 -0.3391 -0.0670 -0.2446
21379W        W36510   6.803  17.509  15.080 -0.1174 -0.2147 -0.0219
21380W        W36511   2.569  14.311  15.142 -0.0552  0.1801 -0.1459
21381W        W36512   0.867   4.052  11.651 -0.1903 -0.0320  0.4421
21382W        W36513   3.419   2.615  14.052  0.1201  0.1097 -0.1121
21383W        W36514   7.264   7.924  14.361  0.1305 -0.1665 -0.0531
21384W        W36515  17.868   2.613  14.112  0.0875  0.0615 -0.1087
21385W        W36516   8.347   8.767  11.977 -0.0355 -0.0165 -0.2588
21386W        W36517   6.339   7.104   2.961 -0.1240  0.0622 -0.0574
21387W        W36518   2.000   5.978  15.969 -0.1732 -0.0237 -0.1184
21388W        W36519  16.059  16.982   1.615 -0.1636  0.2216  0.1126
21389W        W36520  16.748  15.007  14.241  0.1560 -0.1655 -0.0488
21390W        W36521   7.701  13.272   2.377 -0.1628 -0.0498  0.2087
21391W        W36522  11.084   3.847   2.688  0.1397  0.0775 -0.0983
21392W        W36523   5.025  10.745   3.876  0.1179  0.0854 -0.2184
21393W        W36524   8.487  17.219   1.539  0.1172 -0.3245 -0.0424
21394W        W36525   7.934   8.444   2.753 -0.0392 -0.1085 -0.0150
21395W        W36526  11.974   8.481  14.419 -0.3417 -0.0726 -0.4250
21396W        W36527  15.581   4.312  16.021 -0.0088 -0.0709  0.0486
21397W        W36528   7.726  15.129   4.662 -0.0077 -0.0679 -0.1388
21398W        W36529   3.457  10.847   5.399 -0.0503  0.0347  0.2263
21399W        W36530   8.919  10.080   4.727  0.1709 -0.0993  0.3410
21400W        W36531   5.442   2.891   3.011  0.0334 -0.1674  0.3855
21401W        W36532   8.874   6.431  16.352  0.3617  0.0575  0.2289
21402W        W36533  13.514   1.370  16.019  0.1970 -0.1481 -0.2210
21403W        W36534  17.542  17.880  16.163 -0.0555  0.0594 -0.0412
21404W        W36535  16.821  11.473  12.708  0.1120 -0.0181  0.0898
21405W        W36536   1.592   2.735  11.968 -0.0971  0.0625 -0.0250
21406W        W36537  13.486  14.448  13.716 -0.2042 -0.1113  0.2551
21407W        W36538  16.360  18.080   1.016 -0.1621  0.1161  0.2077
21408W        W36539   7.157  15.355  10.788  0.2175  0.0720 -0.0645
21409W        W36540   1.123   3.500  12.386  0.1830  0.0476 -0.2053
21410W        W36541  14.501   6.609   3.030 -0.1445 -0.2795  0.1993
21411W        W36542   4.150  12.767  14.011  0.0106  0.0954  0.0858
21412W        W36543   5.598   7.281   4.283  0.2348  0.0446 -0.1819
21413W        W36544  17.564   0.509   0.192  0.1239  0.1457  0.1093
21414W        W36545  16.997   4.628   2.820  0.0139 -0.3072  0.0934
21415W        W36546   0.349  17.038   2.710  0.0683 -0.0022 -0.4600
21416W        W36547  12.469  13.211  16.125  0.1644  0.5678 -0.1962
21417W        W36548   1.353  12.943   0.572 -0.1053  0.1191  0.0870
21418W        W36549   5.622   3.265  14.666  0.0933 -0.2485 -0.1448
21419W        W36550   4.748  10.610  15.646 -0.1496 -0.0020 -0.2391
21420W        W36551   5.377  13.743   0.687 -0.0864  0.1073 -0.0681
21421W        W36552   7.285  17.783  13.367 -0.0659  0.1986  0.1483
21422W        W36553   1.899   7.426  14.817  0.0929 -0.0562 -0.1973
21423W        W36554  15.796  12.662   2.948  0.0383  0.0810 -0.0731
21424W        W36555  12.083  16.039   3.085 -0.2314 -0.0350 -0.0828
21425W        W36556  17.519  12.898  15.164  0.2731 -0.0485 -0.2860
21426W        W36557   7.127  14.353  14.092  0.0190  0.0095 -0.1114
21427W        W36558  16.857   8.923   4.175 -0.1557  0.0102 -0.2288
21428W        W36559  14.672  14.831  13.917  0.0099 -0.2567 -0.1033
21429W        W36560   7.011   3.041  10.711  0.2947 -0.1492  0.0446
21430W        W36561   6.426  17.022  13.950 -0.3625 -0.0483  0.0763
21431W        W36562   3.291   8.669  11.662 -0.3307  0.3321 -0.1765
21432W        W36563  12.011   0.117  12.988 -0.0402 -0.1781 -0.1289
21433W        W36564  16.272  16.994  11.328 -0.1679 -0.2302  0.0333
21434W        W36565   1.351  14.676   4.676  0.3548  0.2749 -0.0578
21435W        W36566   8.243  16.386  12.284  0.0375  0.0579 -0.0446
21436W        W36567   1.213  16.148   1.217  0.1997 -0.2027  0.0923
21437W        W36568  11.592   4.825  13.383 -0.0520  0.2095  0.2770
21438W        W36569   9.889   6.047   2.387 -0.0616 -0.1374  0.1222
21439W        W36570   5.567  15.812   3.381 -0.6152 -0.0493 -0.1205
21440W        W36571  17.527   6.653  10.906  0.1368  0.1956  0.0692
21441W        W36572   6.820   5.517  10.822 -0.0986  0.1918  0.3900
21442W        W36573  14.660  16.540   1.524 -0.0642 -0.0610 -0.0668
21443W        W36574  10.369  15.420  13.539  0.0541 -0.3432  0.1461
21444W        W36575   9.008   2.157   4.884 -0.3237  0.2917  0.1582
21445W        W36576   2.299   1.360  16.038 -0.2684 -0.0128  0.0695
21446W        W36577   9.027   0.212  13.942  0.0900  0.2655 -0.1255
21447W        W36578   4.312   5.673   5.043 -0.0230 -0.0313 -0.1239
21448W        W36579   9.665   6.848  11.859  0.3509  0.1544 -0.0135
21449W        W36580   0.503  16.874   4.191 -0.0724 -0.1981 -0.2538
21450W        W36581   7.990  13.970  13.760  0.3461  0.2732  0.0520
21451W        W36582   4.756  17.352  10.662  0.2234  0.1379  0.3561
21452W        W36583   7.793  15.904   6.313  0.1851  0.0646 -0.0832
21453W        W36584  15.575  10.630  11.998  0.0012 -0.2132 -0.0573
21454W        W36585  10.900  14.025  13.489  0.0723  0.1967 -0.1711
21455W        W36586   5.644  10.074  13.720 -0.1528 -0.3205  0.1786
21456W        W36587   3.994   2.252  13.382  0.1157  0.0668 -0.2964
21457W        W36588  11.086  17.200  11.762 -0.0258 -0.2967 -0.0017
21458W        W36589   0.481   5.771  11.102 -0.0309 -0.3091  0.1302
21459W        W36590   3.727   6.686   5.461  0.2194  0.0556 -0.2692
21460W        W36591  14.992   7.537   0.641  0.0110 -0.0979 -0.0968
21461W        W36592   8.774  11.058   0.740 -0.1858 -0.0137  0.1755
21462W        W36593   1.076  12.925   2.402 -0.0072  0.2629 -0.1766
21463W        W36594   1.527  16.471  12.379  0.0182 -0.0201 -0.0319
21464W        W36595  17.388  16.766  13.839 -0.2824 -0.0741  0.0261
21465W        W36596   9.909  16.337  14.082 -0.0540  0.2776  0.0126
21466W        W36597  14.218   1.481  15.484 -0.1815  0.1487  0.3601
21467W        W36598  10.780  14.604  13.349 -0.0664 -0.4461  0.0809
21468W        W36599   4.890  13.770   0.882  0.1977  0.0753 -0.4122
21469W        W36600  11.746  16.871  13.003 -0.2131 -0.2627 -0.0657
21470W        W36601  12.765  13.165  13.131  0.1196 -0.0589 -0.0602
21471W        W36602   9.152  18.051  12.097  0.1302  0.0713  0.2064
21472W        W36603   0.553   7.839   4.081 -0.0459 -0.0856 -0.1344
21473W        W36604   0.567  17.153   0.375 -0.0657 -0.2578  0.2731
21474W        W36605   2.386  16.996   5.452 -0.0492 -0.1385  0.0503
21475W        W36606  10.404  12.793   0.373 -0.0472 -0.0273 -0.0655
21476W        W36607  16.807   8.524   0.584  0.0495 -0.1134  0.1279
21477W        W36608   6.398  14.271   5.024  0.3441 -0.1226  0.3126
21478W        W36609   4.500   4.846   1.289  0.0153  0.1662 -0.4426
21479W        W36610  13.087  12.274  13.190 -0.0112 -0.0183 -0.0139
21480W        W36611  10.223   6.533  16.130 -0.0589 -0.3396  0.2532
21481W        W36612  17.727  10.599  11.165 -0.2257  0.0510  0.2235
21482W        W36613  14.369  13.474   0.718  0.2343  0.0560 -0.0501
21483W        W36614   0.804   8.503   2.352 -0.0782  0.0264  0.2270
21484W        W36615   7.820   2.779  12.937 -0.2363  0.3221  0.0554
21485W        W36616  10.384   2.649   5.780  0.1148  0.4268 -0.1851
21486W        W36617   0.036  14.276  16.369 -0.1371  0.0825 -0.0034
21487W        W36618  10.768   6.464   0.550 -0.0996 -0.4065 -0.2297
21488W        W36619  14.930  10.828   1.123 -0.1083 -0.0916  0.1471
21489W        W36620   2.877   3.052   1.444  0.0195 -0.1084  0.1100
21490W        W36621   8.804   8.102   3.695  0.1092 -0.1320 -0.2525
21491W        W36622   3.763  10.540  13.488  0.3122  0.0171 -0.2718
21492W        W36623  16.382   1.453  12.399  0.1577  0.4155  0.1921
21493W        W36624  13.090   3.060  14.597  0.0280 -0.2387  0.1369
21494W        W36625   9.248   1.008   2.959  0.1197  0.3469  0.0010
21495W        W36626   0.162  15.748   1.208  0.4805  0.1149  0.2023
21496W        W36627  10.280  14.216   1.865 -0.3940  0.1138 -0.1175
21497W        W36628   6.843   1.987  16.280 -0.0804  0.0777 -0.1543
21498W        W36629   2.417  16.946   2.147  0.0626 -0.0146  0.2051
21499W        W36630   2.999   4.962  12.263  0.3389  0.3498  0.2770
21500W        W36631  12.159   8.427   3.495 -0.1837 -0.1293  0.0549
21501W        W36632   2.891  16.075  11.947 -0.1888 -0.2692  0.1376
21502W        W36633   4.973  18.028   2.915  0.1832 -0.0611 -0.0421
21503W        W36634   0.700  13.493   1.093  0.1128 -0.1075  0.0318
21504W        W36635  18.104  16.757  12.570  0.3051  0.3212  0.2782
21505W        W36636   7.722   9.555  12.263  0.1733 -0.1994  0.0206
21506W        W36637  10.166   7.642  16.151 -0.1489  0.0843  0.1691
21507W        W36638   5.007  16.770   5.420 -0.2506 -0.2424  0.2666
21508W        W36639  12.560  13.364   2.949 -0.0226  0.0393 -0.1221
21509W        W36640  11.876  16.598   3.123 -0.1117 -0.2461  0.0702
21510W        W36641  13.335   6.324   3.111 -0.1428 -0.0567  0.3964
21511W        W36642  12.084   8.127   1.689  0.2889  0.1984 -0.3965
21512W        W36643  13.904   0.637   1.391 -0.2510  0.1087  0.2384
21513W        W36644  15.565  16.448  13.211 -0.1743  0.0807  0.1287
21514W        W36645   4.848   4.288  14.768  0.3263  0.0580  0.1240
21515W        W36646   2.065  11.151  14.567 -0.0283  0.2479 -0.2068
21516W        W36647   2.251  15.082  12.900 -0.0123 -0.2185  0.0578
21517W        W36648  14.654   0.819  12.195 -0.0042  0.2608 -0.2480
21518W        W36649   5.420  10.905  16.241 -0.0025 -0.2484  0.3724
21519W        W36650  14.403   9.494   4.145 -0.1308 -0.0370  0.4215
21520W        W36651   2.508  15.789  11.795 -0.0733 -0.1220  0.0335
21521W        W36652  14.226  15.042   2.041  0.3438  0.0042  0.1633
21522W        W36653   0.705   7.741   5.040 -0.4106 -0.1331  0.0066
21523W        W36654   8.691   3.237   3.893 -0.1455  0.0846  0.2536
21524W        W36655   7.824   7.354  12.530 -0.1094  0.1301 -0.3028
21525W        W36656  17.197  13.409   0.776  0.1207  0.0520  0.1629
21526W        W36657  10.014   7.324  11.823  0.0473 -0.2113  0.3128
21527W        W36658  12.706  16.404   0.728  0.0105 -0.1092  0.0736
21528W        W36659   3.871  12.449  15.363  0.0990  0.0108  0.5049
21529W        W36660   6.040  12.268  15.007  0.0934 -0.0796  0.0971
21530W        W36661  13.621  13.164   3.354  0.1661  0.1327 -0.1997
21531W        W36662  11.153  17.304  15.291 -0.1084  0.2991  0.2692
21532W        W36663   6.467  15.933   1.593  0.1849 -0.0157 -0.1491
21533W        W36664   2.180   4.669  13.059  0.2138 -0.0712  0.4026
21534W        W36665  14.376   4.643  12.329 -0.4264 -0.1352  0.0783
21535W        W36666  13.915  16.360  11.374 -0.1690  0.1792  0.0191
21536W        W36667   9.208  12.241  11.254 -0.2464 -0.0980 -0.0376
21537W        W36668   2.399   0.389   3.855  0.1758  0.1331 -0.0071
21538W        W36669   1.274  10.404  13.638  0.0547 -0.1559 -0.0197
21539W        W36670   5.277   7.707   4.232  0.0605 -0.3076  0.0366
21540W        W36671  15.331   2.475  14.265  0.1969 -0.4470 -0.2267
21541W        W36672  15.264  16.696  13.819 -0.1580  0.2042  0.0940
21542W        W36673   5.623   9.232   1.769  0.0718 -0.1324  0.0139
21543W        W36674  11.852  11.136   4.070 -0.2460  0.3479  0.0909
21544W        W36675  17.038  17.550   3.205  0.0232 -0.2616 -0.1613
21545W        W36676   4.354   9.732   1.556  0.1962 -0.2645 -0.2597
21546W        W36677   5.676  15.944   2.663 -0.0261  0.1440  0.3993
21547W        W36678  10.616  10.775   0.145  0.1027 -0.0848 -0.2377
21548W        W36679   4.584  11.590  11.069 -0.0478 -0.0627  0.0344
21549W        W36680   5.664  16.514  15.203 -0.0808  0.2921  0.0903
21550W        W36681   4.709   1.656  16.112 -0.0709 -0.0757 -0.1380
21551W        W36682   1.068  16.567  12.258  0.0252 -0.0330  0.3872
21552W        W36683   3.479  16.258  12.177 -0.0629 -0.0556  0.0169
21553W        W36684  12.739  13.280  14.580 -0.3099 -0.1935  0.0180
21554W        W36685   2.361   5.647  12.651  0.2143  0.2780 -0.1218
21555W        W36686  15.618   4.742  12.443  0.1475 -0.0648 -0.0516
21556W        W36687   1.591  10.895   5.254  0.0991  0.1735 -0.0286
21557W        W36688   5.365   5.566  11.883  0.0058  0.1833 -0.3006
21558W        W36689  15.550  12.191  16.260 -0.2336 -0.2208 -0.2176
21559W        W36690   9.900  17.836  14.324  0.0981  0.1107 -0.2881
21560W        W36691  12.292  16.878   2.859 -0.1164  0.0274  0.0355
21561W        W36692   7.648   3.630  15.826 -0.2077  0.0717  0.3144
21562W        W36693   2.468  15.796  13.548 -0.2957  0.2664  0.2613
21563W        W36694   5.217   7.509  13.111 -0.0878 -0.0403 -0.0534
21564W        W36695  17.853   1.490  11.525 -0.0715 -0.2258  0.4002
21565W        W36696   1.078  13.826  11.077  0.3351 -0.0574 -0.0814
21566W        W36697  11.476  11.483   1.032  0.1062 -0.1140  0.0525
21567W        W36698  17.103   6.433   3.381 -0.3334  0.1714  0.0765
21568W        W36699   6.495   4.934  15.068 -0.0205  0.2134  0.5153
21569W        W36700  11.694   3.791  10.813 -0.2293  0.1231 -0.2641
21570W        W36701   3.830   7.239  14.084 -0.5644  0.2451 -0.1296
21571W        W36702   8.640  13.382   2.221  0.2460 -0.3026 -0.0629
21572W        W36703  11.891   8.506   3.094  0.2259  0.2005  0.1719
21573W        W36704  10.697  13.710  15.827  0.1225  0.0395  0.1035
21574W        W36705   4.972  16.903  13.213  0.0124 -0.1127  0.3363
21575W        W36706  17.135   8.987   5.972 -0.1797 -0.0436  0.3668
21576W        W36707   7.942  10.906  15.566  0.2426 -0.0169 -0.2001
21577W        W36708   7.384   0.437   0.961  0.1019 -0.1528 -0.1440
21578W        W36709  12.963  14.951   3.354 -0.0248 -0.0391  0.2357
21579W        W36710  17.780  17.043  13.928  0.0210 -0.1908  0.4315
21580W        W36711   9.977  14.251   0.308  0.0109 -0.3895  0.0794
21581W        W36712   0.575  12.886  13.474  0.0007 -0.0479 -0.0483
21582W        W36713  11.652   9.835  15.380 -0.1911 -0.3114  0.3113
21583W        W36714   1.510   4.793  12.587 -0.1633  0.0730 -0.1903
21584W        W36715  14.928   7.277  11.133  0.1660  0.1598 -0.4073
21585W        W36716   2.513  10.068  14.203  0.2055  0.4371 -0.2148
21586W        W36717   1.111  12.241   5.401 -0.1491 -0.0990 -0.1908
21587W        W36718  10.311   5.741  16.190  0.0051 -0.0343 -0.2213
21588W        W36719  12.874   8.307   4.879 -0.2240 -0.0717  0.2911
21589W        W36720   4.127  13.220   0.329  0.1567  0.1785  0.1614
21590W        W36721   1.699  10.717  12.123  0.2468  0.4630  0.0014
21591W        W36722  11.553   2.208   4.683 -0.0700 -0.1528 -0.1808
21592W        W36723   0.182   2.126   6.202 -0.2923 -0.1531 -0.0081
21593W        W36724   6.592   2.992  13.298  0.2719 -0.0258  0.2386
21594W        W36725  12.150  14.531  13.003  0.0153  0.3083  0.2989
21595W        W36726   9.193  10.698   2.177 -0.0633 -0.0328 -0.0302
21596W        W36727   4.334  11.831   1.443  0.1853 -0.1697  0.0722
21597W        W36728   7.725  17.689  15.538  0.0048 -0.0168 -0.2325
21598W        W36729   4.356   3.536   2.669  0.4324  0.2659 -0.0145
21599W        W36730   7.283   0.691   1.411  0.0771  0.1741  0.1352
21600W        W36731   2.388   6.061   4.255 -0.2125 -0.0954 -0.0541
21601W        W36732  14.517  15.780   0.552 -0.2268 -0.3212  0.0417
21602W        W36733   9.653   9.678  14.786 -0.0837 -0.5751  0.2507
21603W        W36734  16.829  13.015   3.688  0.2549  0.0749  0.2162
21604W        W36735  11.621  12.657   1.008  0.2159 -0.0165  0.0966
21605W        W36736  11.844   4.504  13.804 -0.0521 -0.0798 -0.0050
21606W        W36737   0.615   1.313  16.043  0.2474 -0.2672 -0.0832
21607W        W36738  13.815   6.113  13.418  0.0264  0.0902 -0.4184
21608W        W36739   8.996  15.361  16.434 -0.1196 -0.0067  0.1244
21609W        W36740  10.481   6.914  16.394 -0.0253 -0.2027 -0.1541
21610W        W36741   0.667   8.344  14.695  0.0701  0.0647 -0.1026
21611W        W36742   0.435   2.322  14.570 -0.1044 -0.1432  0.0593
21612W        W36743   0.583   5.223  13.753  0.1914  0.1907 -0.5369
21613W        W36744  13.185   5.811   1.338 -0.1143 -0.2565 -0.1435
21614W        W36745   8.556  12.956   0.062 -0.1772 -0.3061 -0.0441
21615W        W36746   5.793   1.890  11.625  0.0525 -0.2210  0.1626
21616W        W36747   7.906   4.967   1.869 -0.3528 -0.2085 -0.1399
21617W        W36748  15.871  10.149   2.055  0.2420 -0.0413  0.0391
21618W        W36749  17.649   3.506   0.321 -0.3593  0.1725  0.2171
21619W        W36750  10.680  13.782   5.396 -0.0728  0.2114  0.2203
21620W        W36751   3.401   0.059  14.721 -0.1974 -0.5580 -0.1613
21621W        W36752   6.441   1.832  15.600  0.0008 -0.0550  0.0405
21622W        W36753  17.855  13.251  16.089  0.2532  0.1267  0.2229
21623W        W36754  11.190   8.150  13.949  0.0868 -0.1731  0.0585
21624W        W36755   4.666  12.086  10.907  0.3499  0.1874 -0.0755
21625W        W36756   6.713  14.273   0.279  0.2437 -0.0445 -0.3214
21626W        W36757   7.863   2.910  11.552 -0.3496 -0.2464 -0.0216
21627W        W36758   5.392   3.860   3.788  0.1262  0.0776  0.2156
21628W        W36759   8.588  10.085   1.630 -0.0309 -0.1841 -0.0667
21629W        W36760  14.766  10.475   5.562 -0.0393  0.0143  0.0647
21630W        W36761  12.396  15.091   5.207 -0.1254 -0.1664  0.0127
21631W        W36762   0.476  15.999   4.221 -0.1720  0.0180  0.1513
21632W        W36763  12.877   4.343   5.192 -0.3655 -0.1212  0.0128
21633W        W36764   5.127   5.354   4.221  0.1133  0.1159  0.0631
21634W        W36765   4.576   8.005  11.524 -0.1339  0.0016 -0.1026
21635W        W36766  10.230   4.714  13.928  0.3142  0.2866  0.1673
21636W        W36767   1.039  10.486   0.275 -0.1502 -0.3457  0.1340
21637W        W36768  17.296  14.518   2.868 -0.1712  0.0901 -0.2449
21638W        W36769  16.878  15.355   1.956 -0.0087  0.0889 -0.3457
21639W        W36770   2.806  16.408   5.063  0.1748  0.3631  0.1383
21640W        W36771  18.103   9.044   0.185  0.2727 -0.4072 -0.1378
21641W        W36772  13.684  12.837   0.869  0.0552 -0.0896 -0.0783
21642W        W36773   1.944  14.689   5.642 -0.0672 -0.0727 -0.1228
21643W        W36774   7.737  11.381  10.984  0.1451  0.0137  0.1397
21644W        W36775   8.713   4.234  15.567 -0.2895 -0.1985 -0.1249
21645W        W36776   6.287  16.822   5.320  0.1995 -0.0649 -0.0938
21646W        W36777  14.652   9.139  12.251  0.1245 -0.1597  0.1908
21647W        W36778  10.470   2.904   1.898  0.0288  0.0201  0.1157
21648W        W36779  16.555  10.640  15.897  0.1075  0.1386  0.0683
21649W        W36780   3.399   9.339  14.222 -0.1285 -0.2325 -0.3341
21650W        W36781   1.415   0.038   1.290 -0.0366 -0.1219  0.0902
21651W        W36782  15.401   7.475  12.085 -0.1611 -0.1076 -0.0805
21652W        W36783  14.757  11.997   4.124  0.0411 -0.0411  0.2496
21653W        W36784  15.765   9.670   6.282  0.1898  0.0916 -0.1902
21654W        W36785  15.759  13.645   1.994  0.2067 -0.0910 -0.0914
21655W        W36786  12.562  11.301   1.950 -0.1095  0.1842  0.0785
21656W        W36787  16.760  16.059  13.515  0.2851  0.1300 -0.1563
21657W        W36788   7.088  13.559   1.331 -0.0149 -0.1954 -0.0031
21658W        W36789   3.899   4.931   3.217  0.0762  0.0846 -0.0092
21659W        W36790  13.599  16.499  12.142  0.1960  0.3536 -0.2455
21660W        W36791  14.809  12.380  15.802  0.1801 -0.0739  0.0478
21661W        W36792  11.135   7.233  12.105  0.0152 -0.0538  0.0027
21662W        W36793   3.607  11.075   4.187  0.0368  0.2833  0.0183
21663W        W36794   7.124   6.705  12.734  0.1570 -0.0719  0.1211
21664W        W36795  13.058   4.509  11.575 -0.0482 -0.0196 -0.1210
21665W        W36796  16.705   7.079  13.035  0.0127 -0.0004  0.2785
21666W        W36797  14.930   5.749   3.677 -0.0249 -0.0427 -0.0458
21667W        W36798  16.209  15.528  13.049 -0.0301 -0.2064 -0.0731
21668W        W36799   0.351   9.029  15.004 -0.0434 -0.1567 -0.0304
21669W        W36800  11.171  11.119  14.528 -0.1426  0.0979  0.1575
21670W        W36801   6.149  11.682  14.412 -0.0075  0.1718  0.1117
21671W        W36802   3.398   8.274   3.944 -0.1192  0.0667  0.1082
21672W        W36803  17.369   3.116  15.483 -0.2706  0.1338 -0.0436
21673W        W36804   2.659  17.575   2.832  0.2635  0.0872 -0.1176
21674W        W36805  10.568   9.273  12.462  0.1499 -0.2870  0.2152
21675W        W36806  13.281  16.921   4.391 -0.3348 -0.2331  0.0827
21676W        W36807   2.467   7.166  13.690 -0.0072 -0.1700 -0.0738
21677W        W36808   6.360  13.342  14.406 -0.0843  0.0584  0.2751
21678W        W36809   4.887  15.340  13.952 -0.0508 -0.1359 -0.0925
21679W        W36810  15.776   3.459  11.259 -0.2593 -0.4101  0.0170
21680W        W36811   8.368  16.539  10.276  0.2723 -0.0629  0.0240
21681W        W36812  15.659  17.901   2.560 -0.2710  0.0221 -0.0438
21682W        W36813   7.466  14.146   5.082  0.0967 -0.0605  0.1005
21683W        W36814   5.400   3.862  12.458 -0.2481 -0.2012  0.1491
21684W        W36815  18.061  13.658  16.262  0.2882  0.0108  0.0259
21685W        W36816   9.820   2.458  11.264  0.2240 -0.0582  0.2320
21686W        W36817   7.018   1.782  13.056  0.0459  0.4940  0.2893
21687W        W36818   9.119  15.096  11.230 -0.0029  0.1352 -0.0793
21688W        W36819   7.126   9.258   3.528  0.3730 -0.1913  0.1050
21689W        W36820   3.676  11.878  12.519  0.0931  0.3481 -0.0449
21690W        W36821   4.046   5.573  13.801 -0.1672 -0.1419 -0.0743
21691W        W36822  17.259  10.474  14.173 -0.0427  0.1511 -0.2609
21692W        W36823   3.278   4.381  16.326 -0.2731 -0.1604  0.1745
21693W        W36824  12.664  14.779  15.477  0.1744 -0.0705  0.1840
21694W        W36825   4.690  16.875   0.186  0.0928 -0.0543  0.0310
21695W        W36826   5.688   8.982   3.102 -0.0776 -0.3009 -0.1386
21696W        W36827  14.166   9.049   3.595 -0.0231  0.1869  0.3192
21697W        W36828  16.622   9.602  12.414 -0.1592  0.2899  0.1748
21698W        W36829   3.858   0.158  12.214 -0.1794 -0.0371 -0.3024
21699W        W36830   2.747   5.678  11.985  0.1847 -0.1506 -0.2988
21700W        W36831   6.405   7.724   3.071  0.0079 -0.1427  0.1380
21701W        W36832  10.736   4.742  13.708  0.4873  0.4173  0.1494
21702W        W36833   8.429   8.722   3.877  0.0420 -0.0395  0.1300
21703W        W36834  11.584   8.455  16.197  0.0092 -0.2065 -0.0993
21704W        W36835   8.499  10.642   3.285  0.0614  0.1085 -0.0495
21705W        W36836  11.233   8.580  15.469 -0.0509  0.3273  0.1137
21706W        W36837   0.784   3.268  11.981 -0.0209  0.0344  0.0125
21707W        W36838  13.612  12.439  15.174 -0.2367 -0.1938 -0.1991
21708W        W36839   1.706   0.947   5.765 -0.1284 -0.1680 -0.2534
21709W        W36840  14.024   1.667  15.081 -0.2046 -0.0039 -0.5220
21710W        W36841  15.493  17.159   3.428  0.0676  0.0687 -0.1139
21711W        W36842  11.138   3.406  12.128 -0.0555 -0.2556 -0.0024
21712W        W36843  18.028   9.664  11.132  0.1222 -0.1949  0.0158
21713W        W36844   6.591  17.345   1.189  0.1652 -0.3536 -0.0188
21714W        W36845  10.599   2.115   1.210  0.0728  0.2073 -0.2426
21715W        W36846  15.389  12.445   2.762 -0.2007  0.0956  0.1435
21716W        W36847  16.697   1.865  12.224  0.2848  0.1358  0.0992
21717W        W36848   9.222   3.092   3.117  0.0667 -0.1348  0.1247
21718W        W36849   3.645  16.799   5.169  0.0163 -0.3147  0.0071
21719W        W36850   3.123   4.736  11.841  0.2022 -0.1429 -0.3099
21720W        W36851  12.722   8.844  11.673  0.0392  0.0522 -0.1205
21721W        W36852   4.717  16.252   4.588 -0.0820  0.1686  0.0640
21722W        W36853  17.991  15.181  14.756 -0.2795  0.0367  0.0519
21723W        W36854   9.741   2.214   0.032 -0.2578 -0.0409  0.3513
21724W        W36855  13.624  11.423  10.874  0.0713 -0.2978  0.0557
21725W        W36856   8.813   7.194  12.336  0.0642  0.2022 -0.0168
21726W        W36857   8.910  11.579   3.780  0.1349  0.1263  0.1678
21727W        W36858   6.023   4.473   3.421  0.1843 -0.1335 -0.1419
21728W        W36859   4.791   3.398   4.312 -0.0782 -0.2956  0.0139
21729W        W36860   0.705  16.747  16.035  0.4900  0.1022 -0.0535
21730W        W36861   5.832   9.733  12.289  0.1655 -0.3348 -0.0802
21731W        W36862   6.994   2.983  13.737  0.2118  0.0473  0.0085
21732W        W36863   3.207   8.125  11.950 -0.1304  0.1261 -0.4098
21733W        W36864  15.699  17.476  13.941  0.0023  0.2658 -0.1811
21734W        W36865   7.845  16.655  14.354 -0.0918  0.0837  0.0364
21735W        W36866  14.051  10.553   4.887  0.0838 -0.0948 -0.2531
21736W        W36867  15.489   8.741   2.503 -0.0923  0.1919 -0.0968
21737W        W36868   1.514  11.820  14.029 -0.0699  0.0502 -0.1216
21738W        W36869   6.952   6.763  10.902 -0.0392 -0.2939  0.0263
21739W        W36870   2.891  11.770  11.687  0.0041  0.0236  0.3030
21740W        W36871   2.493   1.234  12.874  0.2490  0.1119  0.2001
21741W        W36872   2.263  14.862   2.962 -0.1350  0.1779  0.1863
21742W        W36873  14.395   3.320   4.623  0.1581  0.0359  0.0566
21743W        W36874  16.820  12.351  15.769 -0.0826  0.0794  0.0734
21744W        W36875   3.288   3.858   0.865 -0.0836 -0.0676 -0.1538
21745W        W36876  16.944   9.873   1.157  0.0998 -0.2635 -0.0173
21746W        W36877   9.441   6.584  12.201 -0.1075 -0.1914 -0.0487
21747W        W36878  17.650   8.822  13.919 -0.0040  0.1151 -0.1762
21748W        W36879   8.428  17.545  12.956 -0.2332 -0.1585  0.0698
21749W        W36880   5.370   3.740   1.790 -0.1274  0.0649 -0.1469
21750W        W36881   3.666  16.400   3.396  0.1296  0.0272  0.1245
21751W        W36882   4.507   2.273  11.612  0.0458 -0.1133 -0.1040
21752W        W36883   6.208   4.374  12.993  0.0191 -0.0155  0.0188
21753W        W36884   4.796   7.074   0.734 -0.2593 -0.3491  0.0109
21754W        W36885   1.453  10.336  14.656  0.2258  0.1692 -0.0599
21755W        W36886  10.553  15.931   5.150  0.1140 -0.0815  0.1028
21756W        W36887  12.879   1.012  14.135  0.1997 -0.0715 -0.0081
21757W        W36888   3.430   9.665   5.934 -0.1198 -0.0125 -0.0756
21758W        W36889   1.497  14.289   2.510  0.1460 -0.0786 -0.2307
21759W        W36890  10.614  12.627   1.690 -0.2697 -0.0078 -0.0513
21760W        W36891   0.372   3.901  13.360 -0.5642  0.1711 -0.2385
21761W        W36892   1.134   2.813   4.249  0.1714  0.0866 -0.0360
21762W        W36893   0.100  11.099   3.576  0.2001  0.0396 -0.1989
21763W        W36894   3.031   4.001   4.415  0.1074 -0.0429 -0.3545
21764W        W36895  17.986   0.540  13.134 -0.0520 -0.0889  0.4106
21765W        W36896   2.271  17.596   0.763  0.1427  0.2850 -0.2886
21766W        W36897   2.386   0.393   0.661 -0.0019  0.0977 -0.0699
21767W        W36898  12.388   8.255  13.673 -0.0481 -0.0937 -0.3368
21768W        W36899   3.433   3.710   4.205  0.1104  0.0574  0.2255
21769W        W36900   7.609   6.030  14.500 -0.0349  0.0419 -0.0275
21770W        W36901   0.589  10.740   1.041  0.0255 -0.0540  0.0351
21771W        W36902  13.342   1.185  15.514  0.1911 -0.2122  0.0332
21772W        W36903   3.264   0.435  13.227  0.2078 -0.0140  0.1571
21773W        W36904   1.563   7.788  14.748  0.0961  0.0247 -0.0149
21774W        W36905   4.725   4.585   3.584 -0.1518 -0.2366 -0.1472
21775W        W36906   7.635  16.578   5.825 -0.0603 -0.1958  0.6560
21776W        W36907  12.613   7.494   5.337 -0.0993 -0.3474  0.0351
21777W        W36908   2.011   6.999  14.530 -0.1744  0.0786 -0.1646
21778W        W36909  16.295   6.215   1.471 -0.1451 -0.1832  0.1479
21779W        W36910  15.523  14.159   3.359 -0.1591  0.2072 -0.1498
21780W        W36911   8.225   9.791   3.551 -0.0163 -0.0938 -0.2552
21781W        W36912   9.446  16.358  14.202 -0.0944  0.1442 -0.1845
21782W        W36913  14.061  13.769   5.049 -0.2603  0.1594  0.0518
21783W        W36914  13.530   2.239   3.450  0.0656  0.1254 -0.2213
21784W        W36915   4.929   3.650  15.677 -0.0488 -0.1234  0.2649
21785W        W36916   8.787  15.563  14.174 -0.0622 -0.3419 -0.0985
21786W        W36917  12.845   6.234  15.575  0.2315 -0.2861  0.0593
21787W        W36918   4.573   5.172   0.828 -0.1855  0.0795  0.2706
21788W        W36919   3.275  10.031   2.382  0.0848  0.2956  0.0805
21789W        W36920  10.253   2.400  12.146  0.0706 -0.2487 -0.2529
21790W        W36921   8.879   8.321   1.130  0.1788  0.2490  0.2307
21791W        W36922  12.712  16.381   4.840 -0.0116  0.1530 -0.1460
21792W        W36923   9.991  17.026   6.086 -0.1088  0.2583 -0.0395
21793W        W36924  10.280   2.170  14.997  0.0500  0.0326  0.1237
21794W        W36925   4.914   6.574  15.584 -0.1712  0.0151 -0.3178
21795W        W36926   7.382   5.084  14.180  0.4297 -0.1963 -0.0206
21796W        W36927   3.641   0.973   4.730 -0.1709  0.2447  0.0448
21797W        W36928  10.240  13.575  12.610  0.0052  0.1031 -0.0011
21798W        W36929   0.461  11.160  16.325 -0.0745  0.0706  0.2991
21799W        W36930   2.340   6.516   5.416 -0.0482  0.2226 -0.0657
21800W        W36931   7.180  15.084  14.606 -0.1051  0.0220  0.0637
21801W        W36932   2.916   4.338   1.002  0.2961 -0.1795 -0.0515
21802W        W36933   5.980   4.069   4.415  0.0963 -0.1866  0.2583
21803W        W36934   3.703   3.132  15.393  0.0330  0.0377 -0.0611
21804W        W36935  15.877   2.851   2.134  0.2393 -0.2470  0.1493
21805W        W36936   8.522   3.812  13.754  0.3242  0.1132  0.0063
21806W        W36937   8.305  14.800   5.822 -0.1258  0.0014 -0.0849
21807W        W36938   8.498  11.615   3.543  0.1205  0.1425  0.0915
21808W        W36939  15.793   0.234   1.628 -0.0677 -0.3508 -0.1966
21809W        W36940   1.923  10.009  13.568  0.3085 -0.0562  0.1694
21810W        W36941  16.444  10.795   1.338 -0.0010 -0.3681 -0.0891
21811W        W36942  11.022  14.991  12.457  0.0272 -0.0932  0.1335
21812W        W36943   6.980  17.097   1.259 -0.1692  0.0071 -0.0966
21813W        W36944   6.128   6.180   0.512  0.1340 -0.3357  0.2008
21814W        W36945  16.023   6.052   6.138  0.0716 -0.4178 -0.1930
21815W        W36946  17.058   4.491  12.738  0.3337 -0.2160  0.0648
21816W        W36947  12.190   5.175   2.129 -0.0249 -0.0384 -0.0290
21817W        W36948   0.723  12.366  15.599 -0.2078  0.0489  0.3457
21818W        W36949  11.538   0.588   5.210  0.1088  0.1408  0.2497
21819W        W36950  12.310   0.929  13.433  0.1190 -0.2004 -0.0281
21820W        W36951   4.821   7.596  16.295 -0.1214  0.0215 -0.3220
21821W        W36952   9.326   0.454   5.261  0.0955  0.1924 -0.1441
21822W        W36953  15.985   1.552   3.451 -0.2940 -0.1595 -0.0180
21823W        W36954  16.024  11.649  14.199 -0.0436  0.0234  0.1371
21824W        W36955  17.247   8.250   1.336 -0.1672  0.0174 -0.0638
21825W        W36956   1.025   9.531  11.976  0.0803  0.3310 -0.1416
21826W        W36957   9.482  16.795   3.032  0.0168 -0.0440  0.1743
21827W        W36958   9.128  14.905  14.666 -0.0530 -0.0308  0.0058
21828W        W36959  13.605  11.352  13.121 -0.0617  0.0120 -0.1827
21829W        W36960   3.417  11.406   1.588 -0.0019  0.3221 -0.1974
21830W        W36961   6.082  17.841  15.265  0.2223 -0.1493  0.1739
21831W        W36962   1.465   8.222  11.591 -0.0149 -0.0363 -0.2028
21832W        W36963   1.788   3.222  13.458  0.0371 -0.2635 -0.0403
21833W        W36964   9.156   8.929   3.980 -0.1543 -0.1303  0.0616
21834W        W36965   4.360   6.307  11.717  0.2171 -0.0548  0.1950
21835W        W36966  16.246  15.844   5.598 -0.2884  0.0557  0.3038
21836W        W36967  11.886   0.960   1.615  0.1937 -0.1279 -0.2878
21837W        W36968   7.240   7.485   1.369 -0.2606  0.0799 -0.2682
21838W        W36969   7.027   6.200  11.303 -0.1198 -0.2282  0.2744
21839W        W36970  11.495   9.715  14.781 -0.6692  0.4019 -0.1243
21840W        W36971  17.687  16.912  11.177 -0.2556 -0.0203 -0.1661
21841W        W36972   7.271  15.150  13.493 -0.2954 -0.1811  0.0677
21842W        W36973  13.368  14.819   1.587  0.2082  0.0792 -0.1352
21843W        W36974   2.798  15.459   2.921 -0.1058  0.0091  0.0061
21844W        W36975   6.375  12.259  11.300 -0.2182  0.3171 -0.1244
21845W        W36976   5.663  10.237  12.373  0.2296  0.0777 -0.1983
21846W        W36977  13.668   3.462   3.637  0.1796 -0.0219  0.0706
21847W        W36978  12.038  12.926  12.398 -0.0360  0.1915 -0.2599
21848W        W36979   7.262  10.458  15.405 -0.1438  0.2546 -0.1170
21849W        W36980   0.956  11.198  11.116 -0.0407  0.1147  0.0990
21850W        W36981   3.265   0.040  14.227  0.2631  0.0447 -0.0982
21851W        W36982   1.233  10.465  11.961  0.0472 -0.1131  0.0215
21852W        W36983   7.454  10.647  14.576  0.1804 -0.5710  0.0975
21853W        W36984   5.398   0.797   5.713 -0.1625 -0.2186 -0.0287
21854W        W36985   4.393  16.274   3.090 -0.0512 -0.3681  0.2322
21855W        W36986  13.730  16.729  15.314 -0.2117 -0.1040 -0.4419
21856W        W36987   5.664   7.577   0.961  0.0140 -0.1355  0.0977
21857W        W36988  17.243  12.967  13.138  0.0468  0.2325  0.2000
21858W        W36989  10.755   4.385  12.785 -0.1425  0.1571  0.0445
21859W        W36990   8.674  16.446  15.586 -0.1997  0.0985 -0.4530
21860W        W36991  11.879  12.234   3.243 -0.1153 -0.0610 -0.1435
21861W        W36992   4.853   0.482  12.236  0.2068  0.0265 -0.2195
21862W        W36993  12.152   1.188   2.106 -0.3103  0.1029  0.1752
21863W        W36994  13.496  11.617   1.997 -0.0172 -0.2491 -0.1399
21864W        W36995   8.740  17.409   0.140  0.2413  0.3100  0.1036
21865W        W36996   5.596   8.329  14.211  0.5535 -0.1288 -0.0105
21866W        W36997   6.758  17.351  12.306 -0.0500 -0.0380  0.0762
21867W        W36998  12.400  11.991  15.842  0.1952 -0.1979  0.5916
21868W        W36999   6.581   3.050   3.622  0.2113  0.0814 -0.0710
21869W        W37000  14.465  14.572  15.440  0.1084 -0.2504 -0.0830
21870W        W37001  10.315   7.220   0.768  0.0897 -0.1718 -0.1352
21871W        W37002   5.453  12.379  10.498  0.0938 -0.0153 -0.3124
21872W        W37003   8.174  15.436  14.281 -0.1056 -0.1860 -0.1790
21873W        W37004  13.924   0.208  14.208 -0.0361 -0.0868 -0.0301
21874W        W37005  11.913  13.597  11.803 -0.1643 -0.0411  0.0377
21875W        W37006   3.002   2.678  11.282 -0.2122 -0.0595 -0.0562
21876W        W37007   4.704  17.029  15.687  0.0210 -0.1845  0.3130
21877W        W37008  11.944   5.101  15.215 -0.0302  0.2891  0.1037
21878W        W37009  14.440   9.195  11.644  0.1495  0.0301  0.0511
21879W        W37010   7.288  16.645   0.335  0.0971 -0.0482 -0.2958
21880W        W37011  14.403   3.104   5.655 -0.2175  0.3149 -0.1307
21881W        W37012   9.850  11.773  12.382 -0.0132 -0.1610 -0.0122
21882W        W37013   7.015  16.062   5.110 -0.0190  0.0051 -0.2488
21883W        W37014  13.415  16.213  11.804  0.1960  0.2416  0.0165
21884W        W37015   5.750   9.060   1.125  0.0105  0.1949 -0.1646
21885W        W37016   3.780   4.713   0.750 -0.0047  0.1486 -0.0912
21886W        W37017   8.779  16.970  14.309 -0.3708  0.0019 -0.0111
21887W        W37018   0.170   1.946  13.427 -0.0983 -0.3106  0.0437
21888W        W37019  18.028   8.922  15.748 -0.0548  0.0503  0.0998
21889W        W37020   2.043  16.642   1.844  0.1110  0.2006  0.2201
21890W        W37021   9.429   8.587   1.999  0.1010 -0.0829 -0.1506
21891W        W37022   1.607   7.292  11.526  0.2408 -0.3262  0.1344
21892W        W37023   7.771   5.532  10.970  0.1958  0.0352 -0.0449
21893W        W37024   5.448   3.380  12.543  0.1394  0.0920 -0.2252
21894W        W37025  17.547   9.104   4.762 -0.2725 -0.1898  0.2991
21895W        W37026  11.481  13.377   0.961 -0.2020  0.0706  0.2097
21896W        W37027   7.374  11.839   0.017 -0.2762 -0.0363 -0.0640
21897W        W37028   2.284  13.000  14.088 -0.1185 -0.4633 -0.1644
21898W        W37029  13.310   5.950  14.436 -0.0548  0.0519 -0.0595
21899W        W37030   3.787  12.783  12.122 -0.0050 -0.0990  0.1032
21900W        W37031   8.576  12.602  12.912  0.0897  0.1965  0.0973
21901W        W37032  16.819  15.599  15.626  0.0941 -0.3012 -0.0227
21902W        W37033   1.403  12.118   0.921 -0.0378  0.2071  0.3052
21903W        W37034  14.769   4.875   1.477  0.1874 -0.0226 -0.0977
21904W        W37035   6.240   9.670   2.593  0.0300  0.1875 -0.1684
21905W        W37036  14.097  12.284  15.078  0.0856 -0.1494 -0.4728
21906W        W37037   3.135   2.430  12.902 -0.1795  0.0712 -0.0124
21907W        W37038  13.036  12.741   2.526  0.0381  0.0139 -0.0726
21908W        W37039  11.293   7.939   0.477  0.1670 -0.1241  0.1478
21909W        W37040   3.302  12.640   0.010  0.1474 -0.1798 -0.1269
21910W        W37041  13.110  12.141   0.754 -0.3214 -0.0121 -0.0738
21911W        W37042   3.668  16.029  12.563 -0.4103  0.1093  0.1291
21912W        W37043  16.603   5.270   0.205  0.1482  0.2045 -0.1916
21913W        W37044  15.517   5.660   1.322 -0.0189 -0.0396  0.0952
21914W        W37045   4.928   2.124  11.864  0.0228  0.1866  0.1817
21915W        W37046   6.273  17.394   5.575  0.1032  0.1621 -0.3432
21916W        W37047  14.712  14.675  13.456 -0.1876  0.0375  0.4154
21917W        W37048   1.869   6.155  14.075  0.2036 -0.1412  0.0012
21918W        W37049  17.507   6.010  11.464 -0.2785  0.2374 -0.0268
21919W        W37050   6.304   3.983  11.391 -0.0379 -0.0468  0.0457
21920W        W37051   7.181   1.402   2.310 -0.2115 -0.0278  0.0308
21921W        W37052   7.675  13.648  11.235 -0.1492  0.0879  0.0338
21922W        W37053   9.832  11.179  10.180  0.2734  0.1199 -0.1492
21923W        W37054  17.744   5.049   0.419 -0.1935 -0.3360 -0.0319
21924W        W37055   8.383  15.240   0.556 -0.0212 -0.1893  0.1054
21925W        W37056  14.411   8.193   5.417  0.2362 -0.1934 -0.1887
21926W        W37057   8.897   7.422  11.398 -0.0729  0.0299 -0.1287
21927W        W37058   1.745   8.377   0.670  0.1390 -0.2503  0.0456
21928W        W37059  13.801  13.725  16.014  0.0094 -0.0284  0.3592
21929W        W37060  13.249   9.844   5.643 -0.1220  0.1555 -0.0535
21930W        W37061   7.650   0.690  11.951 -0.2918 -0.0136  0.0433
21931W        W37062   4.288  14.680  14.993 -0.2829 -0.1373 -0.0983
21932W        W37063  17.279   3.072   1.276 -0.1787  0.1438  0.1212
21933W        W37064   2.397  11.045  15.185  0.0133  0.2301  0.1589
21934W        W37065  13.289   7.940  11.759 -0.2909 -0.0459 -0.1756
21935W        W37066   2.210   5.670  12.121 -0.0108  0.0220  0.4148
21936W        W37067  13.151  14.662  11.120  0.1962  0.1082 -0.1335
21937W        W37068   6.195  11.721   2.340  0.1246  0.0801  0.1879
21938W        W37069   1.686  14.317   3.801 -0.1593 -0.0893 -0.0570
21939W        W37070  11.721  10.046   4.153  0.0192 -0.1134  0.1568
21940W        W37071   4.663   4.086  15.261 -0.3236  0.1423 -0.0220
21941W        W37072  11.860   1.742  14.202 -0.1423  0.0498  0.0542
21942W        W37073  15.971  14.480  15.072 -0.0458  0.0340 -0.0129
21943W        W37074  13.341   0.643   1.506 -0.2718 -0.1997 -0.0154
21944W        W37075   2.198   4.711   2.275  0.3076  0.0787  0.0396
21945W        W37076   2.152  16.809  12.045 -0.0774  0.1587  0.1423
21946W        W37077  12.405  16.721  16.137 -0.0285  0.1158 -0.1399
21947W        W37078   4.981  16.256  15.578  0.2559  0.0305  0.2809
21948W        W37079   1.561   7.408  12.065 -0.0500 -0.2999  0.1838
21949W        W37080  14.419  11.572   1.387  0.2920 -0.3226 -0.1799
21950W        W37081  11.521  17.581   4.346 -0.0853  0.0593  0.0332
21951W        W37082   7.461   9.973  11.972 -0.1710  0.2475 -0.1395
21952W        W37083   1.282   3.693  15.186 -0.1068  0.0068 -0.2167
21953W        W37084  12.173   5.446  14.915 -0.1626 -0.0793 -0.1867
21954W        W37085   5.242   8.104  12.995 -0.0470  0.0284 -0.1214
21955W        W37086  16.709  16.530  13.198  0.2766 -0.0849 -0.1998
21956W        W37087   6.963   3.680   3.804 -0.0413 -0.1088  0.1109
21957W        W37088  12.327  17.358   1.002 -0.1570  0.4028 -0.2548
21958W        W37089  13.651  17.080  12.105 -0.1036 -0.1690  0.0865
21959W        W37090  12.999  12.245   2.558 -0.1761 -0.1060 -0.1700
21960W        W37091  16.402   4.938   0.610  0.1775 -0.1186 -0.1615
21961W        W37092  16.027  16.042   5.173  0.0011 -0.0647 -0.2359
21962W        W37093   9.385  11.410  11.490 -0.0427 -0.0593 -0.0151
21963W        W37094   9.381  15.960   3.126 -0.1153  0.1893 -0.2697
21964W        W37095  12.486  15.260   2.440 -0.2339 -0.1429  0.0131
21965W        W37096  10.999  11.558  12.510 -0.0029 -0.0636  0.3161
21966W        W37097   1.339   2.684   1.853  0.1843 -0.0796  0.0584
21967W        W37098   6.295  11.229  12.170 -0.0801  0.0395  0.1279
21968W        W37099   0.896  15.337   0.502 -0.1289  0.2119 -0.0159
21969W        W37100   9.007   0.390   4.050  0.2340  0.3674  0.0243
21970W        W37101  16.648   6.742  14.906  0.0383 -0.1047 -0.0485
21971W        W37102   6.283   9.636   3.604  0.0950 -0.1256  0.1371
21972W        W37103   8.786  12.885  15.614  0.0057  0.0835  0.2746
21973W        W37104  12.369   4.978   5.039 -0.4229 -0.1222  0.3204
21974W        W37105   6.780  12.495   3.781 -0.1363 -0.0647  0.1344
21975W        W37106   4.810   3.552  14.311 -0.1623 -0.0249  0.1930
21976W        W37107   7.874  11.742   2.055 -0.0645  0.2137  0.0780
21977W        W37108   0.567   8.886  13.925  0.1814  0.2073  0.0959
21978W        W37109   9.078  11.948  14.035  0.3219 -0.1848  0.0718
21979W        W37110  14.268  14.842  14.178 -0.1661  0.1132 -0.0531
21980W        W37111   6.873   1.725   2.946 -0.1966 -0.0275 -0.2131
21981W        W37112  13.153   9.183  11.570 -0.0483  0.2018 -0.1098
21982W        W37113   1.264   5.477   4.389 -0.0349 -0.0454 -0.1842
21983W        W37114  10.921   3.946   1.624 -0.3512 -0.0358  0.0522
21984W        W37115  13.758  12.179  10.460  0.2152 -0.1214 -0.1817
21985W        W37116  15.013   6.161  12.281  0.0856  0.1431  0.1998
21986W        W37117   8.930   0.056  10.794  0.1549  0.3255  0.3853
21987W        W37118  15.239   6.190   0.421  0.1883 -0.0476 -0.1213
21988W        W37119  12.643  17.231   3.713  0.2192 -0.1064  0.1788
21989W        W37120   5.940   3.590  14.843  0.0273  0.2109 -0.1103
21990W        W37121   7.516  14.242  14.543 -0.2227 -0.1031  0.5260
21991W        W37122   8.880   2.028  12.631 -0.0706  0.2474 -0.2837
21992W        W37123   2.729  16.525   2.890  0.2661 -0.1892 -0.3513
21993W        W37124  10.562   0.939  13.690 -0.2734 -0.1557  0.0349
21994W        W37125  10.219  13.110  12.388 -0.3633 -0.1767  0.1037
21995W        W37126   6.666  16.821  14.346  0.1278  0.1019 -0.0610
21996W        W37127  13.884  11.220   1.965  0.0823  0.1565 -0.0382
21997W        W37128  14.316   3.625  15.792  0.1437 -0.3821  0.0523
21998W        W37129   2.601   3.085   3.938 -0.2068  0.1469  0.0711
21999W        W37130  16.676   2.359   0.998 -0.1286  0.2306  0.1110
22000W        W37131  11.224   2.800   1.317 -0.0946  0.2058 -0.2983
22001W        W37132   1.753  15.883   5.219 -0.4373  0.1726 -0.0301
22002W        W37133   6.129   5.033  15.450 -0.2718 -0.0951 -0.1405
22003W        W37134  17.125   5.591   3.821 -0.0389 -0.0493  0.2430
22004W        W37135   0.513  11.365  10.947 -0.0828 -0.2127 -0.2459
22005W        W37136  17.316  17.658   4.571 -0.0023  0.1501  0.0868
22006W        W37137  16.210  10.252   2.810  0.0803  0.0542 -0.1004
22007W        W37138  17.978   0.132  14.143 -0.0226  0.3125  0.0730
22008W        W37139   8.968   8.710  14.049  0.1528  0.2044 -0.2491
22009W        W37140   8.799  16.017  15.287 -0.1126  0.3238 -0.0691
22010W        W37141   2.125   2.813  16.198  0.0414 -0.1893  0.1271
22011W        W37142   6.615  17.930   2.345 -0.0003 -0.0086  0.1368
22012W        W37143   3.713  12.173   4.068 -0.1861  0.2255  0.1540
22013W        W37144  14.494   8.049  12.740 -0.0921  0.1041  0.0363
22014W        W37145  17.372   1.070   0.829  0.0012 -0.0890 -0.2087
22015W        W37146  10.573  15.174  12.754  0.1059 -0.1484  0.1666
22016W        W37147   7.725   8.531  15.513  0.0487  0.0996  0.2808
22017W        W37148  10.631   7.945  14.933  0.0937  0.0011  0.0607
22018W        W37149   7.177   4.387   4.830  0.1183  0.0052  0.0529
22019W        W37150  14.077   0.483  13.167 -0.0640 -0.0591  0.2598
22020W        W37151   8.065   7.558   3.939 -0.2964  0.1034  0.0367
22021W        W37152   5.669   6.945  15.639  0.2277 -0.0210 -0.2007
22022W        W37153  12.371   1.432  13.500 -0.2100 -0.0936 -0.1234
22023W        W37154   3.633  11.803   3.657  0.3357 -0.2962 -0.0008
22024W        W37155   4.412  11.354   0.384 -0.0427 -0.2598  0.1766
22025W        W37156  14.053   3.462   5.426 -0.2295  0.0576  0.1923
22026W        W37157   5.745   6.131  12.254 -0.0606 -0.0432  0.0602
22027W        W37158  18.090  11.073  14.667  0.1390  0.0795 -0.1489
22028W        W37159   6.903  16.860   5.503  0.1238 -0.1496  0.2241
22029W        W37160   7.961  16.504  14.913  0.1814 -0.1201  0.0591
22030W        W37161   3.509  16.646  10.224  0.2435 -0.2309 -0.2493
22031W        W37162  11.605  15.059  11.179  0.0369 -0.0319 -0.1437
22032W        W37163   9.467  18.048   4.755 -0.2006 -0.0902  0.0557
22033W        W37164  13.445  15.840   1.222 -0.0322  0.1273  0.2273
22034W        W37165  15.809   9.875  15.786  0.2338 -0.2019 -0.1236
22035W        W37166  10.308   5.031  14.866  0.3611  0.2080 -0.0964
22036W        W37167  10.732  15.544   2.991  0.3209 -0.2965  0.2923
22037W        W37168   2.842   2.425  10.816  0.0489  0.1601 -0.1708
22038W        W37169   5.458   3.964  14.026 -0.3751  0.0349 -0.0951
22039W        W37170   4.323  10.079   1.182  0.2051  0.3583 -0.1050
22040W        W37171   5.407   2.464  14.294  0.1276  0.2547 -0.0133
22041W        W37172   0.067  13.589  15.792 -0.1580  0.2964 -0.1782
22042W        W37173   2.443   3.102   3.457  0.1860 -0.1679 -0.4366
22043W        W37174   6.417   8.771  11.275 -0.2333 -0.0359  0.0630
22044W        W37175   7.030  15.632  12.366  0.0469 -0.0376  0.0038
22045W        W37176   4.867   2.083   1.511 -0.2055  0.1596 -0.0297
22046W        W37177   6.619   8.288   2.565 -0.1807 -0.0903 -0.0689
22047W        W37178   5.016  14.784  15.117 -0.0213 -0.2322 -0.2965
22048W        W37179   9.160   9.574  14.721 -0.0553  0.3037 -0.2556
22049W        W37180   3.432  18.076   5.800  0.1150 -0.0409 -0.0770
22050W        W37181  16.279  12.612  12.900 -0.0324  0.2463  0.0307
22051W        W37182  10.928   5.414  12.997 -0.0014  0.1149 -0.2294
22052W        W37183  14.949   8.886  11.722  0.2309  0.1341 -0.0044
22053W        W37184   3.969  14.572  14.604 -0.1948  0.0757  0.0719
22054W        W37185  14.395  13.185   5.879  0.1561  0.3112 -0.1986
22055W        W37186   9.324   0.527  14.696 -0.3813  0.0585 -0.3480
22056W        W37187   2.303  16.719  11.613  0.3646 -0.0749 -0.0673
22057W        W37188  12.592   0.811  11.514  0.0387 -0.1086  0.2470
22058W        W37189  14.284   3.809   0.583  0.1729 -0.0474  0.3297
22059W        W37190   0.451  16.310   5.445 -0.1718  0.0008 -0.0606
22060W        W37191   7.438  11.023  14.216  0.1204  0.2236 -0.1592
22061W        W37192   2.086   2.551   4.438  0.0695  0.1279  0.0877
22062W        W37193  13.916   7.945  12.997 -0.2146 -0.0999 -0.0293
22063W        W37194   3.737   9.542  11.985  0.1582 -0.1572  0.0669
22064W        W37195  14.505  14.692   3.775 -0.0538  0.2467  0.0966
22065W        W37196   1.171  15.194  12.093 -0.2870  0.1610 -0.1634
22066W        W37197   6.822  10.152  13.916  0.2401 -0.0560 -0.3042
22067W        W37198   3.806  13.151  12.721  0.0304 -0.0347 -0.1905
22068W        W37199   8.662  10.330  14.258  0.2526 -0.1744  0.1598
22069W        W37200  14.545  17.329   0.225 -0.1077  0.0381 -0.2523
22070W        W37201  17.094   3.952   5.343 -0.1740  0.1822  0.1459
22071W        W37202   1.190  14.358   3.707  0.0286  0.1387  0.2706
22072W        W37203   7.878   7.041   1.030 -0.1013  0.0963 -0.0090
22073W        W37204   2.388   5.259   6.051 -0.3932 -0.3521 -0.4064
22074W        W37205  15.130   0.488  11.870 -0.2416  0.2008  0.2654
22075W        W37206   6.808  12.674   4.288  0.1628 -0.0338  0.1555
22076W        W37207   9.090  10.031   1.613  0.1564  0.2547 -0.0786
22077W        W37208  11.149   6.153   0.353 -0.1078  0.0360  0.0199
22078W        W37209   7.657  17.271   1.856 -0.2152  0.1534  0.4303
22079W        W37210   3.213   0.827  12.096  0.0808 -0.0358 -0.0769
22080W        W37211   3.469   4.141   5.105 -0.1155 -0.3247  0.0395
22081W        W37212  12.584  15.289  12.780  0.0964 -0.3542  0.1068
22082W        W37213  15.420  13.955   1.155  0.2446 -0.1941 -0.0464
22083W        W37214   0.875   0.175  15.587  0.2714 -0.3028 -0.0175
22084W        W37215  17.889  14.870  11.757 -0.0034 -0.0832  0.2353
22085W        W37216  11.855  10.459  11.896  0.1849 -0.0794 -0.0344
22086W        W37217  17.418  14.767  13.491 -0.2053 -0.1543  0.2534
22087W        W37218   0.671   7.969   1.795 -0.0923 -0.1790 -0.0064
22088W        W37219   5.457  17.784  14.099 -0.0548 -0.1967 -0.0554
22089W        W37220  13.956   1.234   2.317  0.0081 -0.1389  0.0634
22090W        W37221  15.847  17.302  11.012  0.1894  0.1195  0.1879
22091W        W37222   3.381   6.137   4.113 -0.0631 -0.1125 -0.2131
22092W        W37223  14.808  11.708  13.642 -0.0823  0.1451  0.0135
22093W        W37224   8.858   5.955   1.284 -0.0838 -0.1645 -0.0179
22094W        W37225  14.358  17.045  14.253  0.0723  0.2316  0.0930
22095W        W37226  17.328   2.754  15.054 -0.0207 -0.0794 -0.0035
22096W        W37227  14.863   7.206   3.153 -0.0905 -0.1997  0.1410
22097W        W37228  12.694   5.665  13.050 -0.2282 -0.1519  0.1782
22098W        W37229   5.028  14.659   4.332 -0.1607  0.1974  0.1758
22099W        W37230  15.109   5.541   2.603  0.1827 -0.0379  0.0577
22100W        W37231  13.909   8.810   2.656 -0.2339  0.2998  0.2919
22101W        W37232   3.911  14.262   1.153  0.0957 -0.1177 -0.0146
22102W        W37233   6.064   8.295  14.324 -0.0897  0.0957  0.1083
22103W        W37234  16.488  16.849   4.553  0.2096 -0.0998  0.3528
22104W        W37235   8.219   0.139   0.602  0.3027 -0.1042  0.0090
22105W        W37236   0.844   2.507   1.076  0.0469 -0.0753  0.0651
22106W        W37237  16.813   2.951   3.747  0.0961  0.0915  0.2640
22107W        W37238   8.897   9.744   2.039  0.1313  0.1590 -0.0835
22108W        W37239   5.173  17.319   0.827  0.0224  0.2338 -0.1081
22109W        W37240   7.108   7.606  14.022  0.1200  0.0097  0.2848
22110W        W37241  10.624   1.733  14.869 -0.3370 -0.1868 -0.0537
22111W        W37242  12.534  12.255  12.969 -0.1615 -0.0102  0.1217
22112W        W37243   8.700  17.697   1.854  0.0675 -0.0822 -0.0215
22113W        W37244   5.156  17.755  13.149  0.0818 -0.1556 -0.2461
22114W        W37245   0.012  17.468   4.723  0.1963  0.1535 -0.0484
22115W        W37246   1.340  17.621   0.080 -0.2413 -0.0502  0.0551
22116W        W37247  15.810  12.169  14.402 -0.0895 -0.0571  0.0818
22117W        W37248  10.727   5.794  15.833 -0.2336 -0.0422 -0.0600
22118W        W37249  11.083   4.261   2.395  0.0251  0.4227 -0.0197
22119W        W37250  12.912   0.398   2.478  0.3406 -0.2624 -0.0151
22120W        W37251   1.236   4.922   5.894 -0.3109  0.2711 -0.0606
22121W        W37252   3.948   5.559   1.295 -0.0650 -0.0805  0.1966
22122W        W37253  17.077  12.406   4.858  0.1370  0.1328  0.0821
22123W        W37254   2.216  11.309  13.560 -0.0839  0.0580  0.0619
22124W        W37255   2.475  14.573  15.845  0.0521  0.0199  0.2384
22125W        W37256  14.824  16.402   2.304 -0.0586  0.2564 -0.0019
22126W        W37257  11.223   0.267   0.908 -0.0733 -0.0266  0.0674
22127W        W37258  12.782   8.166  15.617  0.2057  0.1250 -0.2321
22128W        W37259  15.731  12.738  15.165 -0.0685  0.3509  0.0158
22129W        W37260   8.076   2.736   1.766  0.2028  0.3444 -0.2147
22130W        W37261  15.839   8.300   3.682  0.3156 -0.3063 -0.3207
22131W        W37262   0.516   0.489  16.034 -0.2542  0.2710 -0.3770
22132W        W37263   2.831   1.740  14.199 -0.1897 -0.4767  0.1086
22133W        W37264   7.560   1.761   2.438 -0.2455  0.0655 -0.1790
22134W        W37265   0.510  12.290   4.237  0.1293 -0.3385 -0.0017
22135W        W37266   4.875  11.428   0.194  0.1834 -0.0720  0.3175
22136W        W37267   6.276   3.123   6.028  0.1783 -0.1733 -0.2142
22137W        W37268  11.095   9.059  15.562 -0.0779  0.0110 -0.1911
22138W        W37269   0.075   8.956  14.020  0.1483 -0.3568 -0.4066
22139W        W37270   7.137   7.507   4.125  0.1243  0.0170 -0.1434
22140W        W37271  16.111  17.683  15.602 -0.1816 -0.3035  0.2648
22141W        W37272  15.679   1.399  13.622 -0.1390  0.1677 -0.1589
22142W        W37273  17.371   0.608   1.848 -0.2760 -0.0722 -0.0533
22143W        W37274   4.452   6.954  13.519 -0.2832  0.0043 -0.1121
22144W        W37275   5.364   2.282  13.077  0.0034 -0.0066  0.2289
22145W        W37276   4.395   4.179   9.968 -0.0562  0.3000 -0.1209
22146W        W37277  13.442  10.334  15.435 -0.0099 -0.0842 -0.2780
22147W        W37278  15.321  17.636   3.322 -0.1604  0.0348  0.1635
22148W        W37279   8.729  15.456  13.708 -0.1313  0.2113  0.0193
22149W        W37280   3.975   2.136   4.008  0.2175  0.1472  0.0804
22150W        W37281  13.908   5.465   2.238 -0.0965  0.0880 -0.1781
22151W        W37282  14.842   5.280   3.902  0.3159  0.1074  0.1698
22152W        W37283   2.201  16.003   4.261 -0.0732 -0.0745 -0.1711
22153W        W37284   6.540  11.148  12.950 -0.0203  0.0558 -0.2117
22154W        W37285   1.718   8.798  12.244 -0.1131 -0.3807  0.0393
22155W        W37286  12.250   7.619   0.841 -0.0428  0.1132  0.1818
22156W        W37287   8.126   4.958  10.276 -0.4092 -0.0062  0.0931
22157W        W37288   4.568   8.288   4.713 -0.1483  0.1383 -0.1888
22158W        W37289  11.700   1.679   1.781  0.0559  0.2748  0.1887
22159W        W37290   1.653  11.757  16.458  0.1121  0.2049  0.1178
22160W        W37291   4.979   8.108   3.366  0.2210 -0.5427 -0.1166
22161W        W37292  18.001   2.026  12.196  0.0289  0.1372  0.1129
22162W        W37293  16.346  14.878  12.184  0.2061  0.0299 -0.0676
22163W        W37294   2.558   4.372  14.235 -0.1451 -0.2176  0.4016
22164W        W37295   6.091   9.807  11.308  0.2071  0.0327  0.2118
22165W        W37296  17.837   3.347   3.167  0.0862  0.0368 -0.2753
22166W        W37297   1.191   4.438  12.810  0.0202 -0.0330  0.0754
22167W        W37298   7.697   6.952  15.942  0.0881  0.1473  0.2956
22168W        W37299   2.071   9.741   4.941  0.1707 -0.0884  0.3830
22169W        W37300   3.603  16.335  14.991 -0.0757  0.1127 -0.0270
22170W        W37301   5.636   2.538  12.285  0.1176  0.0025 -0.2709
22171W        W37302   0.160   8.447  13.141  0.0963 -0.2461  0.2008
22172W        W37303   4.443   2.444   5.819  0.0694 -0.0128 -0.0162
22173W        W37304  17.908   7.404   1.820 -0.2184 -0.0595  0.1224
22174W        W37305   0.871   9.889   1.449  0.1586  0.0965 -0.0239
22175W        W37306   0.560   5.170  15.828 -0.1393 -0.0880  0.2098
22176W        W37307   0.772   3.780  12.871  0.0727  0.3893 -0.1867
22177W        W37308   1.133   1.403   4.375  0.0814 -0.0465  0.1693
22178W        W37309   3.240   6.749   5.049  0.2046  0.1516  0.1269
22179W        W37310   2.027   0.238   1.073  0.0171  0.1990  0.0529
22180W        W37311  17.098  17.355   2.487  0.0026  0.0913 -0.1079
22181W        W37312   8.751   7.304   2.397 -0.0985  0.3804 -0.0188
22182W        W37313   6.960  17.376   4.415 -0.0189  0.2585  0.2236
22183W        W37314  17.374   8.380   6.097  0.0686  0.3294 -0.0815
22184W        W37315   5.811   9.764   1.919 -0.2475  0.3089 -0.0049
22185W        W37316   8.272  10.271  11.835 -0.0599  0.2199  0.3274
22186W        W37317  13.700   9.475   1.660 -0.1087  0.3231  0.0975
22187W        W37318   0.039  11.396   2.657  0.0851  0.0968  0.3597
22188W        W37319   1.597   4.384  15.884 -0.1194  0.0615 -0.1205
22189W        W37320   2.969  15.162   0.757  0.3018  0.1677  0.0284
22190W        W37321  14.103   8.780  15.079  0.0211 -0.2842 -0.3336
22191W        W37322  13.092   1.003   3.144 -0.2003  0.0248  0.0876
22192W        W37323  16.088   3.703  15.116  0.3034 -0.0904 -0.2187
22193W        W37324  11.650   7.110  11.280  0.1745  0.0855  0.2728
22194W        W37325   6.291   4.504   4.789 -0.0181 -0.1110  0.1127
22195W        W37326   7.387  12.473  11.216 -0.1130 -0.0410  0.0850
22196W        W37327  11.437   1.910   1.399 -0.2382  0.1983  0.0752
22197W        W37328   1.637   2.821   2.967 -0.2217  0.1475 -0.1623
22198W        W37329   4.347  14.758  15.903 -0.0446  0.1675 -0.0102
22199W        W37330  15.413  10.624   3.772 -0.1415 -0.2226 -0.3282
22200W        W37331  13.634  16.285   1.671 -0.2126  0.0040  0.0217
22201W        W37332  14.029  10.926   5.470  0.0053 -0.1826 -0.2177
22202W        W37333  16.115   9.175  16.024  0.0913 -0.3650 -0.0714
22203W        W37334  16.349   2.605   4.076 -0.2028 -0.1196  0.1664
22204W        W37335  15.522   9.451  10.944  0.0460  0.0762 -0.1671
22205W        W37336  17.820   4.422  12.311 -0.1346 -0.0257  0.1110
22206W        W37337   2.756   9.925  12.063  0.1583  0.2293 -0.1575
22207W        W37338  15.300   3.712   3.860 -0.1032 -0.0775 -0.0409
22208W        W37339  10.697  14.993   3.205  0.0933 -0.0681  0.0313
22209W        W37340   8.070  12.787  14.675 -0.2564 -0.0362 -0.1443
22210W        W37341  18.066   6.106   5.498  0.2379  0.0801  0.0488
22211W        W37342   2.498  16.108  14.130 -0.1243 -0.0951 -0.2169
22212W        W37343  15.009  14.635  10.897  0.0905  0.2446  0.1959
22213W        W37344  16.011   9.681   2.150 -0.1275 -0.1055  0.3634
22214W        W37345  11.382   3.565  11.141 -0.4232 -0.0055 -0.0373
22215W        W37346   1.493   1.470   1.383 -0.0672  0.1837  0.0498
22216W        W37347  15.638  17.958  11.395  0.1157 -0.0859  0.1725
22217W        W37348  16.846  14.856   3.015  0.1499 -0.0817  0.2720
22218W        W37349   8.993   3.778  14.382 -0.1849  0.2912  0.2468
22219W        W37350  16.830   2.375  15.723 -0.1935  0.0360  0.0401
22220W        W37351  14.856   1.975   2.242  0.0681 -0.2729  0.2297
22221W        W37352  15.468   2.710   2.809 -0.2159 -0.3040  0.1474
22222W        W37353  12.363   0.413   2.577 -0.1344  0.0234  0.2112
22223W        W37354  12.261   0.595  14.617  0.0374 -0.1312 -0.0632
22224W        W37355  10.728  15.640  12.958  0.2360  0.0120  0.0491
22225W        W37356   4.108  12.643   0.961  0.1232  0.0156  0.0689
22226W        W37357   7.619   2.406   0.907  0.0530  0.1331  0.0552
22227W        W37358  15.204  11.258  16.384 -0.1987  0.0488 -0.0077
22228W        W37359  16.949  17.430  15.688 -0.0620  0.1890 -0.3819
22229W        W37360   6.439  15.170   4.492  0.1678  0.2656 -0.1530
22230W        W37361   8.479   5.754   1.894  0.2260 -0.1743  0.0875
22231W        W37362   2.568   1.663   2.416 -0.3239  0.3487 -0.0385
22232W        W37363   4.911   2.719  13.218 -0.1661  0.0147 -0.0966
22233W        W37364  11.647  17.684  10.624 -0.1545 -0.3960  0.0053
22234W        W37365  16.889  16.627  14.613 -0.1194  0.1611  0.1400
22235W        W37366  12.481  13.755   2.512  0.0150  0.1654 -0.1419
22236W        W37367  10.093  15.979  12.733  0.1006 -0.2088 -0.0838
22237W        W37368  15.971   6.551   0.265 -0.4547  0.0714 -0.0702
22238W        W37369  17.689   9.731  14.536  0.0727  0.1273  0.0212
22239W        W37370   7.677   7.222  14.857 -0.1832  0.1468  0.1044
22240W        W37371  12.198  11.997  14.731 -0.2500  0.1553  0.1110
22241W        W37372  11.860   7.015  10.377  0.3828  0.0358  0.1863
22242W        W37373  17.238   3.940  16.371  0.0615 -0.3325 -0.2519
22243W        W37374  17.870  15.249   2.110 -0.1591  0.3562 -0.1140
22244W        W37375   2.687  10.219   0.284  0.0473  0.0113  0.3656
22245W        W37376  16.039  17.693  12.678 -0.1602 -0.0569 -0.0060
22246W        W37377  10.732  11.282   4.687 -0.2475 -0.1021  0.1146
22247W        W37378  10.978   8.420   5.876  0.1002 -0.0390 -0.3044
22248W        W37379  14.338   8.063  13.521  0.0875  0.2241  0.0334
22249W        W37380   7.698  15.979  11.173  0.0808 -0.2949  0.0975
22250W        W37381   8.346  13.563   0.867 -0.0962 -0.4933  0.0136
22251W        W37382  11.671   2.677   1.305 -0.1677 -0.0300  0.0618
22252W        W37383   3.859   3.614  13.671 -0.0216  0.0695  0.2691
22253W        W37384  11.070   8.009   5.564 -0.0558 -0.0452 -0.0555
22254W        W37385  10.816   9.407  10.874  0.1661 -0.0050  0.2071
22255W        W37386  12.429  17.032  14.663 -0.0385  0.3553  0.3304
22256W        W37387  10.064   1.075  16.361  0.1480 -0.0265 -0.0732
22257W        W37388   0.822  11.053  13.581 -0.0685 -0.3068  0.2043
22258W        W37389  14.006  16.969  13.129 -0.0795  0.0516 -0.3173
22259W        W37390   3.328  10.832   0.617  0.4559 -0.2672  0.0002
22260W        W37391  18.087   4.057  12.002 -0.3178  0.0315  0.0364
22261W        W37392   3.519  17.045  13.191 -0.3205  0.0366  0.2178
22262W        W37393   2.527   6.669  12.963  0.0887  0.0543 -0.1283
22263W        W37394   5.131   0.684   4.649 -0.0205  0.1209  0.1057
22264W        W37395   5.088   7.444  13.680 -0.0217 -0.0451  0.2382
22265W        W37396   8.623  13.263   2.737  0.3305 -0.0526 -0.0017
22266W        W37397  13.517   0.927  12.861  0.1645  0.4921 -0.0043
22267W        W37398   1.107   4.452  11.782  0.0615 -0.0536 -0.3098
22268W        W37399   1.427   5.178  11.919 -0.0111  0.1768  0.1645
22269W        W37400  16.107  12.165   0.956 -0.1952 -0.1058  0.2758
22270W        W37401  10.433   6.642   1.572 -0.1181 -0.2137  0.2653
22271W        W37402   4.663   9.439   4.711 -0.1957 -0.2771  0.1977
22272W        W37403   5.244   2.965  14.480 -0.1381  0.0387  0.1264
22273W        W37404  17.711  11.975  15.608 -0.1026  0.3752  0.0264
22274W        W37405   8.318  15.390   1.725 -0.0831 -0.1155  0.2827
22275W        W37406  10.728   2.627   2.739  0.0117  0.0593 -0.1050
22276W        W37407  17.948   2.297   4.140 -0.1760  0.0949 -0.0479
22277W        W37408   8.368   1.937   0.717  0.2249  0.0739  0.3343
22278W        W37409   3.029   3.447   0.150 -0.4714 -0.2712 -0.0147
22279W        W37410  10.884   7.788  16.354 -0.0123  0.1201 -0.0522
22280W        W37411  15.741  11.952  15.345  0.0562  0.2199 -0.0934
22281W        W37412   9.349   1.288  11.919  0.3482  0.2471  0.0697
22282W        W37413   8.138  17.107  11.793  0.2105 -0.1221 -0.0459
22283W        W37414   9.275  10.071  14.592 -0.0613 -0.0326 -0.1085
22284W        W37415   6.181  15.922   3.991 -0.0808  0.1416 -0.1128
22285W        W37416   6.125   3.293  14.441 -0.0456 -0.0141 -0.0426
22286W        W37417   3.820  14.022  14.916  0.1316  0.0332 -0.1424
22287W        W37418   2.827   0.342  14.209  0.1430  0.3147 -0.0145
22288W        W37419   2.367   9.100   2.118  0.3654  0.0273  0.0298
22289W        W37420   1.043   7.580  13.461 -0.3274  0.1148  0.3339
22290W        W37421   2.234   7.814   1.624  0.3034 -0.0276 -0.0862
22291W        W37422   6.464   9.048  15.588 -0.0835 -0.1542  0.1404
22292W        W37423   6.531  16.167  13.659 -0.3029 -0.0305 -0.0212
22293W        W37424   4.499   0.367  13.211  0.1332 -0.0619 -0.0897
22294W        W37425   5.701  11.408   2.348  0.0442  0.3283  0.0235
22295W        W37426   2.084   2.205   0.565 -0.2385  0.0646  0.0125
22296W        W37427  15.498  13.883   5.149 -0.0080 -0.0458  0.0900
22297W        W37428  14.258   0.802   2.339 -0.0637  0.0932 -0.0136
22298W        W37429   3.807  15.061  15.063  0.1077 -0.0681  0.1526
22299W        W37430  12.967  14.270   2.981 -0.1751  0.3556 -0.3357
22300W        W37431   4.717   1.079   3.387 -0.0983  0.4092 -0.0711
22301W        W37432   7.748  16.414  13.147  0.0575  0.1455 -0.1382
22302W        W37433  11.976  14.458   2.734  0.1739  0.0944 -0.1071
22303W        W37434  17.612  10.611  13.563  0.0132 -0.0501 -0.2999
22304W        W37435  13.305   5.205   5.450  0.1977 -0.0285  0.0197
22305W        W37436   5.452  17.936   5.864  0.2349 -0.0899 -0.1827
22306W        W37437   9.635  14.031   4.195  0.0274  0.0324 -0.3294
22307W        W37438   2.223   3.191  11.667  0.0080  0.2482 -0.0885
22308W        W37439   0.268  10.343   0.933  0.1319  0.1770  0.1600
22309W        W37440  17.152  13.738  13.618  0.3013  0.0127 -0.0131
22310W        W37441  10.636  15.403   0.592 -0.3130 -0.2208  0.2425
22311W        W37442   8.337  10.851  13.901  0.2145 -0.0957  0.1011
22312W        W37443  15.459  16.692  11.923  0.2678 -0.1972 -0.1102
22313W        W37444  17.622  12.317   3.985 -0.0374 -0.0850  0.4707
22314W        W37445  10.937   0.891  15.974 -0.1980  0.1892 -0.2960
22315W        W37446   6.539   9.782  13.481  0.0685 -0.1685  0.1135
22316W        W37447  12.861  15.058  11.326 -0.0776  0.0272  0.1431
22317W        W37448   3.951  17.201   5.010 -0.2712  0.1936 -0.0930
22318W        W37449   8.670   4.737  13.343  0.1509 -0.0265 -0.1973
22319W        W37450  16.236  16.559  13.592 -0.0216  0.2071 -0.0913
22320W        W37451   5.664   7.331  11.473 -0.2764  0.3118 -0.3477
22321W        W37452  10.832  10.313   3.736 -0.0215 -0.1843 -0.0627
22322W        W37453  14.903   5.795  15.536 -0.0691  0.0105 -0.0899
22323W        W37454   6.501  16.635   4.684 -0.1468  0.0594  0.2154
22324W        W37455   4.539   1.416   2.998  0.2423 -0.0693  0.0651
22325W        W37456  17.685  15.161   4.757 -0.2413 -0.1698 -0.1313
22326W        W37457   9.184   9.122  14.046 -0.0800 -0.0103 -0.3208
22327W        W37458   9.293   3.312   5.698  0.2036 -0.0523 -0.3293
22328W        W37459   4.199  17.687   3.524 -0.1669 -0.1015 -0.0903
22329W        W37460   0.201  12.995  11.720 -0.4353  0.0368 -0.3410
22330W        W37461  17.072  10.645  14.707 -0.2422 -0.1053 -0.0212
22331W        W37462  10.090  12.946  15.838 -0.0811  0.0702 -0.0686
22332W        W37463  11.635  10.403  15.401  0.0350  0.1154 -0.0699
22333W        W37464   8.278   4.293   0.425 -0.1761 -0.3304 -0.0333
22334W        W37465  17.738   5.500   4.476  0.2902 -0.1297  0.1358
22335W        W37466   7.554  15.360  16.346  0.0287  0.1183 -0.1337
22336W        W37467   0.664   9.419   1.745 -0.0763 -0.1223 -0.0149
22337W        W37468  17.391   9.179  11.405  0.2241  0.3706  0.1709
22338W        W37469   9.847  14.076   2.192 -0.1213  0.2310 -0.3564
22339W        W37470   3.870   3.439   2.598 -0.2085 -0.0609 -0.2956
22340W        W37471  15.617  14.756   1.334  0.5550 -0.0301 -0.0668
22341W        W37472  15.697   4.288  11.788  0.2321 -0.0455 -0.0062
22342W        W37473  14.905  10.266  14.447 -0.1616 -0.0721  0.1761
22343W        W37474  16.061  11.954   3.847 -0.1168 -0.0780 -0.2295
22344W        W37475  16.946  15.845  16.078  0.1532 -0.1417  0.0001
22345W        W37476   9.410  10.348   5.304  0.0339 -0.3496  0.2471
22346W        W37477   3.873   6.019  15.005  0.1914  0.2190  0.3097
22347W        W37478  12.611   0.503  13.257  0.0801 -0.1066  0.0429
22348W        W37479   8.167  15.183  15.363 -0.1910 -0.1253 -0.1760
22349W        W37480   7.899   6.638  11.373 -0.2627  0.0834 -0.1490
22350W        W37481  13.830   7.502  14.937 -0.1745 -0.2129 -0.0523
22351W        W37482  12.049   7.636   4.549  0.0299  0.1089 -0.1434
22352W        W37483   8.415   9.122   2.939 -0.1336  0.0502  0.0023
22353W        W37484   3.671   8.789   1.101 -0.2393 -0.0233  0.1193
22354W        W37485   9.858   3.028  11.889  0.1947  0.3896 -0.0758
22355W        W37486   6.617   1.201  12.395 -0.0731 -0.0073  0.0492
22356W        W37487   0.526   2.779  12.007 -0.3096  0.0487  0.0055
22357W        W37488   4.013  11.565  13.050  0.3698 -0.1002  0.1399
22358W        W37489  14.850  11.839  13.090 -0.0597 -0.2555 -0.3031
22359W        W37490  11.592   7.760   4.454 -0.2001  0.1684 -0.0318
22360W        W37491   3.549  10.590   4.029 -0.0515 -0.1700 -0.1822
22361W        W37492   7.784  16.210  14.588  0.0619 -0.1814 -0.0146
22362W        W37493  12.379   0.562  13.766  0.1059  0.1995  0.0088
22363W        W37494   5.578   2.060  13.543 -0.0293 -0.1844  0.2557
22364W        W37495   9.206   4.545  11.323  0.2408 -0.1015  0.2348
22365W        W37496   4.690   5.575   3.935 -0.2289 -0.4173  0.3153
22366W        W37497  16.861  15.348  13.008 -0.1580  0.0069 -0.1143
22367W        W37498  14.548  11.581   4.301  0.2457 -0.2174 -0.1371
22368W        W37499  11.762  17.946  16.009  0.1712 -0.1575 -0.0064
22369W        W37500   8.968   0.585  14.249 -0.0653  0.3160  0.0748
22370W        W37501  12.917   9.838  13.804 -0.4083  0.2255  0.1853
22371W        W37502  16.088   3.615   1.875 -0.1152  0.1012 -0.0016
22372W        W37503  17.461  17.377  10.803 -0.2367  0.0139  0.1594
22373W        W37504   9.330  16.596   4.936  0.2850  0.1108  0.1413
22374W        W37505   2.801  13.058   1.703 -0.2378 -0.0753  0.2001
22375W        W37506  13.196   0.329   3.125  0.2017 -0.0444  0.3964
22376W        W37507  12.863   9.595   4.907  0.0041  0.2310 -0.0928
22377W        W37508   7.541  13.586  16.264  0.1177  0.0000 -0.0181
22378W        W37509   0.184   4.531  11.912 -0.4714 -0.0470  0.0034
22379W        W37510   4.430  15.042  13.277  0.0994 -0.1491  0.1083
22380W        W37511  17.524  12.071   0.921 -0.0095 -0.1071 -0.0962
22381W        W37512  10.626   6.260  15.084  0.1012 -0.2219 -0.0355
22382W        W37513  13.938  17.921  16.011 -0.1129 -0.2913  0.1501
22383W        W37514   5.045   7.074  15.429  0.1713 -0.2878 -0.2892
22384W        W37515  12.554   0.966   2.903 -0.1950 -0.1198 -0.0237
22385W        W37516  17.775   2.481  11.899  0.1687 -0.1677  0.1428
22386W        W37517   1.394  12.628  16.215  0.4401  0.0327 -0.1519
22387W        W37518   1.133  13.350  14.522  0.0179 -0.0522  0.1443
22388W        W37519   8.458   0.844   5.134 -0.1829 -0.3346  0.0833
22389W        W37520  15.664  14.104  14.947 -0.0834 -0.0291  0.1778
22390W        W37521   0.100  11.107   4.941  0.0559 -0.1551 -0.2593
22391W        W37522   1.399  17.917  16.111 -0.0311  0.0267 -0.1515
22392W        W37523   8.762  14.693   2.705  0.1881  0.1004  0.0415
22393W        W37524  15.311   6.915  13.188 -0.0969 -0.3228  0.1532
22394W        W37525   2.240  14.866   2.442 -0.0733 -0.3140  0.0965
22395W        W37526  17.800  15.447   4.323 -0.1710 -0.2259 -0.2438
22396W        W37527  11.847  14.374  12.085  0.2388  0.0877 -0.0565
22397W        W37528  16.746  11.085   4.750 -0.3602 -0.0648  0.2045
22398W        W37529   3.612   3.613   0.140 -0.0371 -0.2094 -0.2446
22399W        W37530  13.840  11.837  13.147  0.0010  0.0911 -0.0859
22400W        W37531  16.521  12.054  16.063 -0.2497  0.1729 -0.2151
22401W        W37532   6.508   2.779   0.099  0.3328  0.2512  0.3573
22402W        W37533  13.779   9.505   4.859  0.2687 -0.0156  0.1916
22403W        W37534   6.126  14.981  14.815  0.0278 -0.0970 -0.0646
22404W        W37535  17.930  14.666  14.814  0.1056 -0.0256 -0.4416
22405W        W37536  14.194  16.970  13.776 -0.1013  0.0516  0.1330
22406W        W37537  13.884   6.574   4.300 -0.0398  0.0479 -0.0217
22407W        W37538   5.738   9.247  12.916  0.2394  0.1456  0.1030
22408W        W37539   4.370  15.140   4.482  0.1243  0.1863  0.6303
22409W        W37540  12.229   4.852   1.780 -0.0347  0.1452  0.0333
22410W        W37541   8.846   5.950   4.775  0.1175  0.1164 -0.0507
22411W        W37542  13.802  12.247  14.258  0.2529  0.1151 -0.2461
22412W        W37543  14.628  16.839  13.095 -0.4097 -0.0986 -0.0702
22413W        W37544  11.662   6.054   0.028 -0.0419  0.1052 -0.0590
22414W        W37545  16.931  14.365   4.111 -0.1342  0.2068  0.0053
22415W        W37546   5.143  11.708  15.203  0.0042 -0.3520 -0.3881
22416W        W37547   9.385   7.329  14.455  0.1646 -0.0948  0.1975
22417W        W37548   2.591  15.472   4.983 -0.1792  0.0340 -0.2658
22418W        W37549  15.111  11.334  13.237  0.0172 -0.1598  0.3174
22419W        W37550  12.120   1.534  11.943  0.1561 -0.0848 -0.0677
22420W        W37551   1.307  16.826   3.588  0.1441 -0.0691  0.2962
22421W        W37552  12.559   9.986  15.268  0.0037  0.2055 -0.1606
22422W        W37553  13.977  11.618   4.340 -0.1485  0.1248  0.2035
22423W        W37554   3.519  11.313  11.462  0.2183 -0.0834  0.0495
22424W        W37555  13.715  16.714  11.687 -0.0236 -0.1642 -0.1227
22425W        W37556  16.261   4.002  12.884 -0.1364  0.4048 -0.0486
22426W        W37557  12.631   4.971  13.562  0.3179  0.2147 -0.1822
22427W        W37558   9.267  12.741  14.034 -0.2987  0.1054 -0.0736
22428W        W37559   9.049   2.823   5.673  0.2259  0.0797 -0.0891
22429W        W37560  11.815   9.380  13.850  0.1907  0.0926 -0.0704
22430W        W37561   0.550   6.895   5.549 -0.2224  0.3278 -0.1480
22431W        W37562   8.499   3.536  12.562 -0.0951 -0.0800 -0.3024
22432W        W37563   2.628  11.473   1.694  0.1231 -0.0481 -0.1082
22433W        W37564  16.982  12.990   0.521 -0.2935 -0.1158 -0.1042
22434W        W37565   2.412   6.987   5.456 -0.2215 -0.0707  0.0570
22435W        W37566   9.116  11.764  15.030  0.0082  0.0035 -0.0413
22436W        W37567  13.825  14.755   0.253 -0.2254  0.1168 -0.2256
22437W        W37568   3.139   7.384   4.888  0.2730 -0.1865  0.0513
22438W        W37569   7.316   3.278   1.370  0.3309  0.2655  0.3410
22439W        W37570   0.319  16.123  12.386 -0.1816 -0.1104  0.0476
22440W        W37571   4.291   2.498   1.556 -0.0183 -0.2156 -0.1538
22441W        W37572   6.926  13.681   2.944  0.0282  0.2242 -0.0057
22442W        W37573  11.750   7.617  16.140  0.3036  0.1501 -0.0122
22443W        W37574   5.789   3.617  14.066 -0.1695  0.2993  0.0331
22444W        W37575  16.011   2.777   1.606 -0.1461 -0.0464 -0.0687
22445W        W37576  16.361  15.486   6.020  0.1046 -0.0817  0.1647
22446W        W37577  11.306   7.000   2.993 -0.1713 -0.0351 -0.3107
22447W        W37578  12.644   7.043  15.913  0.1519  0.1325  0.4238
22448W        W37579   3.328   4.151   1.263 -0.0118  0.3077  0.1291
22449W        W37580   7.084  10.470  13.636  0.0664 -0.1213  0.1352
22450W        W37581  16.686   5.429  11.209 -0.1083 -0.0992  0.1255
22451W        W37582  16.692  10.183   3.618 -0.1275  0.3477 -0.0252
22452W        W37583   6.350  11.879   4.970 -0.2071 -0.1053  0.0609
22453W        W37584   9.585  16.902  14.767  0.0662  0.3078  0.3644
22454W        W37585  13.706   5.308   5.180  0.0539  0.1788 -0.3885
22455W        W37586  11.101  12.663  14.161 -0.0154 -0.2324  0.3843
22456W        W37587   4.199  16.432   2.087 -0.0396 -0.2063  0.0505
22457W        W37588   4.607   6.992   3.874 -0.0083 -0.1090  0.2222
22458W        W37589   8.699  11.177  11.756 -0.0770 -0.1172 -0.2741
22459W        W37590   4.278   8.630  16.161 -0.2734  0.1672  0.2468
22460W        W37591   3.451  17.159  11.676  0.3568 -0.3695 -0.1235
22461W        W37592   9.836   4.752  14.803 -0.2903  0.0952  0.0837
22462W        W37593   3.895   2.836   1.443 -0.0909  0.0920  0.0928
22463W        W37594  11.896   9.917   2.805 -0.1010  0.1048  0.1568
22464W        W37595  12.078  13.583  13.103  0.2198  0.1511  0.0867
22465W        W37596   2.796  15.156   5.363  0.3384 -0.0070 -0.1836
22466W        W37597  17.768   8.792   4.411 -0.3030 -0.3770  0.0732
22467W        W37598   6.890   7.277   2.246  0.0075 -0.1444  0.2008
22468W        W37599   2.326  12.936   1.574  0.1676  0.1599  0.2717
22469W        W37600   4.503   8.476  10.717  0.1598 -0.1444 -0.0822
22470W        W37601   1.904  15.039   3.191  0.1093 -0.2992  0.1837
22471W        W37602   8.784   1.124  15.666 -0.2353 -0.1414  0.1217
22472W        W37603  16.742   5.541   5.279 -0.2693 -0.2049  0.0376
22473W        W37604  14.470   2.934  13.981  0.3775  0.3348  0.4311
22474W        W37605  11.855   2.892   1.994 -0.1714  0.0317  0.1458
22475W        W37606   0.492  16.457  13.039  0.0364  0.1581 -0.0171
22476W        W37607   5.937   4.179   1.815 -0.3473  0.1106 -0.1839
22477W        W37608  16.978   1.510  11.316  0.1337  0.0735  0.0478
22478W        W37609   7.229   3.563   0.852 -0.4233 -0.0660  0.3675
22479W        W37610   4.265   8.885  11.714 -0.2541  0.0852  0.0533
22480W        W37611   3.569   4.910  11.711 -0.1267 -0.2989  0.0697
22481W        W37612  17.469   5.752  15.618  0.1646  0.1922  0.0457
22482W        W37613   1.546   4.729  12.050 -0.0746 -0.0140 -0.1188
22483W        W37614   0.685   2.072  12.668  0.1748 -0.1162 -0.1455
22484W        W37615   5.362   8.685   2.057 -0.0748 -0.0185  0.3936
22485W        W37616  13.799   6.209  14.299 -0.0325 -0.2127  0.0841
22486W        W37617  10.374  17.365  11.217  0.0339 -0.0813  0.1495
22487W        W37618  13.459  15.776   3.837  0.0753  0.0122  0.1602
22488W        W37619   5.329  14.161   1.591 -0.1695  0.3197  0.0354
22489W        W37620   8.569   5.023  15.183  0.2276  0.2813  0.0446
22490W        W37621  10.203   2.708  12.777 -0.0441  0.1542 -0.5357
22491W        W37622  17.274  14.720   5.447 -0.0407 -0.0046 -0.0415
22492W        W37623  16.410  11.186  11.769  0.1433 -0.2598 -0.2139
22493W        W37624   3.891   6.861   0.592 -0.0619 -0.1205 -0.1336
22494W        W37625   5.156   6.725   4.331  0.2211  0.0799  0.1318
22495W        W37626  14.568   7.206   0.651  0.0793  0.2343 -0.0799
22496W        W37627   7.384  13.930  15.223 -0.2230 -0.2455  0.3507
22497W        W37628   6.742   1.370  13.908  0.1715  0.1613 -0.1602
22498W        W37629   0.290   1.541  15.463 -0.0737  0.2439  0.1078
22499W        W37630  10.213   2.924   1.440  0.0938  0.1366  0.2760
22500W        W37631  14.433   9.987  12.132 -0.0433 -0.0805  0.0165
22501W        W37632   0.457  16.408   0.378 -0.1582  0.0362 -0.2857
22502W        W37633   2.280  15.270  14.587 -0.2287  0.1650 -0.2978
22503W        W37634  10.289   4.485  14.931 -0.3123 -0.1268 -0.0225
22504W        W37635   6.246   1.471  15.102 -0.0369  0.1191  0.1543
22505W        W37636   3.723  14.154  10.318 -0.0233 -0.1382  0.0337
22506W        W37637   5.084  17.485   5.756  0.0488  0.0590  0.0570
22507W        W37638   8.315  13.662   3.095 -0.1091 -0.0311 -0.1539
22508W        W37639   5.529   1.977  10.835 -0.2085  0.0824 -0.1134
22509W        W37640   0.640   6.931   2.840  0.2181  0.0298  0.1864
22510W        W37641   3.201  14.752   0.635  0.0219 -0.1051 -0.0107
22511W        W37642  12.429  17.111   4.529 -0.1442  0.1197  0.0421
22512W        W37643  12.581  17.813  11.778 -0.5204  0.3711 -0.0149
22513W        W37644   7.252   3.461  13.631 -0.1108 -0.1404  0.0881
22514W        W37645   7.484  13.731  14.739 -0.4471  0.0645 -0.0074
22515W        W37646   2.834   1.229   3.683 -0.0877  0.2733  0.0736
22516W        W37647   7.298  11.112   2.156  0.0890 -0.2195 -0.1080
22517W        W37648   6.959   8.363  12.096 -0.0521  0.0860  0.0166
22518W        W37649   2.777   7.935  12.331  0.0236  0.0844  0.0535
22519W        W37650   8.077   1.123   3.701  0.1575  0.2537 -0.0524
22520W        W37651  14.642   4.562   2.805 -0.0433 -0.0071  0.0728
22521W        W37652   0.165  15.349   3.456  0.1161 -0.0898  0.1015
22522W        W37653  10.735  12.038   2.518  0.0338  0.4190  0.1115
22523W        W37654  14.315   1.077  12.613 -0.3874  0.1821  0.0514
22524W        W37655   2.600   8.769   4.978 -0.0193 -0.0265  0.0118
22525W        W37656  12.214   7.863   5.969 -0.1930 -0.0132  0.1148
22526W        W37657  17.167  15.092  11.409  0.1855  0.0349 -0.0365
22527W        W37658   1.827  12.791   1.542 -0.1577  0.1814 -0.1951
22528W        W37659  12.830   4.677   2.494 -0.0923 -0.1238 -0.0428
22529W        W37660   7.004   5.429  14.250 -0.1539 -0.1153  0.2484
22530W        W37661   1.267  13.118  12.515 -0.1174 -0.2201 -0.1264
22531W        W37662  16.740   8.403   4.001  0.0511 -0.0983  0.2859
22532W        W37663   2.906   3.049   1.930 -0.3164  0.1957  0.0898
22533W        W37664  13.386   6.568  15.523  0.1282 -0.1732  0.1656
22534W        W37665   1.410   7.813   2.607  0.0463 -0.3850 -0.1126
22535W        W37666   0.120  13.377  13.790  0.0194 -0.0020 -0.0476
22536W        W37667   9.503   2.291  11.665 -0.2906  0.1175 -0.1939
22537W        W37668   8.040  15.507  16.253 -0.2398 -0.0051 -0.0533
22538W        W37669  14.874  11.658  16.356  0.2284 -0.0391 -0.1247
22539W        W37670   6.680   5.530  12.281 -0.1106 -0.0117 -0.0879
22540W        W37671  15.055   9.817  15.278 -0.3199 -0.2189  0.1826
22541W        W37672  14.725  14.482  15.933 -0.0733 -0.1235  0.0189
22542W        W37673  11.517   9.147  13.519 -0.1352 -0.0099  0.1953
22543W        W37674  11.047   7.372  11.043  0.0297 -0.1815  0.2579
22544W        W37675  12.212  10.293   3.470 -0.3068  0.4927 -0.0705
22545W        W37676  13.073   5.355   4.658  0.3532 -0.5556 -0.1089
22546W        W37677  15.445  13.210   2.268 -0.0850 -0.0578  0.1626
22547W        W37678   0.920  16.527   5.294 -0.0634 -0.0038 -0.1634
22548W        W37679  11.098   8.171  14.580 -0.1778  0.3531  0.0201
22549W        W37680   7.332  17.978  15.680 -0.2132 -0.2515 -0.0822
22550W        W37681  11.575  11.743  10.348  0.0866 -0.2762  0.0889
22551W        W37682   5.123  14.840   3.778 -0.0153 -0.4273 -0.1234
22552W        W37683  12.008  11.205  15.373  0.0373  0.1554  0.1684
22553W        W37684  12.176   0.293  13.419 -0.2772 -0.3544  0.4320
22554W        W37685  10.743   0.628  14.154  0.0386 -0.0088 -0.0915
22555W        W37686   4.398   5.382  11.163  0.1593  0.0371  0.2084
22556W        W37687  10.786  16.381   2.605 -0.2908  0.1261 -0.0888
22557W        W37688   0.657  14.998   5.036 -0.0653  0.0847  0.1669
22558W        W37689  14.293   5.675  10.517 -0.1333 -0.0332  0.2031
22559W        W37690   0.708   2.365  16.347  0.1564 -0.3130  0.0560
22560W        W37691  10.764   0.307   3.355 -0.0494  0.0229  0.0539
22561W        W37692  17.230   3.151   5.575 -0.1082  0.3141 -0.1308
22562W        W37693   8.752  14.065  11.894  0.2141 -0.0227  0.1449
22563W        W37694  11.287  11.651  12.917 -0.2930  0.0302  0.2389
22564W        W37695  11.186   8.837  13.263  0.1145  0.0254 -0.0876
22565W        W37696   9.532  13.853  15.943 -0.0550 -0.0264 -0.1084
22566W        W37697   6.236   7.455   0.401  0.0747  0.0452  0.0338
22567W        W37698  12.263   6.838   3.711 -0.1020 -0.0610  0.2484
22568W        W37699  17.790   1.843   4.217 -0.3563  0.2061 -0.0902
22569W        W37700  12.031   1.992   1.570 -0.3285 -0.0314 -0.1077
22570W        W37701  11.796   4.704  14.845 -0.0148 -0.1151 -0.0726
22571W        W37702  15.105  16.740   1.467  0.0412 -0.0740  0.0040
22572W        W37703   2.449  10.560  10.122  0.0683  0.0528 -0.1282
22573W        W37704  17.369  17.951  11.509  0.1218  0.2903  0.1051
22574W        W37705  11.433  11.397   5.018 -0.2159 -0.0176 -0.1220
22575W        W37706   7.211   3.765  16.323 -0.3291  0.3034  0.0082
22576W        W37707  13.529   6.061  15.413  0.0505  0.0423 -0.0207
22577W        W37708  15.027  14.783   5.340 -0.1383 -0.2884 -0.0846
22578W        W37709   6.122   4.510  10.856 -0.0472 -0.0544 -0.1567
22579W        W37710   3.953   5.597  11.140 -0.2480 -0.0105 -0.1982
22580W        W37711  15.554  13.608   3.442  0.1370  0.1156  0.2463
22581W        W37712  11.938   2.774  16.314 -0.1676  0.0189 -0.0247
22582W        W37713  12.563   9.869   2.125  0.1488 -0.0558 -0.2149
22583W        W37714   0.735  10.039   0.196 -0.2007 -0.0408 -0.2331
22584W        W37715   5.289  12.861  12.003  0.1421  0.2438  0.1278
22585W        W37716   2.929  10.035  11.198 -0.0249  0.0171  0.0612
22586W        W37717  12.746  13.444   0.381  0.1702 -0.1643 -0.3791
22587W        W37718  13.893   5.036   4.086 -0.1416  0.1273 -0.0660
22588W        W37719  12.179  17.475  11.604  0.2378 -0.2561 -0.0839
22589W        W37720  10.509   2.440  14.198 -0.0152  0.0002  0.2329
22590W        W37721  11.041  12.157   3.537 -0.0238 -0.0522  0.2259
22591W        W37722   9.438   5.955   3.715  0.2758 -0.0509  0.1911
22592W        W37723  16.413   2.388   5.591  0.3033 -0.0558  0.4063
22593W        W37724   3.089  14.077   4.906 -0.0877  0.1652 -0.0056
22594W        W37725  14.402  17.502  11.928 -0.2556 -0.0964  0.2283
22595W        W37726  16.496   0.789   3.350  0.4738 -0.1294 -0.0515
22596W        W37727   5.135   9.150   3.711 -0.0459 -0.1480 -0.1669
22597W        W37728  17.563   3.094   2.548 -0.0780 -0.0977 -0.0801
22598W        W37729   4.778   2.377   0.184 -0.0936  0.0988 -0.0815
22599W        W37730   0.953  10.943  14.185  0.2140 -0.1940 -0.1876
22600W        W37731  17.223   1.368  15.684  0.1241 -0.3256  0.2035
22601W        W37732  10.078   8.009  13.078  0.0417  0.1518  0.3521
22602W        W37733   6.984   1.659  15.789 -0.1047 -0.2528  0.2680
22603W        W37734  15.002  11.394   5.586 -0.1278  0.1091 -0.2827
22604W        W37735   4.698  15.629  11.348  0.0084 -0.0454 -0.2189
22605W        W37736  15.104  12.058   5.464  0.1931  0.0672 -0.2470
22606W        W37737   5.719   3.022   3.391  0.2857  0.3132  0.1877
22607W        W37738   8.363   1.995   3.221  0.2647 -0.1205 -0.0874
22608W        W37739   9.295  17.472  11.938  0.0207  0.1023 -0.0348
22609W        W37740  12.410   4.492  12.525  0.1632 -0.0729  0.1443
22610W        W37741   1.750  13.003  15.284  0.1520 -0.2917  0.1381
22611W        W37742   7.380   8.806   4.253 -0.1653  0.1097 -0.2415
22612W        W37743   8.819   3.214   5.338  0.2918  0.1511  0.0203
22613W        W37744   3.907  15.114   5.836 -0.2884  0.3229  0.3080
22614W        W37745   7.513   7.509  10.389 -0.1127 -0.1223 -0.1845
22615W        W37746   1.643   1.715   1.861  0.1317  0.1088  0.0864
22616W        W37747  17.952   1.706  16.254 -0.1713 -0.2098 -0.1213
22617W        W37748   5.546   9.091  15.610 -0.0423 -0.0704  0.0959
22618W        W37749   8.398   2.637   0.145 -0.0444 -0.1358  0.0862
22619W        W37750  14.252  14.141   4.460 -0.2021  0.0724  0.1002
22620W        W37751  13.828  12.230   0.749  0.1337 -0.1078  0.2929
22621W        W37752  11.156  13.872   5.499 -0.1759 -0.3158  0.0211
22622W        W37753  12.712   6.528   3.934  0.0282  0.2590  0.2313
22623W        W37754   4.023  13.858  11.172  0.1178 -0.4188  0.2519
22624W        W37755  18.095   9.075  11.966 -0.1509 -0.0339  0.1701
22625W        W37756   5.308   8.372  10.669 -0.1208 -0.2223  0.2063
22626W        W37757   2.993   3.260  16.026 -0.1594  0.1910  0.1194
22627W        W37758  15.667  12.265   3.823  0.1191 -0.1254 -0.0751
22628W        W37759   2.966  11.070  12.086  0.0210  0.1308  0.0641
22629W        W37760   2.869   5.560   5.258 -0.1713  0.0070 -0.2858
22630W        W37761   7.576  16.696  15.698 -0.1028 -0.0919  0.1518
22631W        W37762  10.198   5.676  12.010  0.1011 -0.0021  0.0295
22632W        W37763   7.911   6.787  11.840 -0.3155 -0.0253 -0.0088
22633W        W37764  17.825   9.381   4.332 -0.0781  0.1524 -0.0022
22634W        W37765   6.587   6.166   2.824 -0.0292  0.2637  0.1391
22635W        W37766   7.432   9.826   1.376 -0.0834  0.1778  0.2575
22636W        W37767   2.471  16.793  15.111 -0.0566 -0.3035  0.1217
22637W        W37768  11.202   1.419  11.151  0.0946  0.0574 -0.0958
22638W        W37769  13.292   1.931   1.293 -0.0551 -0.0939  0.1675
22639W        W37770   3.720  10.008   2.588  0.1603  0.0480 -0.4945
22640W        W37771   4.501   5.989  13.568  0.1790 -0.1473 -0.0599
22641W        W37772  11.897   3.967  13.646  0.1364  0.0991 -0.2597
22642W        W37773   7.260   0.895   2.543 -0.0002  0.1686 -0.2483
22643W        W37774  13.913   8.895   1.080  0.2571  0.1918 -0.1197
22644W        W37775   7.579   4.431   2.021  0.1454 -0.2351  0.0994
22645W        W37776  12.181   1.175  11.572  0.1132  0.0978  0.1514
22646W        W37777   2.758  10.381  14.627 -0.2183 -0.2140  0.2320
22647W        W37778  12.670  10.185   1.240 -0.0054  0.2474 -0.0938
22648W        W37779   8.561   1.121  16.096  0.1855  0.2176  0.1336
22649W        W37780   7.229  14.533   4.201 -0.1350  0.2557  0.2249
22650W        W37781  12.452  15.749   3.458 -0.2603  0.1464 -0.0670
22651W        W37782   9.281  17.575   3.550 -0.0962 -0.2977  0.1030
22652W        W37783   2.143  17.287   4.533  0.0650  0.1214 -0.3950
22653W        W37784   9.167  14.702   4.909  0.0552  0.0542 -0.1184
22654W        W37785   0.720  10.066  14.335  0.2691 -0.1834  0.1424
22655W        W37786  15.451  16.738   4.969  0.1851  0.0840 -0.1483
22656W        W37787  11.870  13.633   4.073 -0.0793 -0.0831 -0.0704
22657W        W37788   9.624  11.994   1.106 -0.0106  0.0782 -0.1978
22658W        W37789   4.838   4.188  15.751 -0.1931  0.0490 -0.2202
22659W        W37790  11.557  12.397  16.415 -0.0377  0.0213  0.1884
22660W        W37791   6.859  15.609   3.266  0.1222 -0.1486  0.1783
22661W        W37792   7.865  14.499   0.854  0.0465 -0.2367 -0.0038
22662W        W37793  17.881  15.959  14.174  0.1007  0.0657 -0.1573
22663W        W37794  13.368  16.016  15.465  0.0744  0.0928  0.0843
22664W        W37795  11.861   7.939  12.181 -0.1201  0.2970  0.0724
22665W        W37796  12.915  17.917   0.357  0.1307  0.2495  0.2398
22666W        W37797   9.234   6.722   4.335 -0.2486  0.0902  0.0162
22667W        W37798  12.908   0.372  14.615 -0.1453 -0.0838  0.0330
22668W        W37799   5.386  15.964   5.212  0.2044 -0.0060  0.1700
22669W        W37800  13.342   8.243   2.340 -0.0493 -0.0119 -0.0770
22670W        W37801   6.112   0.192   1.171 -0.5711  0.1470 -0.0154
22671W        W37802  14.406   9.171   4.508  0.0348  0.0444 -0.2444
22672W        W37803   9.292   0.816   0.956 -0.2468  0.2400  0.2174
22673W        W37804  16.553  11.672  11.498 -0.2857 -0.1707 -0.0630
22674W        W37805  14.245  15.281  14.018  0.2991  0.1652  0.2864
22675W        W37806  12.586  15.985  11.800  0.1094 -0.2096 -0.2476
22676W        W37807  16.979  15.861   5.543  0.1253  0.0052  0.2531
22677W        W37808   4.342  13.071   1.256 -0.0277 -0.1756  0.0390
22678W        W37809  15.078   3.967   1.161  0.0009 -0.3618  0.0918
22679W        W37810  12.482   8.636   3.126  0.1971 -0.3021  0.0634
22680W        W37811   7.149   5.024   4.128 -0.1549 -0.0667  0.1892
22681W        W37812  12.900   8.075  14.458  0.0018 -0.1817 -0.2102
22682W        W37813  17.702  11.404   2.925  0.1648 -0.1669  0.1492
22683W        W37814  10.669  15.905   0.662 -0.1279 -0.1139 -0.1610
22684W        W37815  17.132  13.560   4.283  0.3650  0.1694  0.0679
22685W        W37816  14.696   4.892   1.986  0.3145 -0.0894  0.0854
22686W        W37817   8.589  16.466   3.875  0.1547  0.0930  0.2688
22687W        W37818   9.193   2.643   2.888  0.2176 -0.2992 -0.3102
22688W        W37819   1.937  17.205   0.894 -0.1184  0.0196 -0.0806
22689W        W37820  10.684   2.852  14.940 -0.1012  0.0071  0.0140
22690W        W37821   9.835  16.078  13.623 -0.2159 -0.0725  0.1534
22691W        W37822   5.939  13.465  14.059 -0.1992  0.0341 -0.0248
22692W        W37823   5.022  16.583   0.003  0.1005 -0.0789 -0.0424
22693W        W37824   4.713   1.843   5.240 -0.0380 -0.0685 -0.1416
22694W        W37825  12.677   2.673   2.399 -0.0937  0.3010  0.1613
22695W        W37826   2.633   5.371   2.529  0.1173 -0.1980 -0.1321
22696W        W37827   8.738   1.204  13.215  0.0318  0.0222  0.0296
22697W        W37828   9.197   7.852   3.486 -0.1228 -0.2849 -0.3612
22698W        W37829   9.473  17.644   2.650 -0.0268  0.0560  0.1586
22699W        W37830  17.667   7.579  13.817  0.0451  0.2885 -0.0901
22700W        W37831   6.209  10.074   4.124 -0.1230  0.1491  0.1680
22701W        W37832  12.463   2.367  16.422  0.1358  0.3634 -0.2824
22702W        W37833   3.771   5.164  13.980  0.5739  0.0839  0.0069
22703W        W37834   0.299   3.828  15.725  0.1856 -0.1006  0.2524
22704W        W37835   2.243  14.908   1.150  0.2732 -0.0744  0.0245
22705W        W37836  17.737   3.165  16.364  0.2583 -0.0975 -0.2918
22706W        W37837   0.440   5.729  12.285  0.0092  0.0606 -0.1372
22707W        W37838   3.349  12.522   3.335 -0.3160  0.1379 -0.2245
22708W        W37839  17.031   4.230  16.064  0.1042  0.1213  0.0546
22709W        W37840   1.833  17.952   1.549  0.0542  0.1044 -0.0285
22710W        W37841   1.237  16.059  16.007 -0.2856  0.1422  0.2809
22711W        W37842   1.898  17.820  12.063  0.0496  0.1424 -0.0739
22712W        W37843  12.427   3.774  15.422  0.2104  0.0292 -0.1038
22713W        W37844  13.412   2.790  11.160 -0.0102 -0.3006  0.0818
22714W        W37845  13.210   4.689  11.141 -0.0545  0.0294 -0.1827
22715W        W37846   1.432   7.788   1.329 -0.1777 -0.0953  0.1331
22716W        W37847  14.901   8.090   5.250 -0.1843  0.0436 -0.4805
22717W        W37848   9.928   7.197   2.120  0.2384 -0.1663 -0.1664
22718W        W37849  16.031  17.867   4.395 -0.1927  0.0539 -0.1350
22719W        W37850   4.609   3.840   6.000  0.1844  0.1525 -0.1799
22720W        W37851  15.649  10.653   4.775  0.2380 -0.0386 -0.2449
22721W        W37852   7.738   5.291   2.279 -0.1062  0.1895  0.1788
22722W        W37853  12.119   6.947  11.265  0.1205 -0.0242 -0.2384
22723W        W37854  13.344   4.362   0.891 -0.0598 -0.0409  0.0362
22724W        W37855  17.098  15.820  15.093 -0.1394  0.1202  0.1663
22725W        W37856  17.462  14.703  12.121 -0.1173  0.1466  0.1882
22726W        W37857   4.178   6.995   4.093 -0.2449 -0.0750  0.1476
22727W        W37858   7.224   0.095   1.815 -0.3807 -0.0078 -0.1733
22728W        W37859  13.706  15.133  13.773 -0.0798 -0.1538 -0.0255
22729W        W37860   2.962   1.571   1.005 -0.1500  0.2112  0.3097
22730W        W37861   2.276  16.422   2.223  0.1895  0.1054  0.2756
22731W        W37862   5.983  12.116   5.323 -0.3409  0.0892  0.0983
22732W        W37863  12.831  10.233   4.377  0.0886  0.0694 -0.0542
22733W        W37864  14.858  15.196   4.398 -0.2079 -0.0499 -0.1572
22734W        W37865  14.644   7.008  15.988  0.3017  0.0017 -0.0404
22735W        W37866   1.353   0.869  11.283  0.1141  0.3220  0.2608
22736W        W37867  14.873   4.397  14.860 -0.0934  0.0302  0.1863
22737W        W37868  13.256  14.007  15.220 -0.0734 -0.0053  0.1796
22738W        W37869   6.546  13.656   3.280  0.2599  0.0100  0.0072
22739W        W37870  12.400   2.180  15.124  0.1282 -0.0068  0.1582
22740W        W37871   5.697   3.621   0.845 -0.2779  0.1369  0.1867
22741W        W37872  17.467   0.554   2.408 -0.1417 -0.2398  0.4874
22742W        W37873   9.185   2.857   0.815  0.0792 -0.3970  0.0967
22743W        W37874   8.456   6.824  12.872  0.0690 -0.0508  0.1267
22744W        W37875   5.754  11.420   0.456  0.0380  0.1936  0.0433
22745W        W37876   4.923  13.398  13.958 -0.2002  0.3103  0.0864
22746W        W37877  11.444   7.112  13.913  0.3425  0.0112  0.2509
22747W        W37878   6.194   6.005  11.952 -0.2249 -0.1488  0.3984
22748W        W37879   6.638   6.354   0.122  0.0930  0.0270 -0.0601
22749W        W37880  10.849  16.865   4.975  0.0796 -0.0398 -0.1691
22750W        W37881  17.226  11.802  13.753 -0.0878  0.1649 -0.3495
22751W        W37882  15.546  16.194   1.659  0.0466 -0.4700 -0.1633
22752W        W37883   0.489  16.593  12.470  0.0441 -0.1527  0.1141
22753W        W37884  13.932  17.814  12.590  0.2451  0.1921  0.1890
22754W        W37885  10.458  11.450  11.570  0.0829  0.1137 -0.2295
22755W        W37886   0.940  14.164  11.984  0.1498 -0.1670  0.1066
22756W        W37887   2.500  13.401  14.397  0.1399 -0.2270  0.0683
22757W        W37888  15.790   9.134  13.213 -0.0281 -0.1496  0.1411
22758W        W37889  15.281  14.848  15.693 -0.2369  0.4573 -0.1220
22759W        W37890   9.474  11.446   4.067 -0.1604 -0.3179 -0.0070
22760W        W37891  15.594  10.761  15.228 -0.0551  0.4565 -0.1654
22761W        W37892  12.356  15.803   0.038  0.2562 -0.1386  0.1961
22762W        W37893  15.687   4.467   4.061  0.6443 -0.2216  0.0623
22763W        W37894  12.497   6.683  15.544  0.1375  0.2699  0.0535
22764W        W37895  13.952   0.046   1.323 -0.1873 -0.1076 -0.0378
22765W        W37896   3.186   0.939  15.943 -0.2019 -0.1681  0.0488
22766W        W37897   8.481  12.179   4.773 -0.2081 -0.0676 -0.1137
22767W        W37898   1.154   3.400   2.054  0.0839 -0.1231  0.0733
22768W        W37899   5.886  12.870   0.304  0.2381 -0.0834 -0.1464
22769W        W37900   0.264   9.069   1.762  0.0028 -0.1782 -0.2963
22770W        W37901   0.759  17.561  11.664 -0.0062  0.0480  0.2950
22771W        W37902   4.100   7.640   4.180 -0.0067 -0.0518 -0.1748
22772W        W37903   9.413   9.685   4.722 -0.0413  0.2222  0.3006
22773W        W37904  16.482   0.115  13.230  0.1209  0.2611  0.0933
22774W        W37905   4.730   7.320  14.028  0.0912 -0.0512 -0.1773
22775W        W37906  16.375  15.952   1.188 -0.1160 -0.0272 -0.1446
22776W        W37907  16.258  16.823   4.030  0.1396 -0.1514 -0.3045
22777W        W37908   7.714  13.002   0.479  0.3929 -0.0200  0.0418
22778W        W37909   7.592  10.354   2.742 -0.2824 -0.0997  0.0460
22779W        W37910   2.790  11.891  15.991  0.0015  0.0173 -0.0039
22780W        W37911   2.449   1.840   4.111 -0.1207  0.1347  0.1107
22781W        W37912  10.646   3.799  12.435 -0.0453  0.0972  0.2059
22782W        W37913   2.512  16.259   4.659 -0.1285  0.0809  0.2674
22783W        W37914   0.302   9.989  11.430 -0.1596 -0.0065  0.3273
22784W        W37915   6.311  17.796  16.082  0.1387 -0.0504  0.1201
22785W        W37916  16.676   6.577   1.478  0.2743  0.0359 -0.2996
22786W        W37917   1.811   3.807  10.555  0.2826  0.1129 -0.1444
22787W        W37918   1.187   3.074  10.225 -0.0697 -0.1423  0.0665
22788W        W37919   1.358  15.212   0.582 -0.0569 -0.1905 -0.2144
22789W        W37920   8.165  17.368   1.135  0.0318  0.1489  0.2640
22790W        W37921   2.732   3.178  12.898  0.0638  0.1079  0.2345
22791W        W37922   0.534   5.657   6.308  0.1275 -0.0603  0.0229
22792W        W37923   0.176   3.180  12.177 -0.1773  0.1001 -0.0459
22793W        W37924  16.374   1.322  15.434  0.2542 -0.1472  0.2127
22794W        W37925   5.447   8.960  16.289 -0.0425 -0.2293  0.1508
22795W        W37926   2.430   8.922  15.679  0.1436  0.0162  0.0660
22796W        W37927   8.498  11.428  12.136 -0.1130  0.1395  0.1415
22797W        W37928   0.575   1.906  15.993  0.0677  0.1388 -0.0386
22798W        W37929   5.814   1.680  11.091  0.3611  0.1611  0.1252
22799W        W37930  17.816   6.210  16.358 -0.0590 -0.1127  0.1280
22800W        W37931  14.966  11.797   4.513 -0.0957  0.0576  0.1998
22801W        W37932   2.882   5.053   1.773 -0.0980 -0.0262  0.0458
22802W        W37933  16.905  14.226  15.831 -0.0355  0.1433  0.0853
22803W        W37934  15.256   7.254  12.528  0.0197  0.0459  0.1493
22804W        W37935   2.182   8.942  12.115 -0.1371 -0.0621  0.0964
22805W        W37936   4.809   5.071   3.838  0.0782  0.0883  0.0271
22806W        W37937   9.929   9.352   0.263  0.0179  0.2037 -0.0922
22807W        W37938  11.327   4.634  14.721  0.5013  0.0427  0.0831
22808W        W37939  13.543   0.766   1.957 -0.1024 -0.0666 -0.0994
22809W        W37940  12.000   6.995  13.934  0.1851  0.1640  0.0322
22810W        W37941  10.838  13.049   0.095  0.0964  0.1183 -0.0307
22811W        W37942  13.285  12.677   5.609 -0.2745  0.0120 -0.1644
22812W        W37943  12.891  10.291   5.694 -0.2667 -0.0772 -0.0454
22813W        W37944  14.175  16.826  11.398  0.1781 -0.0248  0.0676
22814W        W37945  12.685  14.071  13.743 -0.0726 -0.1651 -0.0350
22815W        W37946   4.472   8.169   0.753  0.0726  0.2116 -0.0160
22816W        W37947  10.185   8.200  13.941 -0.1731  0.1404 -0.3620
22817W        W37948   1.829  15.852   2.785 -0.1313 -0.0343  0.0170
22818W        W37949   3.212  15.698   0.766 -0.1910  0.0438  0.2439
22819W        W37950   6.389   4.547   0.486  0.3347  0.1196  0.0790
22820W        W37951   5.152   0.890   0.755  0.2990  0.0945 -0.2951
22821W        W37952   5.763   5.198   1.731  0.3432 -0.1165 -0.1431
22822W        W37953   8.983   9.860  12.620 -0.1767  0.0906 -0.1291
22823W        W37954  14.714  10.384   4.991  0.2327  0.0060 -0.3153
22824W        W37955   7.648   8.238   4.879  0.0958 -0.1742  0.2356
22825W        W37956  16.970   4.584   0.616 -0.2195 -0.1118  0.2614
22826W        W37957  11.650   4.012  12.609 -0.2291  0.0298 -0.0477
22827W        W37958  17.549  13.824   4.704  0.0742 -0.3133 -0.2369
22828W        W37959  15.352  17.622   1.650 -0.1458  0.0961 -0.0737
22829W        W37960  10.267  17.234   1.036 -0.0534  0.1476 -0.1447
22830W        W37961   2.183  12.271   3.129  0.0545  0.0558  0.4172
22831W        W37962  10.639   6.501   4.691  0.1319  0.1605  0.0707
22832W        W37963  12.962   1.357  12.079  0.0740  0.0613  0.0433
22833W        W37964  13.704   8.784   5.541 -0.0048  0.3876  0.1452
22834W        W37965  14.183   7.134  15.797 -0.2070  0.1249 -0.1977
22835W        W37966   6.528   3.568  14.518 -0.3157  0.0660 -0.1426
22836W        W37967  17.761   2.910  12.827 -0.0810 -0.3343 -0.0921
22837W        W37968   9.421  16.712  11.559 -0.1130  0.1241 -0.0299
22838W        W37969   7.505   9.390  14.389  0.0789  0.1951  0.1745
22839W        W37970  10.280   9.120   2.279 -0.0649 -0.0799 -0.2446
22840W        W37971  11.525  15.958   5.552  0.2163  0.1757  0.2897
22841W        W37972  13.132   5.951  10.874  0.1068 -0.0807 -0.1204
22842W        W37973  15.372  15.205   4.330  0.0548 -0.0151  0.0070
22843W        W37974   0.899   0.658   0.433  0.1746  0.0835 -0.0283
22844W        W37975  12.656  14.093  11.495  0.2342 -0.0628  0.2801
22845W        W37976   0.660   5.448   1.812  0.0421 -0.0234 -0.0608
22846W        W37977  16.825   9.002   5.474  0.0641  0.2263  0.0773
22847W        W37978   5.507  13.835   3.128  0.0217 -0.1133  0.1795
22848W        W37979  15.955  15.230   4.046 -0.1138 -0.2228  0.0655
22849W        W37980   9.482   6.620  15.443 -0.2209  0.0165 -0.0206
22850W        W37981  11.497   5.323  16.165  0.0323  0.2265  0.2342
22851W        W37982   6.526  17.995  13.988  0.0044  0.2904  0.0159
22852W        W37983  13.915  11.039  15.846  0.1174 -0.2779  0.0371
22853W        W37984   5.803   6.283   3.403 -0.1110 -0.1451 -0.1019
22854W        W37985   5.925   3.717  11.208 -0.2966 -0.0089  0.0861
22855W        W37986  15.447  17.652   2.128  0.0592  0.1597  0.3063
22856W        W37987  13.702  17.536  11.040 -0.3108  0.1446  0.2043
22857W        W37988   1.689   6.465  13.779  0.1502 -0.3166 -0.4136
22858W        W37989   0.418   6.135   0.472  0.2361  0.2091  0.3019
22859W        W37990  13.295   7.754   1.005 -0.1512 -0.0680 -0.0563
22860W        W37991   9.295  15.494   5.039 -0.1525  0.1964 -0.2408
22861W        W37992   5.736   3.078  14.104  0.0522  0.0672 -0.0197
22862W        W37993  10.224   9.233  11.516  0.1115 -0.2286 -0.0817
22863W        W37994   8.875  12.969   3.089  0.2627  0.2303  0.1560
22864W        W37995  15.163  12.451   0.527 -0.1877 -0.0396 -0.0653
22865W        W37996   8.453   2.534  15.605 -0.0594 -0.1613  0.2378
22866W        W37997  14.889  10.020  13.339 -0.0315  0.0334  0.0390
22867W        W37998  17.269  16.323   4.639 -0.0461  0.0723 -0.1372
22868W        W37999   4.270   0.158  15.400  0.1097 -0.1079  0.1899
22869W        W38000  12.336   2.914   0.843  0.0080  0.0899  0.1868
22870W        W38001   6.936   0.133  12.483  0.1226 -0.4311 -0.1652
22871W        W38002   4.380  10.444   1.866  0.0743  0.0735 -0.0568
22872W        W38003   5.018   1.214   2.213 -0.0109  0.1805 -0.0803
22873W        W38004   1.980  11.257  15.955 -0.0568 -0.1376  0.1738
22874W        W38005   7.012  10.101  12.302 -0.2206  0.0256  0.0427
22875W        W38006  17.891  17.065   1.774 -0.0711 -0.1799  0.0399
22876W        W38007   4.676  14.981   5.178  0.0361 -0.4462 -0.2261
22877W        W38008   1.575   2.980   1.465 -0.2256  0.0733  0.3797
22878W        W38009   1.749   1.630  15.215  0.0914 -0.0444 -0.1031
22879W        W38010  10.064   5.705   2.011  0.0252  0.0180 -0.2084
22880W        W38011   1.968  13.478  15.279  0.1199 -0.2367 -0.2046
22881W        W38012  14.730  16.841  15.533  0.1069  0.2295 -0.0538
22882W        W38013   0.216   0.632  11.405 -0.1039 -0.2539 -0.1321
22883W        W38014  15.695   0.062  14.029  0.2373  0.3900  0.1423
22884W        W38015   8.808  16.082  13.932 -0.1089 -0.1248 -0.1793
22885W        W38016   9.693   5.893   0.250  0.3346 -0.0877  0.1166
22886W        W38017   0.733   8.338  12.705 -0.2147 -0.0126  0.2687
22887W        W38018   2.581  17.417   5.332  0.0283  0.0082 -0.0013
22888W        W38019   7.447  16.287   1.118 -0.0842  0.1034  0.0694
22889W        W38020  16.195   7.853   2.326 -0.0958  0.1548 -0.0914
22890W        W38021   5.354   0.826  13.003 -0.0892  0.3091 -0.1377
22891W        W38022  14.787   0.741  13.405 -0.0710  0.2598  0.1317
22892W        W38023  11.861  15.033  14.937 -0.0556 -0.1382  0.0460
22893W        W38024   1.105   5.131  16.452 -0.0488 -0.0171 -0.1174
22894W        W38025  11.691  13.966   2.031 -0.4395 -0.3482 -0.3039
22895W        W38026   8.046   5.012   5.197  0.5072  0.2933  0.0465
22896W        W38027  11.853   2.959   3.652  0.3332  0.1233  0.0727
22897W        W38028  12.016   7.571  15.707 -0.1026  0.0422 -0.1283
22898W        W38029  12.057  13.447  16.030  0.1080 -0.0740 -0.1341
22899W        W38030  13.753   2.240   2.104  0.1399  0.2446 -0.0804
22900W        W38031  10.856   1.502   4.044  0.0835 -0.1832  0.1560
22901W        W38032   9.378   5.756   4.727 -0.0005 -0.1371 -0.3255
22902W        W38033   7.966   7.129  11.167 -0.1891  0.1684  0.0789
22903W        W38034  16.377   3.374   3.311  0.2298 -0.0845  0.0537
22904W        W38035  12.341  10.291   5.762 -0.4757  0.1702  0.2303
22905W        W38036   3.026   3.971   4.918 -0.2501  0.4224 -0.1272
22906W        W38037  16.822  15.670   3.019 -0.0785  0.2833  0.0968
22907W        W38038   6.358   3.567  14.015  0.0462  0.0536  0.0411
22908W        W38039   2.313   2.063  14.851  0.2333 -0.5205  0.0254
22909W        W38040  17.954  15.735   3.450  0.1979 -0.1614  0.1869
22910W        W38041   1.133   5.919  15.316  0.0044  0.1806 -0.0538
22911W        W38042  16.153  15.589   4.461  0.1617 -0.1787 -0.0401
22912W        W38043   9.923   5.814  12.412  0.3082  0.1514 -0.2412
22913W        W38044  11.149  16.846  12.336 -0.0081 -0.0254  0.0625
22914W        W38045  11.105  10.497  14.315  0.1094 -0.0912  0.0764
22915W        W38046   9.087  13.823  14.836 -0.1422 -0.1397  0.0330
22916W        W38047   9.267  10.755  15.736 -0.3361  0.2516 -0.2660
22917W        W38048  17.619  10.581   3.525 -0.2479  0.0244 -0.2733
22918W        W38049   1.215   3.949  13.804  0.0210  0.0165  0.1198
22919W        W38050  13.222   5.232  16.397  0.3680 -0.0144 -0.0480
22920W        W38051   2.714   7.702   0.590  0.0053 -0.2255  0.1626
22921W        W38052   5.577   6.239  13.844 -0.0422  0.0590 -0.1825
22922W        W38053  11.263  14.817   4.686 -0.0595  0.1205  0.0804
22923W        W38054   4.355  15.690  10.986  0.0336  0.1730 -0.0722
22924W        W38055   1.897  10.942   1.252 -0.0624 -0.1047  0.1429
22925W        W38056   4.264   2.476  10.550 -0.0375 -0.2180  0.2962
22926W        W38057   6.786  18.101   4.528  0.0079  0.1567  0.3992
22927W        W38058  16.890  16.711   0.699 -0.0846  0.2335  0.0798
22928W        W38059  11.313   7.827   1.355  0.2610  0.0350  0.1536
22929W        W38060  14.598   2.541   2.461  0.1212 -0.2626  0.2664
22930W        W38061   0.761   4.139  15.023  0.0995 -0.1322  0.0901
22931W        W38062  13.015   3.501   3.714  0.0696 -0.4547 -0.0236
22932W        W38063   2.351   1.874  15.943 -0.0975 -0.2483  0.2471
22933W        W38064  14.925  17.857   4.713  0.0219 -0.2676  0.0734
22934W        W38065  16.930   2.749  13.938  0.2350  0.2987 -0.0860
22935W        W38066   0.462  17.009  12.763 -0.0529 -0.0035  0.1214
22936W        W38067   8.480   6.641  15.986 -0.1510  0.4088  0.0945
22937W        W38068   2.158  10.806  14.165 -0.1231 -0.2128 -0.0441
22938W        W38069  13.821   5.322   5.683 -0.1702  0.2226  0.1352
22939W        W38070  14.080   2.355   2.455  0.2223  0.1325  0.3576
22940W        W38071  17.375   5.156   1.230  0.1677  0.2457  0.1441
22941W        W38072   0.023   2.781  13.268  0.0715  0.0214  0.0028
22942W        W38073  14.485   6.296  14.771 -0.2758 -0.2268  0.4509
22943W        W38074  12.235  17.982   4.928 -0.1167  0.6711  0.2198
22944W        W38075  10.931  13.470   2.019  0.0528  0.4013 -0.0894
22945W        W38076  12.747   4.592   3.509 -0.2436 -0.0314  0.1168
22946W        W38077  10.992  10.045  16.120 -0.1642  0.0819 -0.1509
22947W        W38078   4.407   0.717  14.032 -0.1794 -0.1793 -0.3409
22948W        W38079  11.341   0.343  11.304  0.0315 -0.1369  0.0565
22949W        W38080  16.192  13.393   0.364 -0.1519 -0.1276  0.1014
22950W        W38081   7.972  10.531  10.787 -0.0060  0.1875 -0.0369
22951W        W38082  13.426   3.805   0.115 -0.0221  0.0053 -0.0086
22952W        W38083  11.913  13.453   4.616  0.2374  0.0103  0.2764
22953W        W38084   5.704  14.248  14.989 -0.0217 -0.0309  0.1025
22954W        W38085   3.633   3.515  11.578 -0.0816  0.3977 -0.0278
22955W        W38086   9.382   2.068  15.213  0.0957  0.0014  0.2570
22956W        W38087   2.588   3.967  15.150 -0.0169  0.2081  0.1964
22957W        W38088   2.649   1.146   3.199 -0.0826  0.0623  0.2577
22958W        W38089   4.980   0.358   2.235 -0.2322 -0.0269  0.1297
22959W        W38090  16.458   9.871  15.678 -0.1177 -0.0801  0.4180
22960W        W38091  14.978  15.352   5.441 -0.1440 -0.0525 -0.3919
22961W        W38092   9.260   6.709   3.801  0.3223 -0.1108  0.1339
22962W        W38093  11.223   1.670  15.707 -0.0357  0.0432 -0.1212
22963W        W38094  10.558  17.466   1.462  0.0935 -0.0009 -0.3560
22964W        W38095  15.228  14.908   1.620 -0.4190  0.0596  0.2064
22965W        W38096  15.932   0.596   5.433 -0.1706  0.0321 -0.0102
22966W        W38097   1.361   0.192  14.812 -0.1363  0.0462 -0.1229
22967W        W38098   3.127   1.131   0.095  0.0076  0.1014  0.0179
22968W        W38099   9.524  11.319  12.493  0.0284 -0.0211  0.0315
22969W        W38100  16.146  17.310   5.205  0.2546  0.0054 -0.1779
22970W        W38101  14.468   5.858   0.716 -0.1492  0.2531 -0.3014
22971W        W38102   0.342   8.123  15.457 -0.0227 -0.2521 -0.3177
22972W        W38103   1.885   0.616   1.616 -0.1394  0.1990  0.0508
22973W        W38104   9.967  17.577  15.806  0.1062 -0.1147  0.0318
22974W        W38105   0.325  16.427   4.513 -0.0196 -0.1157  0.0154
22975W        W38106   8.379  16.945  15.147  0.2671 -0.2110 -0.2500
22976W        W38107   9.174   8.814  15.818 -0.0162 -0.0623  0.0690
22977W        W38108  16.240   4.571   3.974  0.2641  0.0784 -0.3028
22978W        W38109  11.477  10.879  16.153 -0.2140 -0.0501 -0.0124
22979W        W38110   6.940  13.030   4.752  0.1226 -0.3656  0.0344
22980W        W38111  10.126  16.617  13.741 -0.0556  0.0743 -0.2099
22981W        W38112   2.230   9.594   3.657 -0.0299  0.1109  0.0391
22982W        W38113  12.563  17.807  12.607 -0.1740  0.4391 -0.0028
22983W        W38114   1.506   0.651   1.909 -0.1625  0.0717  0.0655
22984W        W38115   9.719   9.358   1.671 -0.1606  0.1339 -0.1887
22985W        W38116   5.598   3.238   5.257  0.2041 -0.3337 -0.0685
22986W        W38117   6.764  10.353  16.103 -0.1226  0.2245 -0.0752
22987W        W38118  15.826  13.882  10.933  0.0333 -0.1428 -0.0766
22988W        W38119   1.383   3.778   4.920 -0.2220  0.1393 -0.0217
22989W        W38120  15.410   2.919  13.912 -0.2447 -0.1106 -0.2807
22990W        W38121   1.062  17.953  14.651 -0.0699 -0.2964 -0.1786
22991W        W38122   9.176  13.741  14.264  0.3534  0.0619  0.1178
22992W        W38123   8.322   2.623   4.318 -0.2526  0.1659 -0.2127
22993W        W38124  13.145  14.277   4.049  0.2132  0.0694 -0.5004
22994W        W38125   7.438   3.826  14.016  0.2010 -0.0781  0.2811
22995W        W38126  11.937  16.862   1.681  0.3007  0.1120 -0.0734
22996W        W38127  15.131   4.933   1.056  0.0219  0.0352  0.1715
22997W        W38128  12.483   7.962   3.862  0.1185 -0.2651 -0.0168
22998W        W38129  16.322   5.932  12.582 -0.0768  0.3239  0.1779
22999W        W38130   0.177  11.629   5.030  0.1276 -0.0115  0.0678
23000W        W38131   0.273   9.005  13.226 -0.1364  0.2807 -0.1041
23001W        W38132   1.335   3.108  14.262 -0.0311  0.0676 -0.0416
23002W        W38133  12.748   8.140  12.437  0.2251  0.0250 -0.0038
23003W        W38134   2.902  15.407  12.389  0.1712 -0.0666 -0.1911
23004W        W38135   0.672   7.386  13.729 -0.0320 -0.2334 -0.0531
23005W        W38136   5.193  12.021  11.699  0.1675  0.0872 -0.0089
23006W        W38137   0.817  15.162  14.268 -0.2303  0.1410  0.2888
23007W        W38138  12.926  15.971  13.291  0.1763  0.0290 -0.1984
23008W        W38139  16.139   6.677   1.363  0.0444  0.2730  0.0381
23009W        W38140   1.624   5.274   0.641 -0.0400  0.0369  0.3012
23010W        W38141  12.887   4.167   4.436  0.3314 -0.3602  0.0816
23011W        W38142   8.836  14.985   2.287  0.0627  0.0378 -0.0518
23012W        W38143   9.496   7.783   4.380  0.0553 -0.0344  0.0558
23013W        W38144   5.918  17.541  15.656  0.0284 -0.0039  0.0981
23014W        W38145   9.581   9.180   5.300  0.0514  0.1576  0.0782
23015W        W38146   2.370  13.226  15.126 -0.1203 -0.1916 -0.0507
23016W        W38147   1.243   5.836   4.025 -0.0454 -0.0278 -0.1259
23017W        W38148  15.105   2.942  13.391  0.0980 -0.0214 -0.0829
23018W        W38149   2.703  10.639  10.530  0.1817 -0.1385  0.2532
23019W        W38150  10.404   8.269  13.465 -0.0035  0.3654  0.4607
23020W        W38151  16.128   6.060   4.891 -0.3506 -0.2314 -0.3365
23021W        W38152   7.604  12.719   4.179 -0.2959  0.1220  0.0040
23022W        W38153   6.486   0.158   3.233  0.1651  0.1319  0.3326
23023W        W38154  13.785   1.803  13.067 -0.0193 -0.1601  0.1249
23024W        W38155  11.732  17.681  11.502  0.2430 -0.1755 -0.1957
23025W        W38156   8.841   2.921  15.185 -0.2336  0.2042  0.1002
23026W        W38157   4.203  13.326   2.765  0.2369  0.0601 -0.0258
23027W        W38158   6.818   2.589  13.512  0.3877  0.2629  0.2435
23028W        W38159  16.570   2.663  15.305  0.2595  0.0767 -0.0385
23029W        W38160  11.894   1.432  14.845  0.0037 -0.0484 -0.2167
23030W        W38161   2.554  13.426   1.338  0.2726 -0.0112 -0.2774
23031W        W38162   1.760   8.381   2.458 -0.0263 -0.1368  0.1238
23032W        W38163  12.055   0.318  16.080 -0.2671  0.1698 -0.0503
23033W        W38164  12.368  15.190  12.320 -0.1026  0.4158 -0.1262
23034W        W38165  16.349   7.456   1.839  0.4531  0.0970 -0.1552
23035W        W38166   9.342   3.716   2.039 -0.1055  0.4045  0.1383
23036W        W38167  10.657   0.331   1.291  0.0297 -0.0201 -0.0035
23037W        W38168   8.245   6.637   2.404 -0.2801  0.2224 -0.2316
23038W        W38169   2.828   2.538   1.201 -0.1829 -0.2295  0.1208
23039W        W38170  16.320  15.319   0.063  0.1102 -0.0892 -0.2440
23040W        W38171  12.970   0.878  12.896  0.2815  0.2843 -0.2821
23041W        W38172  15.025  16.266  14.887  0.1942 -0.1031 -0.1547
23042W        W38173  15.441   5.640  16.326  0.0323  0.0047  0.1935
23043W        W38174   1.058   1.470   4.956  0.0901 -0.1981  0.1942
23044W        W38175  13.711   4.530   0.551 -0.1821 -0.2106  0.1986
23045W        W38176   5.025   0.045  14.788 -0.0445  0.0603 -0.1028
23046W        W38177   5.346  12.047   4.991 -0.0055  0.0810  0.1386
23047W        W38178   4.693   5.930   0.188  0.2744 -0.2527  0.1645
23048W        W38179   2.568  13.670  13.475 -0.2354 -0.0348  0.0030
23049W        W38180   1.953   9.346  11.887  0.0428  0.3349 -0.0436
23050W        W38181  14.425   3.588  12.266  0.0567 -0.1843 -0.2306
23051W        W38182   8.089  11.593   1.034 -0.0930  0.0365  0.2209
23052W        W38183   1.298   1.760  11.214  0.2834  0.1103  0.1354
23053W        W38184  18.037  10.716  11.566  0.1431  0.0548  0.2880
23054W        W38185   9.475   5.750   9.987 -0.3333  0.0564 -0.0681
23055W        W38186   0.890  12.411  13.462  0.2658 -0.2218  0.0506
23056W        W38187   4.775  12.301  13.152  0.2299 -0.0467 -0.2095
23057W        W38188   8.698  16.808  10.982  0.2090  0.2888 -0.0589
23058W        W38189  16.281   6.678  13.718 -0.0322  0.0408  0.1138
23059W        W38190   7.834   7.210  15.347 -0.1883 -0.1479  0.0500
23060W        W38191   2.004  10.245   3.919  0.1597 -0.0076  0.0985
23061W        W38192  17.670   2.339   1.397 -0.1890 -0.0067 -0.2034
23062W        W38193   4.350   0.599  11.519 -0.4348 -0.0857 -0.1114
23063W        W38194   1.415  10.218   3.101 -0.3226 -0.2441 -0.0029
23064W        W38195   7.372  15.946   3.462  0.0443 -0.0644  0.0828
23065W        W38196  17.707   4.920  15.763  0.1882  0.1291  0.1572
23066W        W38197   9.704   5.552  14.391  0.0945  0.0301  0.2590
23067W        W38198   8.486   3.143  10.963 -0.0359 -0.4026 -0.0060
23068W        W38199   8.411   7.567  14.489 -0.2001 -0.0649  0.1547
23069W        W38200  10.119  13.068   3.941  0.0352 -0.2737 -0.1145
23070W        W38201  11.038   7.507   3.138  0.1405 -0.1988  0.1120
23071W        W38202  11.108   2.511  14.972  0.1268 -0.0556 -0.3934
23072W        W38203  17.630  15.656   1.830 -0.3007  0.0747 -0.2178
23073W        W38204   0.891   3.241  15.166 -0.0248 -0.3174  0.2569
23074W        W38205   0.548  13.853   2.326  0.1479  0.0242 -0.0372
23075W        W38206  12.462   0.798   4.033 -0.0208 -0.3903 -0.2742
23076W        W38207   8.401   8.418   0.678 -0.2597 -0.1527  0.4556
23077W        W38208  10.619   9.290   0.674  0.3413  0.0365 -0.1883
23078W        W38209   8.531   1.633  15.717  0.0473  0.2526 -0.2038
23079W        W38210   3.311   1.246   2.302  0.1914  0.2381  0.1132
23080W        W38211   6.949   5.196  11.482  0.0037  0.2225 -0.4369
23081W        W38212  12.641   9.378  16.297  0.1152 -0.5399  0.0573
23082W        W38213   5.821   5.794  13.718 -0.3810 -0.2603  0.3326
23083W        W38214   9.867  11.504   1.328  0.2966 -0.0834 -0.2616
23084W        W38215  17.183  17.120   4.448  0.0786 -0.1891 -0.4866
23085W        W38216  13.454   6.223  11.328  0.3423 -0.1256 -0.0298
23086W        W38217   6.498   1.981  15.103  0.2229  0.0250  0.0562
23087W        W38218  10.434   3.399   1.109 -0.1335 -0.0170 -0.2674
23088W        W38219  15.903   2.907  14.948 -0.0207  0.2339  0.1327
23089W        W38220  10.146   5.074   0.248 -0.1050 -0.1328  0.4818
23090W        W38221  16.197  14.411  14.578 -0.0324 -0.0988 -0.1065
23091W        W38222  13.623   0.213   0.560 -0.2775 -0.0471 -0.1436
23092W        W38223   1.168   8.418  13.277 -0.1043 -0.0643 -0.0181
23093W        W38224   6.534   1.351   3.002 -0.1366  0.0262 -0.0105
23094W        W38225  12.353  12.772   1.521  0.0369 -0.0636 -0.1773
23095W        W38226   0.051   1.808   2.209 -0.0765 -0.0145  0.0648
23096W        W38227   1.033  14.102  13.129  0.1038 -0.0461 -0.0385
23097W        W38228  10.741  14.717   4.614  0.1530 -0.0944  0.0908
23098W        W38229  12.101  15.949  14.604  0.2670 -0.5124  0.1436
23099W        W38230   7.131  12.327   2.738  0.2480  0.1301  0.3524
23100W        W38231   7.508  16.788   4.507 -0.0271  0.0596  0.1859
23101W        W38232  13.909  11.723   1.547  0.1852 -0.2343  0.1406
23102W        W38233  10.848   1.416   4.536  0.0224  0.0074 -0.2448
23103W        W38234   4.266   2.529   3.646  0.2223 -0.3919  0.3268
23104W        W38235   6.083   9.693  16.116  0.0257  0.1544 -0.5096
23105W        W38236   5.116  10.480  13.159  0.0622 -0.2488  0.1641
23106W        W38237   9.723  15.938   3.937 -0.0071 -0.1202 -0.2284
23107W        W38238  15.533   0.787  11.705  0.1622  0.1694  0.3238
23108W        W38239  15.013  11.584  12.344 -0.0918 -0.2768 -0.0390
23109W        W38240   7.012  17.539   0.326 -0.0606 -0.0503  0.0717
23110W        W38241  17.812   2.182   6.051  0.0386 -0.0587 -0.3742
23111W        W38242   7.146   5.978  13.535  0.0147 -0.2038 -0.2461
23112W        W38243   0.359   6.119   3.208 -0.0557  0.0942  0.0664
23113W        W38244  10.089   3.208  12.584 -0.0053  0.2320  0.1266
23114W        W38245   6.737   0.741  11.746  0.1991  0.2456  0.0858
23115W        W38246   5.004  14.686   0.633 -0.0484  0.0557  0.3435
23116W        W38247   4.405   0.275  13.721  0.3353 -0.0303 -0.2379
23117W        W38248   0.119   4.994   3.907 -0.2146 -0.2197 -0.1539
23118W        W38249   8.430  15.317   0.051 -0.1774  0.1437  0.4415
23119W        W38250  14.170   5.484  14.186 -0.1782  0.2228  0.0871
23120W        W38251  13.171   6.821   3.247 -0.0485 -0.0001  0.0219
23121W        W38252  14.842   2.595  11.708 -0.0236  0.0561  0.1901
23122W        W38253  17.450   0.536  14.348 -0.1542 -0.1897  0.1803
23123W        W38254   4.291   8.275   2.279 -0.2421  0.2368  0.2379
23124W        W38255   0.623  16.285   4.979 -0.2463  0.2524  0.1048
23125W        W38256   3.966   2.102  11.929 -0.1611 -0.2289  0.0834
23126W        W38257   9.329  16.352   1.072 -0.2004 -0.3663  0.4295
23127W        W38258  12.802   0.458  10.673  0.1637  0.0336 -0.1764
23128W        W38259  14.384   9.135  14.850 -0.0475  0.0468  0.0729
23129W        W38260   1.078   6.284   1.520  0.1775  0.1450  0.2967
23130W        W38261  10.703  15.327  14.780 -0.1710  0.0662  0.0401
23131W        W38262   8.420  12.520   5.909  0.2561 -0.1084  0.1473
23132W        W38263   2.361  17.295   1.157 -0.0892 -0.3839  0.3357
23133W        W38264   9.030   9.201   3.511  0.1137 -0.0909 -0.0279
23134W        W38265  11.502  13.442  14.708  0.1994 -0.2304 -0.0482
23135W        W38266  10.607  18.006  13.827 -0.2753 -0.1082 -0.0495
23136W        W38267   6.891   1.016   2.215 -0.1980 -0.0654  0.4563
23137W        W38268  13.297  15.123   0.514 -0.1351 -0.1158  0.0856
23138W        W38269  10.472  15.862  15.430  0.1476  0.0855 -0.1904
23139W        W38270  17.896   9.734  12.128  0.2347  0.1730  0.0633
23140W        W38271  12.306   4.334   3.776 -0.1884  0.0127 -0.2436
23141W        W38272  13.729  17.151  13.807 -0.3338 -0.1056  0.1731
23142W        W38273  14.819  12.633   5.284  0.0747 -0.0596 -0.1513
23143W        W38274   8.825   5.424  15.504 -0.2219  0.1015 -0.0015
23144W        W38275   3.265  15.247  15.892  0.0006 -0.1590  0.1497
23145W        W38276  15.251   3.813   2.107  0.4408  0.0835  0.0642
23146W        W38277  17.719   2.329  12.485  0.1708  0.1330  0.0743
23147W        W38278   8.016  14.002   1.836  0.0208 -0.3111 -0.0023
23148W        W38279  17.367   4.839  12.950  0.3661  0.1848 -0.1772
23149W        W38280   4.324  11.870  13.896 -0.1923  0.2558 -0.0654
23150W        W38281  17.872   9.879   0.085  0.3403  0.0078  0.1949
23151W        W38282   6.810   8.321  14.982 -0.1021  0.0960 -0.1157
23152W        W38283   4.467   9.658  12.734 -0.1182 -0.0595  0.2546
23153W        W38284   5.309   1.971  14.410 -0.3521  0.1560  0.0028
23154W        W38285   9.079   7.023   4.886 -0.1896  0.0306 -0.3569
23155W        W38286   9.462   8.141  13.577  0.4360 -0.0426 -0.0574
23156W        W38287  16.111   7.185  11.795 -0.0840  0.0154  0.0826
23157W        W38288  14.100  15.791   2.555 -0.0765  0.1245 -0.0659
23158W        W38289   0.227  10.581  15.252  0.1730 -0.1208 -0.0509
23159W        W38290   6.294   3.361  15.592 -0.0096 -0.1559  0.0864
23160W        W38291  14.029   4.304   5.753  0.1644 -0.2082 -0.3306
23161W        W38292  16.488  16.496   3.612 -0.2517  0.1792  0.2829
23162W        W38293   7.244   3.289  14.108 -0.1036  0.1396  0.0461
23163W        W38294   2.486   8.712  14.457  0.1900 -0.1444  0.0221
23164W        W38295  17.231  14.823   3.347  0.0869  0.1325  0.0675
23165W        W38296   3.694  15.495  16.004 -0.1801  0.0030  0.3959
23166W        W38297   7.448  13.924  15.799  0.1781 -0.1953 -0.3026
23167W        W38298  17.757  14.395  13.363 -0.1883  0.2465  0.1195
23168W        W38299  12.778   9.218  15.793 -0.0758  0.3401 -0.0262
23169W        W38300   8.268   4.682   1.789 -0.0433 -0.2233  0.0853
23170W        W38301  13.802   8.360  14.447  0.2620  0.2235 -0.2419
23171W        W38302  15.968  16.834  15.590 -0.2051  0.0262  0.3268
23172W        W38303  13.030   1.387   2.210  0.0262  0.2916  0.1205
23173W        W38304   3.218   8.766   4.482 -0.0589  0.1262  0.0926
23174W        W38305   8.476  12.762   4.494 -0.1986 -0.0245 -0.2548
23175W        W38306  15.850   1.050   1.982  0.3869  0.0148 -0.2606
23176W        W38307   6.818   0.784  14.280  0.2441  0.0463 -0.0366
23177W        W38308  17.266  15.601   1.451  0.2931 -0.1924 -0.0572
23178W        W38309   5.556   6.285   1.458 -0.3001 -0.3589 -0.2538
23179W        W38310   2.646  13.875  12.019 -0.1094 -0.0420 -0.0441
23180W        W38311   8.960  15.139   2.766  0.0697 -0.0550  0.0174
23181W        W38312  15.589   6.450  13.107  0.0984  0.3584  0.1417
23182W        W38313  10.139  16.647  15.632  0.0068  0.0704 -0.2386
23183W        W38314  13.685   8.238   1.809 -0.1997  0.1445  0.0949
23184W        W38315  13.504  12.892   1.868 -0.0716 -0.2067 -0.0158
23185W        W38316  13.333   2.937  12.017 -0.0901 -0.1878  0.1305
23186W        W38317   2.986   1.059   0.710 -0.2958  0.1197  0.0665
23187W        W38318  12.921   1.990  13.839  0.1743 -0.1302 -0.2772
23188W        W38319  13.955   3.644  14.717  0.4288 -0.2877  0.1162
23189W        W38320   6.231   3.519  11.747  0.1385  0.1478 -0.1106
23190W        W38321  11.998   8.920  15.284 -0.4952 -0.4952 -0.0665
23191W        W38322  11.979   4.653  14.286 -0.0145 -0.1639  0.0072
23192W        W38323   1.215   2.654   3.795  0.1144 -0.0783  0.0884
23193W        W38324  16.584   7.897  10.976  0.0397 -0.1236 -0.0905
23194W        W38325   0.934   4.404   0.221 -0.1236  0.1492  0.0065
23195W        W38326  17.666  17.897   3.795  0.2920  0.1687  0.1393
23196W        W38327   7.132  17.065   4.797  0.2111  0.0194 -0.0645
23197W        W38328   8.466   6.162  10.612 -0.1982 -0.0015  0.2772
23198W        W38329   8.163   3.456   0.210 -0.3525  0.0385  0.0365
23199W        W38330   6.319  12.964  11.884  0.2758  0.2219  0.1716
23200W        W38331  12.990  17.049   1.660  0.0569 -0.0051  0.0746
23201W        W38332   7.512   6.469   1.599  0.0110  0.2137  0.2362
23202W        W38333  16.803  14.278  11.625 -0.4393  0.0537 -0.0554
23203W        W38334  12.011   3.581   4.805  0.0262  0.0860 -0.0352
23204W        W38335   2.341  16.603   5.019 -0.0714  0.0727 -0.0525
23205W        W38336   4.887   3.745   1.985 -0.1770 -0.2089  0.2856
23206W        W38337   0.830  17.817  13.196 -0.0282  0.2301  0.3185
23207W        W38338   1.949   5.152  12.144  0.2235 -0.0218 -0.1855
23208W        W38339   2.845   5.908   1.784  0.0848  0.1712  0.0555
23209W        W38340   2.970   7.867   4.831  0.0972  0.1332 -0.0154
23210W        W38341  13.375  17.887  11.494  0.2259  0.0193  0.0691
23211W        W38342   2.706  14.835   2.780 -0.1888  0.0179 -0.4283
23212W        W38343   5.776   6.674  13.867 -0.2637  0.2549  0.1433
23213W        W38344   1.052   6.894   4.725 -0.4287  0.1912 -0.0925
23214W        W38345   4.648   4.212  14.325 -0.2222 -0.1083  0.1171
23215W        W38346  16.029   5.146   0.916 -0.0070  0.0366  0.0804
23216W        W38347   7.408   9.708  13.261  0.0158 -0.1735 -0.2593
23217W        W38348   4.110   7.049   3.515 -0.0818  0.1018  0.0841
23218W        W38349  12.721   5.028  11.293  0.2067  0.1184  0.1245
23219W        W38350  14.853  12.229   0.874 -0.2547  0.0207  0.0446
23220W        W38351   8.596   2.905   1.005  0.0268 -0.0524  0.1411
23221W        W38352   7.739   2.712  15.992  0.1897  0.2761  0.1456
23222W        W38353  13.211  15.222  11.641  0.0029 -0.3443 -0.0881
23223W        W38354   2.318   0.651   2.037  0.3383  0.0259 -0.2187
23224W        W38355   1.916   5.043   1.454 -0.1117 -0.0435 -0.0356
23225W        W38356   7.937   3.961   2.289 -0.1762 -0.0245  0.1659
23226W        W38357  13.459  12.401   0.452  0.0779  0.0166 -0.0205
23227W        W38358   5.986   3.250  11.245 -0.3084 -0.0720  0.3140
23228W        W38359  15.661   6.105   4.971 -0.0557  0.1386 -0.1657
23229W        W38360  16.565   5.661  13.860 -0.0106 -0.0163 -0.2132
23230W        W38361  17.626  11.933  12.515 -0.0421  0.0768 -0.1584
23231W        W38362   8.087   6.603   2.860  0.1550  0.3290 -0.1016
23232W        W38363  15.140   4.479   2.906  0.2063  0.0173 -0.0224
23233W        W38364  10.360   7.273   4.182  0.3378  0.0091  0.1728
23234W        W38365  12.244  15.245   3.383  0.3379 -0.0684  0.0696
23235W        W38366   5.845  11.667  13.438 -0.1290 -0.1927  0.1208
23236W        W38367  16.998  14.412   1.716 -0.7031  0.1694  0.1189
23237W        W38368  10.956  16.728  11.892  0.0641 -0.2947 -0.1060
23238W        W38369  15.244   0.435  10.311 -0.0093  0.0469  0.2252
23239W        W38370   5.123   8.602  15.165  0.1189 -0.1065  0.1459
23240W        W38371   5.379   8.520   1.116 -0.3265 -0.2475  0.1488
23241W        W38372  15.592   5.225   4.470  0.3019  0.1151  0.2445
23242W        W38373   7.372   5.799   2.312  0.0623 -0.4920  0.0135
23243W        W38374  17.127  12.827  10.997 -0.4067 -0.1512 -0.1111
23244W        W38375   9.174   3.462  12.531 -0.1270  0.0668  0.1953
23245W        W38376   8.859  12.370  12.226 -0.1537 -0.0313 -0.0263
23246W        W38377  17.596   3.987  13.062 -0.0512  0.1464  0.1236
23247W        W38378   0.789   9.100   6.389  0.2450 -0.4522 -0.0923
23248W        W38379   1.605   9.369  12.788 -0.0478  0.2297 -0.0427
23249W        W38380   4.005  12.936   2.469 -0.2081  0.1635 -0.1583
23250W        W38381   1.328   4.447  16.313 -0.0720 -0.1723 -0.1234
23251W        W38382  13.369   1.192   0.724 -0.0949 -0.0702  0.1272
23252W        W38383  17.676  10.933  10.617  0.2888 -0.0690 -0.1980
23253W        W38384   7.420  13.326  12.655 -0.1613 -0.1691  0.1250
23254W        W38385   3.807  15.844   4.526  0.0676  0.2803  0.0035
23255W        W38386   0.773   3.555  11.488 -0.1259 -0.1282  0.2581
23256W        W38387  10.184   1.145   2.116  0.2196 -0.0963 -0.2045
23257W        W38388  11.763   2.457   3.769 -0.2606  0.1556  0.2966
23258W        W38389  15.383  18.056   0.899 -0.1215  0.1796 -0.3920
23259W        W38390   5.607  13.977   4.014  0.3065 -0.1201  0.0433
23260W        W38391   2.913   5.928  14.521  0.2431 -0.3062  0.2521
23261W        W38392  16.923  12.984  15.255  0.0273  0.1579 -0.0767
23262W        W38393   3.660  10.946  16.447 -0.0471  0.0743 -0.1560
23263W        W38394  17.662  12.267   2.036  0.1638  0.1772  0.0838
23264W        W38395   4.954  11.114   1.012  0.0248  0.1834 -0.3192
23265W        W38396   8.098   7.709   1.009  0.3391  0.0434 -0.0836
23266W        W38397  15.488   1.749   3.315 -0.0765 -0.1489 -0.0759
23267W        W38398   3.885   2.998   0.949 -0.1884  0.0216 -0.1401
23268W        W38399   9.419   6.656   2.830 -0.0952  0.1422  0.0426
23269W        W38400   1.667   9.804   4.578  0.1813 -0.2792 -0.1897
23270W        W38401  11.791   8.487   0.204 -0.1971  0.0969  0.1364
23271W        W38402   7.181   8.896   4.700 -0.0031  0.1124 -0.1995
23272W        W38403  16.437  17.068   1.883 -0.0285 -0.3111 -0.3094
23273W        W38404   3.138  12.069  13.518 -0.3048  0.1060 -0.1107
23274W        W38405   4.410   2.036   1.720 -0.2406  0.1047 -0.3820
23275W        W38406  15.616   7.940  12.223 -0.2587 -0.0416  0.0666
23276W        W38407   5.743  12.696   5.428 -0.2967 -0.0044 -0.2936
23277W        W38408  14.257  13.060  13.478 -0.1193 -0.0708 -0.3513
23278W        W38409  16.543  12.484  13.578  0.0785 -0.0474  0.2883
23279W        W38410  16.713   8.944   1.395 -0.0997  0.0310  0.1474
23280W        W38411   9.132   8.011   2.974 -0.1655 -0.2974 -0.1160
23281W        W38412   1.225  17.661  14.038 -0.0664  0.2615  0.0143
23282W        W38413   7.643  11.709   3.474 -0.0555  0.2606  0.1169
23283W        W38414   9.352   7.187  11.150 -0.1763  0.3139 -0.0798
23284W        W38415  13.881   5.797   4.547  0.0407 -0.2030  0.1234
23285W        W38416   5.434  11.751  13.113  0.1351 -0.1379  0.0536
23286W        W38417  12.510  14.409   2.007 -0.0315  0.0511  0.0383
23287W        W38418   8.479  12.175   2.897 -0.0791 -0.2293  0.1215
23288W        W38419   4.330   1.712   3.919  0.3356 -0.2024 -0.0815
23289W        W38420  15.132   0.442  14.395  0.2960  0.1342 -0.1588
23290W        W38421   0.591  12.875   2.268 -0.2165 -0.0696 -0.3030
23291W        W38422   5.289   7.862  13.449 -0.2951 -0.1701 -0.1958
23292W        W38423   8.538  15.549  12.875  0.0385  0.0496 -0.2315
23293W        W38424   4.047  16.642  14.468 -0.3194 -0.0152  0.1928
23294W        W38425  10.478   9.162   3.428  0.1728  0.1736 -0.0858
23295W        W38426  12.761   4.168  12.217  0.1046 -0.2108  0.4053
23296W        W38427   0.037   2.623  14.553  0.3529 -0.0913  0.1600
23297W        W38428  12.576  10.455   2.994 -0.2316 -0.1853  0.0881
23298W        W38429  15.076   4.520  11.792  0.0317  0.3214  0.0622
23299W        W38430  11.145  11.122  12.702  0.0974 -0.1101  0.0561
23300W        W38431  10.008  12.700   0.062 -0.0830  0.1321  0.0136
23301W        W38432   7.079   8.448   2.480 -0.0817  0.0864  0.0689
23302W        W38433   6.294  16.142   0.940 -0.1278  0.0496 -0.2505
23303W        W38434  17.294   7.319   3.710  0.3269 -0.2335  0.0284
23304W        W38435   0.713  16.602   1.149 -0.1018 -0.1570 -0.0028
23305W        W38436   4.656  12.856   0.518 -0.1427  0.1036  0.0430
23306W        W38437   1.236  11.858  15.008  0.1060  0.2393 -0.1401
23307W        W38438   9.330  16.138  11.912  0.1609 -0.0520  0.0285
23308W        W38439   7.383   9.254   5.151 -0.0879 -0.0505  0.0515
23309W        W38440   9.868   8.456   2.170 -0.2728 -0.1750  0.0647
23310W        W38441   3.405  13.360  13.119 -0.0139  0.0854  0.0559
23311W        W38442   3.879  15.116  14.287  0.1606 -0.2305 -0.1950
23312W        W38443   8.710   4.747   3.208 -0.2411  0.0423 -0.2716
23313W        W38444  15.886  16.024   4.404 -0.3867 -0.2170 -0.1011
23314W        W38445   1.217   0.048  14.116 -0.1630  0.0879 -0.0186
23315W        W38446   4.714   5.143  12.325  0.2595  0.0016  0.0431
23316W        W38447   4.358  10.191  12.696  0.2272  0.1737  0.0816
23317W        W38448   6.909   7.087  13.664 -0.1180 -0.1856  0.1687
23318W        W38449  12.819   4.168   2.739  0.1520  0.1818  0.0610
23319W        W38450   5.406   5.127   1.029  0.2784 -0.4013  0.0954
23320W        W38451  11.475   8.385   2.645  0.3346 -0.2061 -0.1722
23321W        W38452   5.964  15.361   2.712 -0.1001 -0.2366 -0.2022
23322W        W38453  10.966  17.661   5.601  0.0108  0.0914  0.0028
23323W        W38454  17.476   2.289   3.975 -0.0900  0.1432  0.2366
23324W        W38455  16.470   2.078   4.659  0.3785 -0.0439 -0.1689
23325W        W38456  13.603  13.326   0.543 -0.2505  0.1340 -0.1374
23326W        W38457  15.409  13.456  11.770 -0.2021  0.1984  0.2380
23327W        W38458   1.599   3.622  13.846  0.1274 -0.1805  0.0687
23328W        W38459   3.712   7.828  12.727 -0.0929 -0.1745  0.1590
23329W        W38460  10.323  16.244   2.823 -0.1054 -0.0053  0.2850
23330W        W38461  17.261  15.893  15.647  0.0013 -0.2238 -0.0246
23331W        W38462  11.855   6.216  12.330 -0.0995 -0.0615 -0.1683
23332W        W38463  14.207   3.790  12.643 -0.0591 -0.1136 -0.0849
23333W        W38464   6.902  12.798   0.544 -0.2976  0.0286  0.1819
23334W        W38465   4.637   4.416  13.637 -0.4107  0.0781  0.0659
23335W        W38466  10.020   8.739  15.426  0.0162 -0.0939  0.2373
23336W        W38467  17.066   4.298  14.305 -0.1800 -0.0483  0.1056
23337W        W38468   9.726   4.048   3.884 -0.0465 -0.1440 -0.0461
23338W        W38469  13.987   9.240   5.649  0.1730 -0.2584 -0.3338
23339W        W38470  16.344   5.063  12.673 -0.2302 -0.4631 -0.2191
23340W        W38471   4.901  11.387  16.107  0.2735 -0.3632  0.0148
23341W        W38472   1.057   0.540  16.046  0.2586 -0.1352  0.1410
23342W        W38473   5.781   1.031  15.607  0.2417 -0.0730  0.2390
23343W        W38474  10.287  11.343   5.097 -0.0014  0.2210  0.1685
23344W        W38475   9.966  12.827  11.465  0.0959 -0.1693 -0.2505
23345W        W38476  15.749  15.491   0.705  0.3021  0.1607  0.2228
23346W        W38477  13.304  14.585   4.412  0.0923  0.1430 -0.1008
23347W        W38478   3.200   9.801   3.322 -0.0348  0.2671 -0.1901
23348W        W38479   3.000  10.197  13.687 -0.1621  0.0280 -0.1782
23349W        W38480   2.514  18.019   1.613 -0.2524 -0.3809  0.1876
23350W        W38481  14.297   1.823  11.333 -0.3347  0.1251  0.2223
23351W        W38482  17.212   7.445  12.044  0.1682  0.0283  0.0457
23352W        W38483   3.842   5.932   5.952 -0.1106 -0.1589 -0.1571
23353W        W38484  11.426   1.124  15.577 -0.2890 -0.0083 -0.2484
23354W        W38485   5.887   1.163  13.802  0.1425 -0.0064 -0.1010
23355W        W38486  14.709  17.071   1.536  0.0159 -0.4760 -0.1119
23356W        W38487  17.330   0.615  13.878 -0.1091 -0.1072  0.0362
23357W        W38488  16.361   2.873   3.588 -0.2664  0.1569 -0.1911
23358W        W38489  13.862   5.180   1.787  0.3747 -0.0354  0.1347
23359W        W38490   0.907  16.237  13.323  0.0078 -0.1834 -0.0050
23360W        W38491   4.149  11.490  11.401 -0.0327  0.0937  0.0580
23361W        W38492  16.177   1.643   2.143 -0.0448  0.0461  0.0502
23362W        W38493  13.493   1.897  12.528  0.0800  0.0716 -0.1571
23363W        W38494   4.515  11.895  15.135  0.1358 -0.1928  0.0071
23364W        W38495  14.459   2.174  11.643 -0.2405  0.2230  0.0537
23365W        W38496  13.988  12.603  15.461 -0.0965  0.1211  0.0196
23366W        W38497  17.469   2.817  15.914 -0.0628 -0.2007 -0.0475
23367W        W38498  15.765   2.566   0.857  0.0480  0.0593 -0.1199
23368W        W38499   3.294  14.744  15.721 -0.0601 -0.2262  0.1176
23369W        W38500   9.801  15.377  11.385 -0.2376 -0.0221  0.0042
23370W        W38501   0.879  14.284  12.549 -0.0766 -0.0036  0.1176
23371W        W38502  13.564   9.667   2.147 -0.0918 -0.1427 -0.0232
23372W        W38503   1.865  10.236   2.545  0.0673  0.0090  0.1382
23373W        W38504  12.183  11.352   0.377  0.3667  0.1106  0.1068
23374W        W38505   1.385  17.585  12.912  0.0229 -0.2517 -0.0019
23375W        W38506  17.233   4.429  11.643  0.1109 -0.0840  0.2102
23376W        W38507  13.815   1.438   4.841  0.1118  0.1057 -0.0336
23377W        W38508   0.262  15.053  13.203  0.0139  0.1800  0.0292
23378W        W38509   5.459   1.659   1.007 -0.1937 -0.1366 -0.2429
23379W        W38510  15.661  17.894   3.033 -0.0362 -0.0364 -0.1023
23380W        W38511   5.685   2.524  15.790  0.2182  0.0679  0.0268
23381W        W38512   3.766   8.918  15.388 -0.0039 -0.0145  0.0475
23382W        W38513  11.039  11.323   1.449  0.3374  0.2162  0.2748
23383W        W38514  16.367  13.852   2.898 -0.0650  0.2195 -0.3550
23384W        W38515   6.382   0.661  16.298 -0.2503 -0.0532  0.0983
23385W        W38516  12.010   8.122  13.131  0.1119  0.0944 -0.1665
23386W        W38517  12.034   3.449   4.293  0.0762 -0.0003  0.1397
23387W        W38518   5.324   2.013   4.647  0.0234  0.1517 -0.2660
23388W        W38519   2.350   4.093   5.362  0.1045 -0.1467  0.1968
23389W        W38520  11.993  10.297   2.542  0.1389 -0.1279  0.1025
23390W        W38521  11.659  18.078  10.347  0.2330 -0.2756  0.1442
23391W        W38522  16.210  15.485  10.580  0.0785  0.3104  0.1824
23392W        W38523  12.724  15.464  11.863  0.0746  0.0612 -0.1625
23393W        W38524   2.017   6.363  14.870 -0.1672 -0.0802 -0.1578
23394W        W38525  13.701  12.152  16.066 -0.2129  0.1156  0.2407
23395W        W38526   8.227   8.670  16.217 -0.1139 -0.2508  0.0213
23396W        W38527   0.700  15.845  13.792 -0.0339 -0.2495 -0.0971
23397W        W38528  17.610  14.842  12.918  0.2625 -0.1704  0.1448
23398W        W38529  16.748  17.214  16.083 -0.0333  0.1809  0.2545
23399W        W38530   1.836  11.349  10.617 -0.0520  0.1212 -0.2331
23400W        W38531  14.317   3.576   3.750 -0.2233  0.0434 -0.1094
23401W        W38532  12.634   8.849   1.527 -0.0433 -0.0731  0.1321
23402W        W38533   5.421   1.802  12.765  0.0350  0.3387 -0.0649
23403W        W38534  10.880   2.378  13.616 -0.2671  0.1869  0.1393
23404W        W38535   9.844  12.441   2.604 -0.1716 -0.0447  0.0673
23405W        W38536   7.052   9.210   5.530  0.0942 -0.3214 -0.1708
23406W        W38537   6.233   4.390   0.939 -0.0665 -0.0894  0.2929
23407W        W38538   3.032   3.072   2.640  0.1975  0.3577 -0.1635
23408W        W38539   4.897  16.031  12.690 -0.2638  0.0513  0.0236
23409W        W38540   1.228   0.547  13.920 -0.2036  0.2199  0.0646
23410W        W38541   1.009   7.880   3.030  0.0373 -0.0360  0.0005
23411W        W38542   3.603   6.112  13.388 -0.1228 -0.0448  0.1074
23412W        W38543  12.305   9.286  12.953 -0.2159 -0.2004 -0.0900
23413W        W38544   8.698  12.928   3.568  0.0348 -0.0774 -0.0747
23414W        W38545  15.882  15.867  13.935  0.2254 -0.0273 -0.0301
23415W        W38546   9.284  11.030   0.512 -0.3710 -0.0853 -0.1409
23416W        W38547   6.791  11.458   3.693  0.0122 -0.1694 -0.0734
23417W        W38548   8.998  14.455  11.636 -0.0980 -0.1295 -0.1748
23418W        W38549   5.199  13.471   4.202 -0.0719  0.2267 -0.1491
23419W        W38550  15.932  16.176  15.020 -0.1893 -0.0046  0.3654
23420W        W38551  14.917  13.944   5.412  0.1429 -0.1222  0.1277
23421W        W38552  10.374  10.445  14.862  0.1577 -0.0492  0.0529
23422W        W38553  14.266   9.492  12.140 -0.1668 -0.1263 -0.0031
23423W        W38554  15.213  12.947   5.221 -0.0762 -0.0444  0.1881
23424W        W38555  12.094   9.208  13.388  0.1815 -0.2102 -0.1079
23425W        W38556   5.114   1.072   5.424 -0.0566  0.0655 -0.0322
23426W        W38557  13.277  16.187  13.028 -0.0675  0.0190  0.1018
23427W        W38558  17.662  12.964   1.420 -0.0461 -0.3023  0.3362
23428W        W38559  15.188   0.637  12.938  0.2101  0.0401 -0.1982
23429W        W38560   2.865  11.371  15.811 -0.0946 -0.0974  0.0664
23430W        W38561  14.313   5.138   2.499 -0.2153 -0.1234  0.0634
23431W        W38562  12.017  13.035  13.934 -0.0615 -0.1012  0.3730
23432W        W38563   2.840   8.191   5.602  0.0385  0.2586 -0.0563
23433W        W38564  15.555   3.572   5.213  0.0474  0.0907  0.1221
23434W        W38565   1.234   4.507  13.368 -0.2636 -0.2825 -0.1219
23435W        W38566  11.116  10.134   5.489  0.1482 -0.0921  0.0794
23436W        W38567   1.033   9.209  12.341 -0.1092  0.1010 -0.0948
23437W        W38568   3.413   8.508  16.188  0.0570 -0.2869 -0.0692
23438W        W38569  11.524  16.109  16.068  0.0527  0.0908  0.0413
23439W        W38570   6.939  17.965   3.694  0.2187  0.0998  0.0850
23440W        W38571  12.664   8.978  13.204 -0.1358 -0.2070  0.0062
23441W        W38572   3.102   4.402   4.712 -0.0692 -0.4246  0.0859
23442W        W38573  15.134  13.742   2.602  0.2778 -0.0934 -0.0145
23443W        W38574   8.209  16.463  12.860  0.0573 -0.3796 -0.0580
23444W        W38575  11.147   2.039   3.143 -0.1507 -0.0155  0.0072
23445W        W38576   1.765   1.751   5.323 -0.0633 -0.0500 -0.2094
23446W        W38577   7.742   6.701   9.721  0.1459 -0.0971 -0.2962
23447W        W38578  10.914   7.582  13.818  0.1493  0.0296  0.2746
23448W        W38579  12.824  13.302  12.652  0.0923 -0.0913  0.0501
23449W        W38580  15.839   2.126   0.469  0.0600 -0.0286 -0.0765
23450W        W38581   9.721   7.587   1.895  0.1691  0.1545  0.1224
23451W        W38582   0.751  15.082  14.773 -0.2441  0.0462 -0.0175
23452W        W38583  15.803   6.481  16.219  0.2270 -0.2193  0.0435
23453W        W38584   5.414  14.496  13.466 -0.0864  0.1726 -0.2429
23454W        W38585   0.276  16.534  15.809  0.0128  0.1332  0.5041
23455W        W38586  12.887   5.802   0.100  0.2134  0.1073 -0.1300
23456W        W38587   1.720  13.776   1.380 -0.0101  0.0984 -0.2457
23457W        W38588   7.134  14.794   2.907 -0.3380 -0.2019 -0.0658
23458W        W38589   0.558  13.705  11.214 -0.1369  0.0987  0.0913
23459W        W38590  10.503   8.837   0.392 -0.3000 -0.4338 -0.0854
23460W        W38591   5.699   5.395  12.655 -0.0292 -0.2148 -0.2146
23461W        W38592  15.716   4.766  11.910 -0.1713  0.2891  0.0655
23462W        W38593  16.510   8.492   4.931  0.1480 -0.0396  0.1420
23463W        W38594   7.850   8.776   4.535  0.2179  0.0667 -0.0338
23464W        W38595   9.760  13.963  14.116 -0.0556 -0.1336  0.2504
23465W        W38596   6.328   7.598  16.091 -0.1462  0.3209 -0.1270
23466W        W38597   5.525   5.770  15.917 -0.0386  0.0476 -0.0277
23467W        W38598   1.238   6.533   0.745  0.0592 -0.1292 -0.0380
23468W        W38599  11.859   9.494   4.987 -0.1542 -0.2645 -0.3813
23469W        W38600  12.228  10.863   0.269 -0.2375 -0.0966  0.0612
23470W        W38601   0.945  15.463   1.263  0.0378  0.3731  0.0535
23471W        W38602  13.304   3.307  11.269 -0.1504  0.1615  0.0854
23472W        W38603   4.702  14.779   3.486 -0.2790 -0.1223 -0.2744
23473W        W38604  12.919   3.897   1.240 -0.1164 -0.0536  0.1040
23474W        W38605  12.818   2.012  11.227 -0.1893 -0.2020  0.1721
23475W        W38606   9.701  13.815   1.567  0.0597 -0.2663  0.0528
23476W        W38607   7.003   4.822  14.266 -0.0404 -0.0926 -0.1281
23477W        W38608   8.488  11.989  12.010  0.1348 -0.2699 -0.3193
23478W        W38609   3.927   6.110  12.579  0.2039 -0.1658  0.4410
23479W        W38610   2.810  17.999  11.941 -0.3132  0.0615 -0.0599
23480W        W38611  10.465   4.294   5.229 -0.0530  0.0866 -0.0005
23481W        W38612  10.151  10.425   0.757 -0.0456 -0.3123 -0.0401
23482W        W38613  11.173   7.868  13.477 -0.0888  0.0037 -0.0316
23483W        W38614  11.654   8.275  11.905  0.1689 -0.0059 -0.3626
23484W        W38615   5.327   9.558  10.127 -0.1785  0.2506 -0.1694
23485W        W38616  16.173   0.288  14.342  0.2243  0.3184  0.2229
23486W        W38617   0.620  15.169  15.255  0.0644 -0.0708  0.0484
23487W        W38618   6.100  15.104  11.765  0.0561 -0.1471  0.3772
23488W        W38619   3.947   7.915  13.231 -0.1701  0.3412  0.0671
23489W        W38620  17.062   6.972  15.620  0.2731  0.1041 -0.2777
23490W        W38621   8.667  15.003  12.082  0.1480  0.1701  0.0368
23491W        W38622   9.132  11.941   5.661 -0.1315  0.1888 -0.0188
23492W        W38623   4.282   1.367   4.259  0.1671  0.0639  0.2736
23493W        W38624   3.401   2.387   3.053 -0.0492  0.5641  0.0821
23494W        W38625  13.887   6.384   1.024  0.1375  0.1324 -0.1802
23495W        W38626   4.472   3.755   4.360 -0.0796  0.1927  0.0293
23496W        W38627   1.763   2.307   3.778  0.0528 -0.0649 -0.1718
23497W        W38628  14.167   1.194   4.501  0.1039 -0.1942  0.0288
23498W        W38629   6.812   7.379   2.777  0.1572  0.2854  0.0931
23499W        W38630  17.655   6.197  15.277 -0.0291 -0.1499 -0.1342
23500W        W38631  17.054   0.723   0.585 -0.0934  0.1675 -0.0285
23501W        W38632  16.652  12.675   1.779  0.1231 -0.0918 -0.1660
23502W        W38633  12.106   9.103  12.462 -0.1149  0.1017 -0.2183
23503W        W38634   6.616  12.543  11.826 -0.2916 -0.0824  0.1493
23504W        W38635  13.287   3.263   1.879  0.1101  0.2558  0.0148
23505W        W38636  16.438   2.046   3.805  0.0301 -0.0135 -0.0290
23506W        W38637  14.174   6.606   2.028 -0.1107 -0.0157  0.0484
23507W        W38638   2.699   3.839   0.814 -0.2314  0.1809 -0.1124
23508W        W38639   5.028   5.708   5.412 -0.2478 -0.0344  0.1548
23509W        W38640   1.157  11.570   4.963  0.2843 -0.3593  0.0689
23510W        W38641   1.149   1.917   4.720 -0.0441  0.1014  0.4160
23511W        W38642   2.193  12.314  12.050  0.1250 -0.0404  0.4794
23512W        W38643  13.316  13.885  16.064 -0.1899 -0.3075  0.2177
23513W        W38644   8.717  12.906  11.680  0.2215  0.3034 -0.3894
23514W        W38645  12.187   7.511  11.751  0.1113 -0.0072  0.1469
23515W        W38646   7.119   0.451   2.733 -0.1842 -0.2144 -0.0834
23516W        W38647  16.798  16.705   1.955 -0.0135 -0.2094  0.0365
23517W        W38648   7.665   1.469  11.677 -0.1595  0.2190  0.1191
23518W        W38649   4.633  16.203   2.180  0.2433 -0.0507  0.0040
23519W        W38650  16.908   6.006  14.421  0.0216  0.3751  0.0344
23520W        W38651   3.458  10.390   1.524  0.0921 -0.3041 -0.0482
23521W        W38652   5.079   1.418   3.215  0.2718 -0.0407 -0.0119
23522W        W38653  18.035   4.636  13.650  0.1097  0.1567  0.0430
23523W        W38654  14.814  12.984   4.862 -0.0159  0.2375  0.0643
23524W        W38655  10.658  17.549   4.619 -0.1530  0.1155 -0.0104
23525W        W38656  10.023   9.824  10.979  0.1181 -0.0233 -0.0363
23526W        W38657  17.466   0.254   3.598  0.0951  0.0860 -0.3113
23527W        W38658  13.735   9.561  13.499 -0.2403  0.2632  0.3269
23528W        W38659   7.030  10.190   5.382  0.2311 -0.2430  0.0049
23529W        W38660   1.656  12.038  13.606 -0.0543  0.3773  0.0414
23530W        W38661   9.562   3.655   1.283  0.0472 -0.0018 -0.4213
23531W        W38662   6.318   7.824  13.556 -0.0833 -0.4303 -0.2753
23532W        W38663  12.749   5.688  15.612 -0.0987  0.1174 -0.0863
23533W        W38664   6.581   5.334  11.214 -0.0573  0.0237  0.1566
23534W        W38665   1.397   9.892  13.689  0.2500 -0.1896 -0.0833
23535W        W38666  11.428  11.325   3.863  0.0307 -0.1039 -0.3149
23536W        W38667   3.400   1.253   2.912  0.0439 -0.0696  0.0565
23537W        W38668  14.852   3.859   4.053 -0.0532  0.2332  0.1487
23538W        W38669   3.333  13.528   4.207 -0.1552  0.2498 -0.2444
23539W        W38670   6.466   7.546   2.492  0.0768 -0.0652  0.0961
23540W        W38671   1.532   0.967  12.526  0.0081  0.2334  0.0852
23541W        W38672  14.503   3.365   0.729  0.0754 -0.2151 -0.0603
23542W        W38673   9.327  10.297   1.242  0.2002 -0.1423 -0.0648
23543W        W38674  13.180  12.042   5.273 -0.1893  0.1066  0.2141
23544W        W38675   6.881  16.493  11.762 -0.0982 -0.2279 -0.1083
23545W        W38676   5.922  10.199  11.077  0.0401 -0.0170 -0.0882
23546W        W38677  12.802   7.921   0.976 -0.2442 -0.0856  0.1869
23547W        W38678   0.772   8.386   1.505 -0.0395 -0.1255  0.0542
23548W        W38679   3.791   5.542   0.321  0.0146 -0.2285  0.1052
23549W        W38680  17.975  14.392  11.581 -0.2502 -0.0519 -0.1681
23550W        W38681   3.153   9.546   0.615 -0.2511  0.1851 -0.0221
23551W        W38682  15.652   0.895  12.176  0.1817 -0.0667 -0.1164
23552W        W38683   6.723   1.341  12.986  0.0595 -0.0559  0.2022
23553W        W38684   0.168  13.725  12.158 -0.1195 -0.2361  0.0991
23554W        W38685  12.170   4.879   1.324  0.1566  0.0644  0.2246
23555W        W38686   6.051  14.671  13.452 -0.0175  0.2052 -0.1003
23556W        W38687   6.352  16.770  15.455  0.0452  0.0166  0.0074
23557W        W38688   8.393   0.426   6.062  0.0020 -0.4417  0.0287
23558W        W38689  15.560   1.020   0.466  0.1847  0.0082  0.0739
23559W        W38690  15.796   4.895   5.865 -0.2807 -0.2061 -0.4325
23560W        W38691  13.931  17.101  10.993 -0.1080  0.1444  0.2961
23561W        W38692  14.650  11.915   2.326 -0.2383 -0.1444  0.1098
23562W        W38693   3.824   4.815   1.579  0.1807 -0.2253  0.0198
23563W        W38694   3.067  17.229   1.644 -0.0179 -0.0714 -0.3561
23564W        W38695   6.894   7.610  13.529  0.1176 -0.0685 -0.2340
23565W        W38696   2.113  14.360  11.027  0.0791 -0.2199 -0.0158
23566W        W38697   9.064  15.841  11.590 -0.0470  0.3262  0.3757
23567W        W38698  15.023   7.911  15.443 -0.0309  0.2172 -0.1356
23568W        W38699  17.811  18.071  11.249  0.1637  0.0724  0.0843
23569W        W38700   3.172  13.946   1.673 -0.0353 -0.0536 -0.2538
23570W        W38701   0.112  13.105  15.345  0.3330 -0.1462  0.2134
23571W        W38702   1.060   2.998   2.869  0.2336 -0.0088  0.0850
23572W        W38703  17.960   7.719  11.560 -0.3584  0.2788  0.0882
23573W        W38704   7.659  16.240   1.744 -0.0857 -0.0984 -0.1981
23574W        W38705  10.162   5.974   4.174 -0.1381 -0.1839 -0.4585
23575W        W38706   7.382  16.414  14.871  0.2895  0.0175  0.0243
23576W        W38707   4.569  15.667   0.970  0.4058 -0.1543 -0.1762
23577W        W38708  16.900  10.991   6.533  0.1956  0.2300  0.1457
23578W        W38709  15.029  15.673   5.023 -0.0055 -0.2576 -0.3705
23579W        W38710   3.682   1.663   4.622 -0.0152  0.0386  0.3038
23580W        W38711   5.047  14.661   4.923  0.0893  0.1732  0.3752
23581W        W38712   9.434  18.058   0.167  0.2803  0.0248 -0.3479
23582W        W38713  10.218   9.848  13.222  0.1745 -0.0040 -0.1249
23583W        W38714   0.754  10.303   1.159  0.0174  0.0236  0.2560
23584W        W38715   3.704  16.167  13.116 -0.0385  0.0766  0.2669
23585W        W38716   3.329   2.132   1.375  0.0673  0.4065  0.3386
23586W        W38717  11.381   2.043   2.603  0.0404  0.0764  0.0095
23587W        W38718  13.480   1.866  15.958 -0.1357 -0.0480 -0.1644
23588W        W38719  17.445  17.282  15.436  0.3031  0.0587  0.1956
23589W        W38720   6.776   8.482  11.108 -0.0810 -0.1570 -0.1632
23590W        W38721  10.101   3.833  13.050 -0.0240  0.0240  0.1791
23591W        W38722  13.978  17.700  11.529 -0.0441 -0.1518  0.1182
23592W        W38723   2.483  11.686   0.546  0.0642 -0.0315 -0.1098
23593W        W38724   6.602   1.262  10.649 -0.0455  0.0819 -0.0923
23594W        W38725   8.264   1.985  11.835 -0.0471  0.0002  0.0570
23595W        W38726   0.260  15.819   5.073  0.4539 -0.1851 -0.3554
23596W        W38727  13.636  10.552   3.131  0.0799 -0.0791  0.1697
23597W        W38728   8.124   8.541   2.298  0.0148 -0.2538  0.3313
23598W        W38729   9.354  11.317  15.029 -0.0388  0.1987 -0.2409
23599W        W38730  17.507  12.763  13.696 -0.0370  0.0691  0.2697
23600W        W38731   2.478   5.944   6.089 -0.1320 -0.0944 -0.1390
23601W        W38732  14.827  12.967   3.037 -0.0572  0.0910 -0.0658
23602W        W38733   4.336   7.532  15.382  0.3723 -0.2115  0.3127
23603W        W38734   6.039   5.078  12.861  0.0584 -0.0195 -0.0587
23604W        W38735   3.987   8.753  10.765 -0.2188  0.0800  0.1821
23605W        W38736  10.441   9.219  15.110 -0.0366 -0.1558 -0.2452
23606W        W38737  17.675  14.851   0.075 -0.1406  0.0275 -0.1797
23607W        W38738  13.549   2.699  13.108 -0.0362  0.1353  0.2041
23608W        W38739  10.079  16.209   1.888 -0.2385  0.1163 -0.2902
23609W        W38740   6.633   2.186   3.988  0.0415  0.0060  0.0651
23610W        W38741  11.494   6.836  13.010 -0.0965  0.2406 -0.0801
23611W        W38742   3.498   2.587   1.742 -0.1945  0.3428  0.0383
23612W        W38743  15.458   7.010   3.973 -0.1201  0.1860  0.3970
23613W        W38744  10.762   9.732   5.316  0.0201 -0.4575  0.0439
23614W        W38745  14.280  14.878   1.069  0.1424  0.0374  0.1305
23615W        W38746   5.332   1.061   0.273  0.1753 -0.3323 -0.3086
23616W        W38747  13.948  11.928   4.731 -0.0581  0.0964  0.0269
23617W        W38748   7.792   6.496   2.114 -0.0287  0.2553  0.0304
23618W        W38749  13.259   8.542   4.526 -0.2716 -0.3103 -0.4135
23619W        W38750   1.377   2.550   5.761  0.0532  0.0025 -0.0700
23620W        W38751   2.361  17.099   0.589  0.0960 -0.2065  0.1766
23621W        W38752  17.781  11.704   1.977  0.0890  0.1332  0.3792
23622W        W38753  17.339  16.708  13.346  0.0358 -0.0723 -0.0466
23623W        W38754   5.993  14.512  14.579 -0.1885 -0.0695 -0.1550
23624W        W38755   1.849  16.687  15.404 -0.0146  0.0558 -0.0391
23625W        W38756  15.516   4.501   0.539 -0.0253 -0.2665 -0.0044
23626W        W38757  16.127  14.032  14.822  0.0642  0.0834 -0.1116
23627W        W38758   5.738  15.274  12.002 -0.0872  0.3021  0.2161
23628W        W38759   9.627   3.828  13.128 -0.2599 -0.5073 -0.0021
23629W        W38760   7.316   4.004   3.625  0.3291 -0.1187 -0.3085
23630W        W38761   8.740   6.609   1.767  0.0784 -0.1319 -0.0770
23631W        W38762  12.503   2.341   3.290  0.3273 -0.0946 -0.0164
23632W        W38763  10.022   0.209   5.486  0.1950  0.2653 -0.2918
23633W        W38764   8.433   7.966  15.423  0.3504  0.0384 -0.2225
23634W        W38765  15.460   8.170  15.328  0.0347  0.1872  0.1289
23635W        W38766  11.158   3.291  15.743  0.2817 -0.0563 -0.3387
23636W        W38767  11.959   5.760   1.624  0.2993  0.1108 -0.0454
23637W        W38768   0.594   2.123  11.290 -0.0460  0.1969  0.0516
23638W        W38769   3.126   0.763   2.279  0.1613  0.0002 -0.0594
23639W        W38770   2.806  13.057  11.895  0.1677  0.1688  0.1327
23640W        W38771   0.816   5.896   3.024  0.1437  0.4609  0.0615
23641W        W38772   4.051  13.214   3.518 -0.1825 -0.2168  0.0712
23642W        W38773   4.061  13.745   2.535 -0.2608  0.1908 -0.0740
23643W        W38774  14.770   2.258   0.790  0.2180 -0.1184  0.1519
23644W        W38775  17.410   8.393   2.178  0.2696  0.2670  0.2976
23645W        W38776   1.018   7.550  12.386 -0.2535  0.2555  0.0680
23646W        W38777   9.856  16.573  14.530 -0.0432  0.3524  0.0563
23647W        W38778  13.089  16.355  13.602 -0.0683 -0.2523 -0.2668
23648W        W38779  12.965  17.013  15.091  0.4996 -0.0579  0.0015
23649W        W38780   6.639  11.593  12.063 -0.1118 -0.2661 -0.4308
23650W        W38781  16.639  15.451   5.549  0.0166 -0.2385  0.0893
23651W        W38782   4.898  14.246  13.847  0.0223 -0.0838 -0.1351
23652W        W38783  15.038  14.955  12.358  0.0659 -0.1255 -0.0364
23653W        W38784   2.571   6.157  13.623 -0.1866 -0.1686  0.2269
23654W        W38785  11.859  12.398   5.708  0.2043  0.1517 -0.0153
23655W        W38786  12.826  17.748  15.185  0.1306  0.4524 -0.0664
23656W        W38787   9.484  10.957  14.578  0.3432 -0.0989 -0.0242
23657W        W38788   4.810  13.456  14.453  0.1652  0.0798 -0.2798
23658W        W38789  12.200  17.964  13.757  0.2027 -0.2787  0.1970
23659W        W38790   9.966   5.585  10.475  0.0154 -0.0992 -0.0145
23660W        W38791   7.001   2.466   1.424 -0.3180  0.1663 -0.3471
23661W        W38792   7.835   0.866  11.012 -0.1143  0.0590  0.0209
23662W        W38793  10.716   1.724   3.197  0.0884  0.1222  0.2664
23663W        W38794   4.823  16.654   4.243  0.1445 -0.0646  0.0650
23664W        W38795  11.933   6.359   2.561  0.3812 -0.1708  0.0016
23665W        W38796   5.114  18.104   0.233  0.0759  0.0629  0.0900
23666W        W38797   0.617   2.257  11.789  0.3036 -0.2215 -0.2022
23667W        W38798   8.454   7.028  10.870  0.0042 -0.0243 -0.1098
23668W        W38799   1.489   6.607   4.649  0.1995  0.1375 -0.1573
23669W        W38800  11.468   7.129  16.356 -0.1310  0.0332  0.0956
23670W        W38801   8.655   1.052   1.554 -0.1163 -0.0845  0.2976
23671W        W38802  11.301  12.735  10.757  0.2713 -0.0043  0.1991
23672W        W38803   9.499  10.755  13.735 -0.1146  0.0057  0.1023
23673W        W38804   9.978  12.141  12.112  0.1240  0.0120  0.6630
23674W        W38805   3.074  17.650  12.210 -0.0591 -0.1757  0.2940
23675W        W38806  15.856  17.555  12.185 -0.2146 -0.1925 -0.1188
23676W        W38807  17.884  10.721  12.057  0.0328 -0.0176 -0.0212
23677W        W38808  12.467   3.369   2.634  0.2629  0.2442 -0.2185
23678W        W38809  16.650   2.440   0.451 -0.1427  0.1524 -0.2447
23679W        W38810  15.027   1.361  15.055 -0.2534 -0.0945  0.0857
23680W        W38811   0.150   1.876   4.081 -0.2737 -0.0721  0.0247
23681W        W38812  10.432  16.451   4.274  0.0488 -0.0895  0.2261
23682W        W38813   2.792  15.032  15.867 -0.3163  0.1360  0.0716
23683W        W38814  12.808   7.981   1.446  0.0529  0.1255  0.1615
23684W        W38815   0.646   0.144   4.627 -0.3106 -0.0032 -0.0443
23685W        W38816  16.083   2.986   4.353  0.4210 -0.0388  0.1067
23686W        W38817   1.665  13.295   6.283 -0.3447  0.0870 -0.0663
23687W        W38818  10.418  11.614  13.174  0.1124 -0.1033  0.2562
23688W        W38819   0.908  13.100  12.151 -0.1581 -0.1113 -0.3961
23689W        W38820  10.185  14.737  13.555 -0.0730 -0.0449  0.0717
23690W        W38821   4.051   9.022   1.876  0.0527  0.0903  0.0888
23691W        W38822   7.323  11.958  14.548  0.3018  0.0273 -0.0264
23692W        W38823  11.561   5.469   2.527  0.2099  0.0530 -0.0229
23693W        W38824   7.975   1.170   3.070  0.5272  0.1041 -0.0813
23694W        W38825   4.614   1.812   5.714 -0.2968 -0.3449  0.3118
23695W        W38826   1.431  12.122  12.800  0.1220 -0.2702  0.2192
23696W        W38827  10.060  10.947   3.520  0.3324 -0.0714  0.3110
23697W        W38828  10.521   7.794   1.345 -0.3278  0.1577  0.0839
23698W        W38829  14.515  16.563  12.189  0.2463  0.1382 -0.2726
23699W        W38830  14.910   8.539  13.681 -0.2901 -0.0558 -0.0613
23700W        W38831   0.664   9.164   2.563 -0.1025  0.0353  0.1140
23701W        W38832   0.296  17.160  10.164 -0.1423  0.2334 -0.0628
23702W        W38833  13.879  12.617  11.195  0.2350  0.1666  0.0125
23703W        W38834   3.493  14.567   1.662  0.0191 -0.0320 -0.0848
23704W        W38835  13.225  17.233   5.980  0.2657  0.1568 -0.0263
23705W        W38836   4.680   9.864  10.794  0.0272  0.1152 -0.0950
23706W        W38837  14.176   7.766  11.657 -0.1282 -0.1095  0.1996
23707W        W38838   8.869   8.756  15.258 -0.1862 -0.1233 -0.0256
23708W        W38839   3.698   8.529   3.375  0.3363 -0.0968  0.0243
23709W        W38840   8.752   1.568   3.407  0.1981  0.0093  0.1091
23710W        W38841   0.448   2.016  12.159 -0.4429  0.2129  0.0672
23711W        W38842  10.845   2.530   3.182  0.0614  0.0155  0.1057
23712W        W38843   6.212   1.900   0.416 -0.0473  0.1231 -0.1997
23713W        W38844   8.237   4.389  11.343 -0.0760  0.0115 -0.2644
23714W        W38845  15.404  12.970  12.584  0.2415 -0.1091 -0.0788
23715W        W38846   6.112  10.145   4.662 -0.2182 -0.0093 -0.3125
23716W        W38847  13.698   8.051  13.561  0.0505  0.1745 -0.0071
23717W        W38848   0.247   0.996  14.866  0.0878  0.0828  0.0596
23718W        W38849  16.837   6.785  11.801  0.3098  0.2468  0.0041
23719W        W38850   0.995  13.717   2.345 -0.4031 -0.0767  0.2576
23720W        W38851   5.635  15.564   1.272 -0.0602 -0.1304  0.0663
23721W        W38852   1.140  16.525   0.830 -0.1198  0.2349 -0.3297
23722W        W38853   4.756  12.025   1.130  0.2182 -0.0640  0.1667
23723W        W38854  15.160  12.771  15.548  0.4250 -0.2598 -0.1926
23724W        W38855  17.752   8.027  13.613 -0.0500 -0.0202 -0.0807
23725W        W38856   8.127   9.757  12.051  0.0746  0.0812  0.0201
23726W        W38857  17.239  14.026   2.862 -0.0593 -0.3533 -0.0135
23727W        W38858  14.375  17.699  13.523  0.2894 -0.1715  0.2666
23728W        W38859  14.883   1.480   5.886  0.2112 -0.0890  0.2462
23729W        W38860  17.590   4.027  13.578  0.1486  0.4542  0.0871
23730W        W38861  16.124   9.530   3.525 -0.0643  0.0554  0.1171
23731W        W38862   6.324  12.804  10.678  0.1742  0.1152 -0.2603
23732W        W38863   3.887   9.190  14.180 -0.0101 -0.1319  0.0993
23733W        W38864  16.880   0.262  16.227  0.0207 -0.0213 -0.0291
23734W        W38865   7.329   6.705  16.137 -0.3788 -0.1022  0.3571
23735W        W38866  13.908   3.917  15.684 -0.2911  0.0704  0.0292
23736W        W38867   5.577   0.826  11.600  0.1000  0.1458  0.0826
23737W        W38868  14.106  15.346   1.469 -0.4560 -0.0132 -0.2549
23738W        W38869   5.536  16.260   5.558 -0.2840 -0.1594  0.0152
23739W        W38870   5.814  17.025  16.366 -0.4221 -0.0923 -0.3005
23740W        W38871   8.800  17.920  15.882 -0.3054 -0.1873  0.0182
23741W        W38872  14.326  13.106  12.406  0.1821  0.0062 -0.1635
23742W        W38873  13.724   7.912   2.250  0.0146  0.0264 -0.2723
23743W        W38874   1.284  16.842  11.277 -0.1467 -0.1157  0.0678
23744W        W38875   3.477  15.693  13.715 -0.0179  0.2693  0.1118
23745W        W38876  13.567  16.003  14.111  0.1448 -0.1651  0.0185
23746W        W38877   5.580   0.374  12.941  0.3146 -0.0987 -0.1690
23747W        W38878  16.763   2.148   1.501 -0.5031  0.0016 -0.5512
23748W        W38879  15.363  11.656  12.871 -0.0072  0.3356  0.0596
23749W        W38880   3.636  16.942  16.347 -0.1768  0.0376  0.0705
23750W        W38881  14.323  10.389  12.442 -0.1952 -0.2086 -0.3258
23751W        W38882  14.107  12.279  15.865 -0.2628 -0.0462 -0.0199
23752W        W38883  15.521   3.591   2.637  0.2677  0.0936  0.1735
23753W        W38884   7.783  12.404  10.839  0.1332 -0.0136  0.2491
23754W        W38885  11.585   8.087  14.364 -0.2794 -0.1561  0.1783
23755W        W38886   3.276  11.938  11.192  0.1277 -0.0479  0.0498
23756W        W38887  17.753  14.198   2.879 -0.2131 -0.1697  0.1191
23757W        W38888  14.908  16.076   4.613  0.2391  0.2107 -0.0233
23758W        W38889  13.687   6.405  11.942 -0.3633  0.0944  0.0529
23759W        W38890   2.648   2.866  11.678  0.2987  0.0584  0.1515
23760W        W38891  10.485   7.119   3.696  0.0913 -0.1108 -0.2822
23761W        W38892  10.119   0.908  12.188  0.0638 -0.0302 -0.0878
23762W        W38893   8.752   3.460  14.048 -0.0945  0.1751 -0.0451
23763W        W38894   0.951   1.213  10.996  0.0941  0.1929 -0.2035
23764W        W38895   5.182   9.331   3.142  0.1561  0.2696 -0.3361
23765W        W38896   1.709   6.010  11.431  0.0223  0.1659  0.2946
23766W        W38897   0.236  12.782   2.634  0.0927 -0.0907 -0.0796
23767W        W38898  11.549   1.216   0.668  0.1255 -0.1832 -0.0180
23768W        W38899  11.590   5.013   2.177 -0.1080 -0.0807  0.3021
23769W        W38900  15.934  13.885   0.289 -0.0274 -0.1963 -0.0315
23770W        W38901  14.719   8.426   3.685  0.0353  0.1691  0.1848
23771W        W38902  17.452   3.040   4.552 -0.1847  0.2967  0.2408
23772W        W38903  12.944   3.686   0.424  0.1505  0.0986 -0.2845
23773W        W38904  10.823  14.691  11.608 -0.1529  0.1945  0.0122
23774W        W38905  11.253   4.166   3.064  0.1656 -0.1479 -0.1236
23775W        W38906   6.022   6.024  15.578  0.1452  0.0015  0.0659
23776W        W38907   1.778   8.535  15.160 -0.3586 -0.0144  0.0810
23777W        W38908  14.688  12.170  11.253  0.1022  0.0436  0.0888
23778W        W38909  13.431  16.256   2.112  0.1879 -0.0966  0.3542
23779W        W38910   9.195  17.217   2.316  0.0856 -0.1282  0.1073
23780W        W38911   6.656   5.485   4.855  0.1717  0.2491  0.1076
23781W        W38912   4.277  11.887   0.230 -0.0645  0.1163 -0.1875
23782W        W38913  15.676  14.110   0.654 -0.0517  0.0019 -0.1376
23783W        W38914   7.704   0.110  13.265  0.0837  0.0345  0.1174
23784W        W38915  14.038   6.298  16.361 -0.2412  0.2003  0.0471
23785W        W38916   3.665   3.131  13.435 -0.0893 -0.0635  0.2223
23786W        W38917   3.660   1.441  13.564  0.1765  0.0520  0.3007
23787W        W38918   7.629   1.052   5.160  0.1222  0.2986  0.0093
23788W        W38919  13.032   9.437  14.530 -0.1437  0.2197  0.0434
23789W        W38920  17.691   2.625  13.466 -0.0436 -0.2247 -0.0328
23790W        W38921   9.822  16.727  11.112 -0.2457 -0.1925 -0.1790
23791W        W38922   1.215   6.599  11.358 -0.3234  0.2092  0.0062
23792W        W38923   3.725   5.817   4.959 -0.1095 -0.4393  0.0225
23793W        W38924   9.955  13.219  13.858 -0.2146 -0.0837 -0.3794
23794W        W38925  15.502   7.101   5.160  0.0075  0.0482  0.1161
23795W        W38926   8.541   0.938   4.630 -0.3553 -0.0175  0.1161
23796W        W38927  14.219   3.273  12.635 -0.1251 -0.2697 -0.1846
23797W        W38928   6.044  17.888   0.537  0.1569 -0.0254  0.1702
23798W        W38929  11.352   9.640   3.550  0.4972  0.2672  0.0823
23799W        W38930   3.812  11.680  15.809 -0.2076  0.2357 -0.2210
23800W        W38931   5.003   0.907  16.389  0.0694 -0.0059  0.1483
23801W        W38932  16.488  11.611   4.009  0.0385 -0.1440  0.3491
23802W        W38933  12.234   2.057  12.077  0.0358 -0.2163 -0.3827
23803W        W38934   4.118  12.009  13.419  0.0417 -0.5497  0.2471
23804W        W38935  15.177   1.308   0.297 -0.0824 -0.1467 -0.4405
23805W        W38936  16.695   2.585  13.394 -0.1412  0.1114  0.0902
23806W        W38937  17.546  15.438  15.430 -0.0118  0.0994 -0.2431
23807W        W38938   8.463   2.492   3.454 -0.3151 -0.0590  0.1436
23808W        W38939   0.097  10.552   2.768 -0.2623 -0.3711  0.0542
23809W        W38940   9.835   9.346  16.211  0.0428 -0.0695 -0.1050
23810W        W38941   4.324  17.288   0.492  0.0802  0.0420  0.3546
23811W        W38942  17.212  17.061  12.285  0.0484  0.1187 -0.1969
23812W        W38943  12.594  13.770  11.931 -0.1769  0.0768  0.0202
23813W        W38944  13.468   0.224  11.247  0.1676 -0.1206 -0.0370
23814W        W38945  12.252  17.668   3.800 -0.0268 -0.1679 -0.1511
23815W        W38946   8.437   8.497  13.085 -0.0168  0.1717 -0.0031
23816W        W38947   0.353  15.894  14.256  0.2432 -0.0724  0.1225
23817W        W38948   8.675  17.895  12.660  0.0087  0.2067  0.1325
23818W        W38949   3.297  17.736   1.553  0.2012 -0.1315 -0.1130
23819W        W38950   6.484  13.235  10.907  0.1043 -0.0026 -0.0934
23820W        W38951  13.856  16.141   3.037 -0.1046  0.0533 -0.0873
23821W        W38952  17.113   7.626   4.135  0.2257 -0.0500 -0.2829
23822W        W38953  13.259  16.725  14.751 -0.2174 -0.1931  0.0409
23823W        W38954   6.470   0.808  12.159  0.1512  0.1722  0.0032
23824W        W38955  13.612  17.153  11.398 -0.1376 -0.1795  0.1585
23825W        W38956  14.847  14.326   4.321 -0.0102  0.0377  0.0942
23826W        W38957   5.455   9.984  11.215 -0.3211 -0.0294 -0.0777
23827W        W38958  10.836   2.074   3.993 -0.0581 -0.0481  0.0103
23828W        W38959  15.433  10.970   4.332 -0.3932  0.2115  0.0201
23829W        W38960   3.444  12.327   0.442  0.2140  0.0022 -0.0959
23830W        W38961   7.924   8.986   3.660 -0.0146  0.1812  0.2443
23831W        W38962   5.182   4.070   9.677  0.3030  0.1092  0.0625
23832W        W38963   2.894   8.835  15.927 -0.0199  0.1428  0.0868
23833W        W38964  14.832  10.947   3.508 -0.2415 -0.0844 -0.1838
23834W        W38965   2.343  17.468  15.836  0.0990 -0.0041 -0.1320
23835W        W38966  16.475   0.729   4.972 -0.1008  0.0751 -0.1829
23836W        W38967   2.043  12.062  14.161 -0.0569 -0.0073 -0.2393
23837W        W38968   4.216  12.714   3.500  0.0340 -0.1454 -0.5219
23838W        W38969   8.386   5.332  13.717 -0.1221  0.0957  0.1416
23839W        W38970   7.639   4.441  14.946 -0.5206  0.2789 -0.1762
23840W        W38971   8.121   8.708   3.203  0.1488 -0.3963 -0.2361
23841W        W38972   8.761   6.634   1.236 -0.2059  0.1766  0.0834
23842W        W38973   2.281   8.592   4.007  0.1585 -0.2240  0.0730
23843W        W38974   7.958   8.160   3.234  0.0344 -0.3742 -0.1220
23844W        W38975  13.511   3.160  13.399 -0.1517  0.2143 -0.2388
23845W        W38976  12.198   0.346   1.717  0.0381 -0.1090 -0.1120
23846W        W38977   3.469  17.649  11.681  0.0331  0.1263  0.1609
23847W        W38978  15.059   0.648  12.452 -0.0759 -0.3972  0.1488
23848W        W38979  17.120   0.250   0.319  0.1572  0.4742 -0.0746
23849W        W38980   0.459  15.022   2.516 -0.0496 -0.1428  0.0498
23850W        W38981  10.543  16.037   1.149 -0.3424  0.0651 -0.3051
23851W        W38982   7.400   8.235  15.822 -0.4401  0.2301 -0.0277
23852W        W38983   0.391  11.523  13.015  0.0480  0.0909 -0.3771
23853W        W38984  11.699   6.560  11.925  0.1434 -0.0732 -0.2951
23854W        W38985   1.072  12.670  12.796  0.1286 -0.0264 -0.0127
23855W        W38986  17.102   8.181   4.387  0.0822 -0.1332 -0.0150
23856W        W38987   4.646   0.556   4.342  0.1074 -0.2484  0.1320
23857W        W38988  15.118  15.621   4.521  0.1595 -0.1057 -0.2329
23858W        W38989  17.056   4.678  16.201 -0.4352 -0.3050  0.0569
23859W        W38990  10.546  14.828  14.187  0.1377  0.1280  0.0339
23860W        W38991   8.794   0.432   5.284  0.2209  0.1867  0.1424
23861W        W38992  18.087   3.746   3.444  0.0920  0.0463 -0.2503
23862W        W38993   8.418   5.722   4.737  0.1210  0.1166 -0.0248
23863W        W38994  11.869  15.211  14.441 -0.0880  0.0327 -0.0573
23864W        W38995   7.350   1.676   4.685  0.2437  0.0291 -0.0502
23865W        W38996   4.706   3.826   1.025 -0.0625  0.0542  0.0755
23866W        W38997   4.649  14.630  14.057  0.3262  0.0295 -0.2854
23867W        W38998  14.025   5.930  15.203 -0.0591  0.0611 -0.2099
23868W        W38999  16.886  18.015  13.991 -0.0150 -0.4154  0.1404
23869W        W39000   4.492   8.763   1.562 -0.0264  0.3185  0.0056
23870W        W39001   4.829  14.565  11.032 -0.0914  0.1375  0.1735
23871W        W39002   0.341   1.175   4.401  0.1471  0.2683 -0.1383
23872W        W39003   9.738  12.219  14.699  0.0347  0.1402 -0.1627
23873W        W39004  10.576   0.561  12.501  0.4901 -0.0377 -0.0408
23874W        W39005   1.729  15.878  16.081  0.0074  0.1978  0.1192
23875W        W39006   4.776   7.883   2.768  0.0752  0.1073 -0.3504
23876W        W39007  12.287  15.700   2.543  0.0129  0.0927 -0.0455
23877W        W39008   2.753  12.991   3.346 -0.0107  0.4486  0.4914
23878W        W39009   9.789   2.722  16.366  0.2174 -0.1752 -0.3628
23879W        W39010  13.739   2.309  13.413 -0.1775  0.2089 -0.1242
23880W        W39011   0.551  11.103   1.366 -0.0937  0.1375  0.2494
23881W        W39012  16.566   8.871   0.882  0.3517 -0.0263  0.2544
23882W        W39013   2.089   5.410   0.598  0.2689  0.2600 -0.1372
23883W        W39014  15.526  17.972   4.457 -0.2113 -0.2773  0.1831
23884W        W39015   1.842   2.683  10.982 -0.0702  0.0437  0.1314
23885W        W39016  10.849   4.214  13.496 -0.2125  0.0026 -0.0035
23886W        W39017  10.284  10.238   4.149 -0.0630  0.1562 -0.2445
23887W        W39018   9.142  14.961   5.394  0.1668  0.0595 -0.3141
23888W        W39019  14.207  14.862   1.545  0.0059  0.1558 -0.0583
23889W        W39020   2.169  15.966  12.071 -0.3440  0.1543  0.0165
23890W        W39021   1.904   0.118  12.336 -0.1775 -0.1301 -0.3039
23891W        W39022   5.858  17.892  12.369 -0.0482 -0.3600  0.2110
23892W        W39023  10.379  17.267  12.214 -0.2134  0.2249  0.3449
23893W        W39024   3.125   1.054   1.303  0.1248 -0.4675  0.0086
23894W        W39025   7.478   8.201   3.348 -0.4718 -0.4435  0.0603
23895W        W39026   4.493   4.920  12.837  0.0677  0.0142 -0.1675
23896W        W39027   2.873   9.210  15.400  0.1285  0.0481 -0.1188
23897W        W39028  11.646   3.336  10.309 -0.2299 -0.0245  0.0101
23898W        W39029   5.061   6.355  16.435  0.1045  0.3708  0.4654
23899W        W39030  13.946   5.216  12.390  0.0269 -0.1069  0.1491
23900W        W39031  13.400   3.000   0.573 -0.1472  0.2588  0.0605
23901W        W39032   2.292   3.491   5.055  0.1036 -0.0484  0.1209
23902W        W39033   1.080   7.256   4.349  0.2669  0.0564  0.3079
23903W        W39034  11.534   9.397   0.223 -0.1136  0.0546 -0.0198
23904W        W39035   6.623  13.757  15.200  0.0312  0.2192  0.0498
23905W        W39036  17.159  14.979  14.952 -0.3727  0.0128 -0.1944
23906W        W39037  11.404   8.645  13.665  0.1390  0.0678 -0.3385
23907W        W39038   9.903   0.746   1.746 -0.1907 -0.0798 -0.2470
23908W        W39039   5.689  10.125   1.434 -0.1229 -0.1452 -0.2006
23909W        W39040  17.468   1.576   0.183  0.0882 -0.1873 -0.0676
23910W        W39041   7.154   2.645   0.786 -0.5310  0.1484  0.0515
23911W        W39042  10.126   9.312   5.411 -0.3449  0.2779  0.1869
23912W        W39043  14.995   9.350  14.065 -0.0557 -0.2709  0.0677
23913W        W39044   6.359   9.122   0.316 -0.1965  0.1287  0.0613
23914W        W39045   9.744   8.224   2.902 -0.0079  0.3597  0.1216
23915W        W39046  13.931   6.807   3.844  0.1070  0.1449  0.1084
23916W        W39047   1.309   8.476   2.401  0.0960  0.1423 -0.1569
23917W        W39048   8.803   5.080  13.699 -0.0113 -0.2267 -0.1601
23918W        W39049  15.308  17.070   4.417  0.0127  0.1974  0.1266
23919W        W39050  18.080   3.057   5.478  0.2076  0.0840  0.1365
23920W        W39051   7.056  11.499   2.299  0.0878  0.3318  0.2575
23921W        W39052   7.342  13.324  14.467  0.2342 -0.0235  0.2447
23922W        W39053   2.742  11.878  11.169 -0.0833 -0.0265  0.2069
23923W        W39054   4.518  11.605  14.360  0.1185  0.3599  0.3517
23924W        W39055  12.500  11.359   2.432  0.1351 -0.0306  0.0337
23925W        W39056  16.251   4.028   0.848 -0.0967  0.1161 -0.0710
23926W        W39057  12.347   7.422   3.684  0.0770 -0.0670 -0.0006
23927W        W39058  16.300   7.008   2.156 -0.1330  0.0315  0.1545
23928W        W39059  10.250   2.861   4.037 -0.1663 -0.0888  0.0086
23929W        W39060   2.786   6.696   2.506  0.0287  0.0709  0.0537
23930W        W39061  12.873   5.804   4.819 -0.2145 -0.1351  0.2866
23931W        W39062   7.132   9.787  11.153  0.0981  0.0631  0.1500
23932W        W39063  14.453  17.670   0.613 -0.3643 -0.0253 -0.1737
23933W        W39064   0.280   1.509  14.955  0.0900 -0.0671 -0.0597
23934W        W39065  10.063  14.197  10.837 -0.2555  0.1957  0.2054
23935W        W39066   0.030   1.388   0.822  0.1414 -0.0377  0.0229
23936W        W39067   2.965  17.720  13.352 -0.1432 -0.0454 -0.2638
23937W        W39068   5.662   4.683  12.451  0.3142 -0.1059 -0.1736
23938W        W39069   1.907  12.401  14.966  0.3225  0.1398 -0.2038
23939W        W39070  13.673   7.151  11.428  0.2552  0.1291  0.1051
23940W        W39071   3.918   7.186   2.281  0.2452 -0.2246  0.1032
23941W        W39072   4.737   2.135   6.076 -0.0073  0.1588  0.0221
23942W        W39073  16.782  16.952   4.093 -0.2389 -0.1501  0.1757
23943W        W39074   1.333   4.406   3.720  0.2022 -0.2229 -0.1763
23944W        W39075   8.499   1.684   5.386  0.1382  0.0898  0.1699
23945W        W39076  11.046  17.458   1.227  0.1115 -0.1170  0.0176
23946W        W39077  16.695   8.038  11.471 -0.1597 -0.1737  0.0480
23947W        W39078  11.627  10.874  15.089 -0.1389  0.0703  0.0300
23948W        W39079   9.381  14.215   1.564  0.0303 -0.1835 -0.0797
23949W        W39080  16.694  17.452  13.325  0.0564 -0.3456  0.3187
23950W        W39081   2.190   9.671   4.442 -0.0838  0.3533  0.0601
23951W        W39082   4.331  16.636   3.621 -0.0980  0.0437  0.2282
23952W        W39083  16.406  14.560  11.819 -0.3514 -0.3644 -0.0521
23953W        W39084   7.740  17.591   1.204 -0.3219  0.2168 -0.0320
23954W        W39085  12.323   6.199  15.679 -0.1166  0.2382  0.3433
23955W        W39086  16.060   4.390  16.215  0.0604 -0.2792  0.0350
23956W        W39087   5.978   4.804   0.332  0.0203  0.0871 -0.2929
23957W        W39088   8.107  10.573   6.397 -0.1974  0.0426 -0.0424
23958W        W39089  15.199   4.481   4.095 -0.0396  0.2586  0.1023
23959W        W39090   0.328   0.330  12.952  0.1936 -0.0411 -0.1725
23960W        W39091   0.308   2.428   3.970 -0.2329  0.1601 -0.0808
23961W        W39092  14.364   4.511   1.327 -0.0998  0.1417 -0.0212
23962W        W39093  14.748   5.208  15.465 -0.0984  0.1046  0.3308
23963W        W39094   9.625  13.582   3.309 -0.0022 -0.0112 -0.1241
23964W        W39095  16.404  15.259  14.633  0.0894 -0.1871 -0.1551
23965W        W39096   1.526  14.532   2.918 -0.0674 -0.1738  0.2582
23966W        W39097   8.787  14.403   3.526 -0.1695  0.1578 -0.2843
23967W        W39098  11.366   6.369  15.597  0.1429 -0.0871 -0.0710
23968W        W39099   7.470   7.128  11.552 -0.3868  0.0607 -0.1394
23969W        W39100   1.028   3.583   3.542 -0.3159  0.0450  0.1886
23970W        W39101  11.914   9.880  16.421  0.2204 -0.1702  0.0072
23971W        W39102  11.821  12.008  13.982  0.1273  0.1185 -0.0369
23972W        W39103  14.735   1.080   4.794 -0.0185  0.1417  0.0232
23973W        W39104   0.332   5.551  14.097 -0.0026 -0.1419 -0.1850
23974W        W39105  11.920  13.190   0.580  0.1397 -0.1831  0.2623
23975W        W39106   8.425  15.042  11.556  0.0079 -0.0492 -0.0382
23976W        W39107   2.246   6.381  13.324 -0.1522  0.0249 -0.2091
23977W        W39108  17.076   5.176  16.409  0.2677  0.2570 -0.1482
23978W        W39109  15.885   4.352   0.255 -0.3067  0.0217 -0.1562
23979W        W39110   6.341   3.267  12.596  0.0096  0.3291 -0.0904
23980W        W39111  17.117  11.408  16.114 -0.1261  0.2388 -0.1990
23981W        W39112   5.927   3.787  16.240  0.0755 -0.0810 -0.0834
23982W        W39113   2.416  12.934  11.507 -0.0422  0.0157 -0.1398
23983W        W39114  10.895   8.062   3.762 -0.0949  0.2175 -0.1011
23984W        W39115  10.686  11.814  16.155  0.2813 -0.0820 -0.2367
23985W        W39116   0.799   8.793   0.572  0.1118  0.1750  0.0433
23986W        W39117  13.014  10.502  12.718 -0.2805 -0.2058 -0.1067
23987W        W39118  13.664   5.337   2.613 -0.0488 -0.1257 -0.3586
23988W        W39119  14.461  14.098  11.453  0.0651 -0.0793 -0.0422
23989W        W39120  13.441  17.932  12.685 -0.0569  0.0716 -0.0348
23990W        W39121  14.888  17.594   1.407 -0.1759 -0.1743 -0.3625
23991W        W39122  14.454  14.789   2.498  0.1634 -0.2111 -0.0968
23992W        W39123  16.639   6.798   5.628 -0.0754  0.1918 -0.1779
23993W        W39124   0.216  17.530   2.733  0.3231 -0.0804 -0.1573
23994W        W39125   7.045   6.627   4.188  0.0259 -0.2957 -0.0439
23995W        W39126   6.144  12.946  12.888  0.0343 -0.2448  0.0529
23996W        W39127   7.816   5.567   0.173  0.1348  0.2022  0.1538
23997W        W39128  16.789  14.890   2.047 -0.0469 -0.1420  0.0421
23998W        W39129  10.034   3.264   5.006 -0.1161 -0.1523 -0.1386
23999W        W39130  14.144  14.037  10.989  0.4605 -0.1150  0.0860
24000W        W39131  15.823   5.741  12.604 -0.0135 -0.2817  0.0049
24001W        W39132   3.690  14.590  11.432  0.2298  0.2419 -0.2467
24002W        W39133   9.411  10.601  11.304 -0.0663 -0.1681  0.1408
24003W        W39134  15.316   8.305   4.322 -0.2582 -0.0448 -0.0337
24004W        W39135   4.884   1.868  12.738 -0.0336 -0.1764  0.2751
24005W        W39136   8.338  11.898   5.166  0.1192 -0.1966 -0.0694
24006W        W39137   5.117   4.475  11.931 -0.2248 -0.0531  0.2285
24007W        W39138  14.914   5.004   5.664  0.2773  0.2584  0.1523
24008W        W39139  17.651  15.035  12.449  0.3534  0.2551 -0.0903
24009W        W39140  12.820   9.590  15.475 -0.1814 -0.3617 -0.1009
24010W        W39141   4.402  13.545  11.080  0.0355 -0.1315  0.3821
24011W        W39142  16.162  17.378  14.023  0.0445  0.0385  0.3441
24012W        W39143  12.410  14.580   0.546  0.2277 -0.1880 -0.1242
24013W        W39144   2.883   1.267  14.098  0.0686  0.0204 -0.2847
24014W        W39145  11.306   8.539  10.985  0.0073 -0.1530 -0.0169
24015W        W39146  15.325  12.065  12.232 -0.3052  0.1176 -0.1780
24016W        W39147   6.586  17.430   3.690  0.2424 -0.0732 -0.0534
24017W        W39148  12.520   1.419   0.982 -0.0442  0.0947 -0.1380
24018W        W39149  16.623   6.060  13.459 -0.0357 -0.1357  0.0840
24019W        W39150  17.471   5.863   5.525 -0.1167 -0.2925 -0.0817
24020W        W39151   1.571  16.485   0.306  0.0290  0.1630  0.0094
24021W        W39152   3.605  17.619   1.135  0.0726  0.1791  0.0372
24022W        W39153   3.572  13.798   0.994 -0.0367 -0.0645  0.0482
24023W        W39154  11.656  16.809   0.501 -0.3122 -0.1287 -0.2641
24024W        W39155  10.104   1.183  14.983  0.1671  0.2400  0.1851
24025W        W39156   2.507   0.798  13.899 -0.0683 -0.1178 -0.0759
24026W        W39157   4.768   3.159   3.575  0.2513  0.0575  0.3588
24027W        W39158   7.266   5.401   5.439  0.2241 -0.1118 -0.1429
24028W        W39159   8.036  17.094   3.755  0.0638 -0.1687 -0.0309
24029W        W39160   4.566  16.844   5.310  0.0737 -0.2280 -0.2453
24030W        W39161  16.416   4.562  12.622  0.0369 -0.0550 -0.0786
24031W        W39162   4.382   8.005   3.987  0.4185 -0.1049  0.2790
24032W        W39163   5.808   1.979  13.055 -0.0643  0.0839 -0.1963
24033W        W39164   5.205  10.892  12.845 -0.0700  0.1999  0.1646
24034W        W39165   0.375   5.111   5.724  0.0146  0.3657  0.0063
24035W        W39166   6.109   8.047  16.034  0.0077 -0.2455  0.1622
24036W        W39167   3.678   5.903   0.649  0.0227 -0.0782 -0.2520
24037W        W39168   2.134  10.703  11.789  0.0183 -0.4886  0.0108
24038W        W39169   5.436  16.772  13.313 -0.3173 -0.1977 -0.0577
24039W        W39170   1.043   7.083  15.958 -0.0630  0.0514 -0.0105
24040W        W39171   1.109  11.927  10.073  0.0341  0.1842 -0.0477
24041W        W39172  13.511  16.911   5.278 -0.0697 -0.0470  0.0693
24042W        W39173  12.119  15.376   4.684  0.0886  0.1821  0.0623
24043W        W39174   1.699  11.612   4.901 -0.0216  0.1009 -0.0356
24044W        W39175   1.554  10.514  11.001  0.3482 -0.2445 -0.0694
24045W        W39176  11.309   9.347   3.121  0.0299 -0.1738  0.1391
24046W        W39177   2.034   2.256  16.011  0.0809  0.2172  0.0112
24047W        W39178  16.618   9.941   2.886  0.0247  0.2731 -0.2508
24048W        W39179  10.826   8.241  16.153  0.1737 -0.0784  0.0228
24049W        W39180  17.507  11.369  14.015 -0.1133 -0.3028  0.1170
24050W        W39181  16.076  11.368   3.363  0.3121  0.2693  0.1562
24051W        W39182   4.193   5.167   1.726 -0.4450 -0.1038  0.1785
24052W        W39183   6.789   7.428   5.736  0.1181 -0.2913 -0.1378
24053W        W39184   2.575  10.926  13.500  0.0628  0.0290  0.0997
24054W        W39185  15.048  11.401   3.538 -0.0419  0.3864 -0.2720
24055W        W39186  15.786  13.726  16.219 -0.4627 -0.0493 -0.1101
24056W        W39187   1.258  12.244  15.724  0.0392  0.3244  0.0141
24057W        W39188   1.044   3.808   1.163 -0.0656 -0.0334 -0.4132
24058W        W39189  15.215  14.201   0.524 -0.2385  0.0785 -0.0873
24059W        W39190  12.075  15.503  12.954  0.0596 -0.1514  0.4552
24060W        W39191   0.549  13.597  13.751  0.0058 -0.0927  0.1910
24061W        W39192  14.113  13.130   3.657 -0.0104 -0.0365  0.0966
24062W        W39193   5.100   7.949  15.113  0.3279  0.0330 -0.0430
24063W        W39194   4.496   0.626   1.376 -0.1821  0.0262  0.0574
24064W        W39195   5.424  17.045  15.447  0.1114 -0.0195  0.0847
24065W        W39196   4.716   6.697   3.014  0.1230  0.1807 -0.1195
24066W        W39197  14.950   7.621   1.626 -0.2186 -0.0731 -0.0365
24067W        W39198   4.159   0.628  16.302 -0.0264  0.1389 -0.1931
24068W        W39199   6.700  11.751   0.670 -0.2704 -0.0334 -0.0424
24069W        W39200  13.766   6.939  15.021 -0.0707 -0.0618 -0.2865
24070W        W39201  17.787   5.145   0.951 -0.1773  0.0803 -0.0168
24071W        W39202   0.927   3.277  12.755  0.1198 -0.1707 -0.1228
24072W        W39203   0.675   8.397   0.962 -0.0470  0.0911  0.2357
24073W        W39204   4.668   3.523  11.285  0.1676  0.0290  0.2414
24074W        W39205  13.211   6.966  14.371  0.1620  0.1407  0.1753
24075W        W39206   9.965   2.711  14.100 -0.3678  0.0185  0.1950
24076W        W39207  11.950  14.485   2.162  0.2599  0.0127  0.0987
24077W        W39208  16.845   3.144  15.326  0.2233  0.1744  0.1928
24078W        W39209  14.942   5.875   5.188  0.1739  0.0366  0.1975
24079W        W39210  16.618   9.443   5.317  0.2100 -0.0793  0.0021
24080W        W39211   8.249   7.054   4.804  0.1446  0.0053  0.0931
24081W        W39212   7.234  17.599  12.019  0.0460  0.1378 -0.0319
24082W        W39213  11.827   9.725   0.436 -0.2022 -0.1378  0.3269
24083W        W39214  11.115  10.077   4.432 -0.1266 -0.0192 -0.0921
24084W        W39215  14.757  14.378  15.062 -0.0689 -0.1533 -0.0655
24085W        W39216   4.904  16.941   5.896 -0.2005  0.0160  0.4561
24086W        W39217   6.624  12.937  12.353 -0.0603  0.0401 -0.1588
24087W        W39218  12.483   5.564  11.439 -0.0163  0.2981 -0.0295
24088W        W39219   6.714   2.514   0.992 -0.1065 -0.0276 -0.0880
24089W        W39220   4.914  11.239   3.903 -0.1377  0.0196 -0.0573
24090W        W39221  11.994  16.190  11.286 -0.0921  0.1775  0.1480
24091W        W39222  13.614  12.713  14.034 -0.0063 -0.0238 -0.0180
24092W        W39223   9.258  12.526   3.298 -0.1540  0.1754 -0.1208
24093W        W39224   9.655   9.286  13.826  0.1870 -0.3303  0.1581
24094W        W39225   2.360  10.932   5.081  0.2698 -0.1068  0.0349
24095W        W39226   2.258  13.112   3.426 -0.0929 -0.3560  0.0272
24096W        W39227  11.980  11.641  15.132 -0.0179 -0.0343 -0.2139
24097W        W39228   1.419  13.206  14.088  0.0173 -0.0490  0.1301
24098W        W39229  17.119   3.554   0.318 -0.1160 -0.2699  0.0872
24099W        W39230   3.367   0.319   0.735 -0.2238  0.0340  0.0827
24100W        W39231  10.398  13.670  15.426 -0.2371 -0.1521 -0.1846
24101W        W39232  10.267   9.166   3.911  0.0342 -0.1229 -0.3050
24102W        W39233   2.123   7.338   0.827  0.5280 -0.3318 -0.2509
24103W        W39234   0.380   4.104   3.435 -0.2307  0.0383  0.0248
24104W        W39235  12.514  14.874   0.121  0.3083 -0.0831 -0.0077
24105W        W39236  16.166   0.739  13.051  0.1875 -0.2293  0.1567
24106W        W39237   3.136  11.035  14.579 -0.1366  0.0928 -0.0458
24107W        W39238  10.412   4.768   0.615  0.1045  0.2066 -0.1386
24108W        W39239  13.552  12.531  14.637  0.0109  0.0259 -0.1463
24109W        W39240   1.873   5.497   1.707 -0.2351  0.2535 -0.0763
24110W        W39241  11.958   4.101   2.436  0.3381 -0.3624  0.1237
24111W        W39242  15.218   2.630  15.046 -0.2188 -0.0577 -0.1025
24112W        W39243  15.443  11.695   4.414  0.0589 -0.0120 -0.0477
24113W        W39244   2.440   8.727   1.754 -0.0336 -0.0919  0.0264
24114W        W39245   0.492  12.224  14.330  0.0925 -0.1816  0.0553
24115W        W39246   6.666  15.733   0.925 -0.1119  0.2411  0.3788
24116W        W39247  11.907  16.125   4.356  0.0828 -0.0916  0.1551
24117W        W39248  10.108   2.582   2.771  0.0050  0.2926 -0.1075
24118W        W39249  15.763   9.077  12.714 -0.0315  0.0286 -0.1357
24119W        W39250  16.123  14.722   3.631 -0.0844  0.2143  0.1177
24120W        W39251  13.094  14.663   1.234  0.4284  0.0795  0.2736
24121W        W39252  15.417   0.774   5.571  0.2005  0.2655 -0.1406
24122W        W39253  15.077  17.297  12.624 -0.0401 -0.0509  0.2198
24123W        W39254  15.517  13.996  11.878  0.1379  0.0563 -0.1585
24124W        W39255  17.107   0.425  13.314  0.0133  0.1033 -0.2246
24125W        W39256   8.789   4.372   2.276  0.3220 -0.1882  0.0323
24126W        W39257  14.982   1.547   4.445  0.2908  0.0493 -0.3639
24127W        W39258   6.036  14.544   2.854 -0.0771  0.0059 -0.0209
24128W        W39259  10.780   2.119   2.693  0.2750 -0.0651 -0.0118
24129W        W39260  15.384   9.361   0.009 -0.0154  0.2239 -0.1254
24130W        W39261   2.794   3.584   4.690 -0.1580  0.3047 -0.0965
24131W        W39262   1.644  10.594   3.870  0.3600 -0.3651 -0.1502
24132W        W39263   4.569  14.422   0.532  0.2506 -0.2322 -0.1946
24133W        W39264  16.468   1.152  13.053 -0.0957  0.5718  0.0312
24134W        W39265  14.388  17.401   5.725 -0.0171  0.1514  0.1540
24135W        W39266  18.026   4.082  13.290  0.2325  0.0947  0.0275
24136W        W39267   1.187  14.712  14.318  0.0652  0.2996  0.2733
24137W        W39268   8.983  11.522  13.270 -0.1260 -0.0269 -0.0981
24138W        W39269  14.997   7.521  15.768 -0.0494 -0.1567  0.1849
24139W        W39270   9.163   5.295  12.708  0.0542 -0.1552 -0.0404
24140W        W39271   3.505   7.727   4.829 -0.1170 -0.0060 -0.3149
24141W        W39272   6.302   3.546   2.465  0.3202 -0.1150 -0.0655
24142W        W39273   5.303  13.553  15.123 -0.0483 -0.1398  0.0470
24143W        W39274   6.134   2.292  15.149  0.0121  0.0509  0.1340
24144W        W39275  12.069  15.721   6.234 -0.0120  0.1625  0.3135
24145W        W39276   4.406  18.064  11.324  0.0005 -0.2354  0.0673
24146W        W39277   3.018   1.633  16.461  0.2446 -0.2628 -0.0457
24147W        W39278  18.009  17.218  12.538  0.0088  0.1364 -0.0202
24148W        W39279   8.378   2.976  14.917 -0.0398 -0.1644  0.0871
24149W        W39280   8.664  17.154   2.948 -0.1137  0.3684 -0.1842
24150W        W39281  16.124   1.130  11.555 -0.2060 -0.2464 -0.1100
24151W        W39282   2.214  12.653   4.984  0.2100 -0.1230  0.1746
24152W        W39283  11.153   5.374  10.940 -0.0835 -0.0633  0.0261
24153W        W39284  13.297   3.055   3.444  0.4539  0.0648 -0.1698
24154W        W39285   7.588  11.354   1.821  0.1108 -0.0705 -0.2247
24155W        W39286  17.110   3.468  12.977 -0.0681 -0.2012  0.2609
24156W        W39287   6.624   0.818  12.648  0.0675 -0.2383  0.2996
24157W        W39288  13.924   4.273  14.479 -0.0667  0.0559  0.3297
24158W        W39289   6.586  12.555  12.709  0.0417 -0.0722 -0.0451
24159W        W39290  10.383   6.748  13.749  0.1830 -0.0024 -0.1684
24160W        W39291   6.894   5.302   0.670  0.0727  0.0842  0.1783
24161W        W39292  12.804   9.149   5.106  0.0777  0.1205 -0.1658
24162W        W39293  10.306   6.166  12.218  0.2064  0.4022 -0.0597
24163W        W39294   8.911  10.333  15.787  0.4052  0.0420 -0.1909
24164W        W39295  17.071   6.967  14.990 -0.1319  0.3250 -0.0244
24165W        W39296   2.593   3.562  11.657  0.3580 -0.1486  0.2262
24166W        W39297  11.459   1.537   2.711 -0.0392 -0.0526 -0.1020
24167W        W39298   8.806   1.715   0.896  0.1905 -0.2846 -0.1039
24168W        W39299   9.995   9.025   1.445  0.1680 -0.1126 -0.2164
24169W        W39300   7.775   6.285   3.578  0.3063 -0.0248 -0.0614
24170W        W39301   9.579  16.567  13.475  0.3737  0.0699 -0.1107
24171W        W39302   3.607  15.270   0.965  0.1152  0.2351 -0.2349
24172W        W39303   3.747   0.673   2.093  0.2588 -0.1715 -0.0344
24173W        W39304  15.817  15.661   1.203  0.2836 -0.0079  0.1785
24174W        W39305   0.960   1.136  15.736  0.3613  0.0845  0.3135
24175W        W39306   9.238   0.335  12.419 -0.0026  0.2836 -0.1147
24176W        W39307  11.750   2.568  13.146  0.1032 -0.1304  0.1581
24177W        W39308   0.185   6.021   4.203  0.1793 -0.0415 -0.0357
24178W        W39309   1.292  17.831   4.461 -0.0285 -0.1506 -0.0070
24179W        W39310   8.470   0.784  14.159 -0.1135 -0.0553 -0.0794
24180W        W39311   0.245   7.473  12.876 -0.2383  0.2576  0.0989
24181W        W39312   5.001  17.445   1.272 -0.1927 -0.0192  0.1422
24182W        W39313   5.321   9.846  12.943  0.3317 -0.1223 -0.1387
24183W        W39314   4.931   2.197  13.356 -0.0391  0.0196 -0.1294
24184W        W39315  10.356   5.111   4.495 -0.0824  0.2737 -0.0931
24185W        W39316   7.558   0.348   2.377  0.2813 -0.0976  0.0221
24186W        W39317   3.332   2.828   2.118 -0.1477  0.2563  0.2752
24187W        W39318   9.699   6.452   3.679  0.2084 -0.3604 -0.1328
24188W        W39319   2.476  12.989  14.663 -0.0553 -0.1592 -0.3243
24189W        W39320  10.724  15.642  16.268 -0.0245 -0.0766  0.3247
24190W        W39321   1.103  11.224  12.453 -0.3591  0.1701 -0.0330
24191W        W39322   4.831  14.982   2.622  0.0657  0.1746 -0.1016
24192W        W39323   1.816   7.157  13.939  0.0021 -0.3691 -0.2233
24193W        W39324   0.881   4.144  16.247  0.1103  0.2933 -0.0544
24194W        W39325  12.281  16.247  16.287 -0.0185  0.1777 -0.2482
24195W        W39326   9.836   9.934   2.422 -0.1543 -0.0046 -0.0435
24196W        W39327  12.877   3.794   3.077 -0.1049 -0.1304  0.2221
24197W        W39328   1.844   8.703  15.618 -0.2054 -0.0151  0.0932
24198W        W39329  17.947   6.643  13.940 -0.0766  0.1034 -0.0214
24199W        W39330  12.703  17.712   3.559 -0.2297 -0.0033 -0.2405
24200W        W39331  13.002   1.787  11.637 -0.0928  0.0739 -0.1967
24201W        W39332  11.962   0.880   0.540 -0.2281 -0.2878 -0.1057
24202W        W39333   7.288  12.327  16.432 -0.0304  0.0637 -0.1450
24203W        W39334  11.254  15.687   1.928  0.3089  0.1470 -0.0463
24204W        W39335  17.028   2.848   2.502  0.1745 -0.0458  0.1130
24205W        W39336  11.076   7.808   4.186  0.1432 -0.2364  0.1125
24206W        W39337   0.229   8.052  14.945  0.1540 -0.1176  0.2209
24207W        W39338  16.524  17.508   2.367 -0.3232 -0.1330 -0.2108
24208W        W39339   4.447   4.951  16.210  0.1181  0.0398 -0.3886
24209W        W39340  12.449  15.798  15.502 -0.0780  0.1456  0.0244
24210W        W39341  15.660  15.748  14.906  0.4929 -0.0017 -0.3128
24211W        W39342  14.133   5.905  15.998  0.4256 -0.0573 -0.2573
24212W        W39343   8.201   6.069   3.833 -0.0707 -0.0448 -0.0153
24213W        W39344  10.542   3.278  13.336 -0.0056 -0.0574 -0.0713
24214W        W39345   6.884   9.286   6.131 -0.1719 -0.0117  0.2917
24215W        W39346   5.215  10.123  12.540  0.0101 -0.2138  0.1651
24216W        W39347  16.837  12.537  12.690 -0.0155  0.2727  0.1223
24217W        W39348   5.772   0.132  16.042 -0.1258 -0.0359 -0.1773
24218W        W39349  11.015   8.087   4.596  0.2552 -0.0339  0.2617
24219W        W39350   6.915  16.996  13.910  0.3143 -0.1027 -0.2807
24220W        W39351  15.974   9.129   1.010 -0.4700 -0.1900 -0.0044
24221W        W39352  16.672  13.398   0.481  0.5108 -0.1218  0.0478
24222W        W39353  12.741   5.647   4.390  0.1437 -0.1197 -0.1706
24223W        W39354   4.513   4.167   1.954  0.0145  0.1868 -0.0349
24224W        W39355  11.812   6.486  10.513  0.0028 -0.2702 -0.0557
24225W        W39356   9.099  17.418  15.494  0.1774 -0.0656  0.1859
24226W        W39357  12.369  14.222  15.422 -0.0329  0.2061  0.0544
24227W        W39358  12.657  12.999   0.532 -0.0986  0.1692  0.1476
24228W        W39359  17.474   5.029   1.981 -0.4737 -0.4648 -0.1824
24229W        W39360  15.893   7.031   6.227  0.2791 -0.0377 -0.0453
24230W        W39361   8.343   6.002   0.570  0.1369  0.0818 -0.0123
24231W        W39362  11.137  13.142  12.086 -0.2902  0.2746 -0.0451
24232W        W39363  12.421  10.371   5.246 -0.2893  0.0859 -0.0482
24233W        W39364  11.612  11.176  13.631  0.0673  0.0277 -0.0030
24234W        W39365   6.781   3.762   0.704 -0.0319  0.2794  0.1462
24235W        W39366  15.588   8.192  13.310  0.0166 -0.0019  0.3552
24236W        W39367   9.645  13.408  14.198 -0.3034  0.1935  0.0260
24237W        W39368  18.005  15.216  15.416  0.0714  0.2427 -0.0820
24238W        W39369  12.293  17.648   3.262 -0.2709  0.3071  0.1900
24239W        W39370   5.302   7.381   2.696  0.0146  0.4997  0.2423
24240W        W39371  13.517   9.855   4.584  0.2016 -0.2399  0.0823
24241W        W39372   1.412   1.711   2.642 -0.0247 -0.0166  0.0945
24242W        W39373   8.959   8.339   1.952 -0.0168  0.2399  0.3877
24243W        W39374   7.235   8.321   0.383  0.2225 -0.2879 -0.1355
24244W        W39375  17.311  12.962   4.208  0.1712 -0.1801 -0.2145
24245W        W39376  12.475   7.753  15.417  0.1920 -0.0166 -0.1652
24246W        W39377  11.465  17.273   1.467  0.1310  0.0624 -0.0132
24247W        W39378  16.454  11.668  13.913 -0.0088  0.2960 -0.0801
24248W        W39379   7.441   8.425  14.174  0.1700  0.0380  0.3110
24249W        W39380  11.668  13.727   4.948 -0.1384  0.0036 -0.2162
24250W        W39381   2.652  14.082  15.613  0.1628 -0.1659  0.1688
24251W        W39382   6.589   9.594   2.180  0.0544  0.0485 -0.0975
24252W        W39383  10.789  13.160   6.058  0.1252 -0.3618  0.1245
24253W        W39384   2.796   7.517   3.423  0.3646  0.0066  0.0276
24254W        W39385  18.069   2.899  11.725 -0.2029  0.1290 -0.0255
24255W        W39386   2.193   8.724  13.904  0.2298  0.0088 -0.0136
24256W        W39387  12.673   0.282   1.513 -0.3588 -0.1749  0.1387
24257W        W39388  14.404  10.112  13.325  0.0986  0.0128  0.0488
24258W        W39389   3.121   5.278  12.610  0.1237  0.2173 -0.0342
24259W        W39390   1.801  16.833  12.387 -0.0482 -0.2450 -0.2993
24260W        W39391  17.010  14.160  12.881  0.0292  0.1522  0.2474
24261W        W39392  11.437  10.878   2.556 -0.0912  0.2679  0.0093
24262W        W39393   5.299  17.618   0.315  0.0381 -0.1514  0.2287
24263W        W39394   7.909  14.267   5.380  0.1454 -0.3513  0.2385
24264W        W39395  13.656  14.464   2.315 -0.0179  0.1417  0.2438
24265W        W39396   1.384  16.090   0.560  0.1259  0.1668  0.2620
24266W        W39397  16.462  16.553   1.548 -0.0640  0.2788 -0.0178
24267W        W39398   7.462   2.342   0.399 -0.0103 -0.0940 -0.6229
24268W        W39399   7.012  16.599  15.187  0.1436 -0.1477  0.1311
24269W        W39400   5.676  16.809   3.910 -0.1498 -0.1574  0.0605
24270W        W39401  15.390  16.052   4.614 -0.1405 -0.1387  0.0707
24271W        W39402   1.807  10.606   0.081  0.1920  0.1276  0.1285
24272W        W39403   5.115  15.278  14.887  0.1617  0.1883 -0.0095
24273W        W39404   4.572   2.003  16.391  0.1156  0.1214  0.1345
24274W        W39405   5.622   3.916  10.857  0.0290 -0.1525  0.0895
24275W        W39406  12.213  11.464  11.172  0.1272 -0.1673  0.1000
24276W        W39407  10.044   0.556   2.772  0.1134 -0.2573 -0.0590
24277W        W39408  11.876   0.496   2.704  0.0657 -0.1805  0.0678
24278W        W39409   5.033   4.865   4.228 -0.1128 -0.2460  0.0043
24279W        W39410   1.139  11.333  13.308  0.0961  0.1551  0.2253
24280W        W39411  12.168  16.180   3.593  0.1407 -0.0999 -0.2310
24281W        W39412   1.087   5.260  15.956  0.1348  0.2842 -0.0305
24282W        W39413  17.381   0.235  11.199  0.0933 -0.1127 -0.0879
24283W        W39414  12.391   7.729  12.161 -0.0868  0.0059  0.0035
24284W        W39415   4.358   4.389  15.019  0.2374  0.0544  0.0903
24285W        W39416  10.771  16.562  11.395  0.3448 -0.2569 -0.1273
24286W        W39417  12.448   0.938  15.341 -0.0435  0.1936  0.1810
24287W        W39418  11.047   5.969   0.842  0.0736  0.0795 -0.1795
24288W        W39419   0.071   7.952   5.066  0.0360  0.3452 -0.0322
24289W        W39420   0.177   4.509  13.215 -0.1341 -0.0833 -0.1442
24290W        W39421  16.321   5.603  13.389 -0.0634 -0.3223 -0.1872
24291W        W39422   9.777   4.572  13.559 -0.0983  0.3360  0.2540
24292W        W39423   7.632   7.507   9.829 -0.0680 -0.1408 -0.0287
24293W        W39424   9.931   3.019   3.051  0.0975  0.0056 -0.2059
24294W        W39425  10.342  13.472  11.217 -0.0348 -0.1007 -0.3805
24295W        W39426  11.911   0.930  15.609  0.0371  0.1863  0.3490
24296W        W39427   0.796   9.306  15.130  0.0755  0.0590 -0.1427
24297W        W39428   2.785  16.777   1.735  0.1800  0.1291 -0.1485
24298W        W39429   2.389   4.983  14.344 -0.3410 -0.3408 -0.0331
24299W        W39430   8.829  10.098   5.322  0.0614  0.1322 -0.1145
24300W        W39431   6.794  12.191   4.432  0.1554 -0.2558 -0.2832
24301W        W39432  11.951   8.424   2.378 -0.0259 -0.1961  0.0220
24302W        W39433   1.426  10.902   0.957  0.2568 -0.1596  0.0233
24303W        W39434  15.903  10.970   3.107  0.0885 -0.1391 -0.0621
24304W        W39435   5.465   6.014  12.853  0.0204 -0.1076 -0.2280
24305W        W39436   5.519  11.502   0.883 -0.0266 -0.2681 -0.2327
24306W        W39437  17.989   3.245   4.408 -0.3243 -0.0703 -0.1593
24307W        W39438   8.551   3.504   1.125  0.1209 -0.1065 -0.1187
24308W        W39439   5.217   6.421   2.456  0.0874 -0.0318  0.1480
24309W        W39440  16.391  10.156   0.123  0.1567  0.2590 -0.0821
24310W        W39441   1.360   6.509   3.275  0.0010  0.5011  0.2483
24311W        W39442  17.795   7.919   2.035  0.2120 -0.2103 -0.1308
24312W        W39443   5.265   4.556   4.546 -0.2525  0.2898 -0.2576
24313W        W39444   7.236  12.925  11.623  0.0316  0.1134  0.2017
24314W        W39445   3.392  14.717   1.118 -0.0597 -0.3389  0.1676
24315W        W39446   1.022   5.387   0.560 -0.1979 -0.1589  0.1696
24316W        W39447   5.538   3.316   2.664  0.1805 -0.0273  0.1091
24317W        W39448   3.830  13.844  15.683  0.1201 -0.2038 -0.0929
24318W        W39449   3.261   8.834  15.345 -0.0715  0.2024  0.0858
24319W        W39450   2.831   8.442  11.776  0.0100  0.2498 -0.1838
24320W        W39451   8.735  17.433  13.901  0.3549 -0.4520 -0.1134
24321W        W39452   4.233  15.487   0.098 -0.2659  0.1529  0.1431
24322W        W39453   9.640   9.299   0.734 -0.1803  0.0602 -0.0711
24323W        W39454  13.974  16.307  11.936 -0.3769 -0.0722 -0.1936
24324W        W39455  15.051   5.399   1.274  0.2665  0.1643  0.1608
24325W        W39456  17.476  16.528   1.503  0.0887  0.2566  0.1403
24326W        W39457   6.796  11.759   4.650 -0.1125  0.1510 -0.1294
24327W        W39458   8.435  14.613  12.321 -0.1205  0.0214 -0.0602
24328W        W39459   8.104   3.050   0.471  0.0918  0.0585 -0.0170
24329W        W39460   7.272   9.138  13.472  0.2477  0.1624  0.1028
24330W        W39461   5.654  10.007   0.418 -0.0200  0.1242  0.1058
24331W        W39462  17.737  14.873   0.584  0.1012 -0.0816 -0.2082
24332W        W39463  16.172   1.134   2.483  0.1055  0.1095 -0.0354
24333W        W39464   5.534  10.837  14.839 -0.2053 -0.0018  0.0773
24334W        W39465   7.254   7.622   1.920 -0.0880 -0.1285 -0.0905
24335W        W39466   6.848   8.840  13.158 -0.2034  0.1072  0.1219
24336W        W39467   5.592   4.884  13.812 -0.1797 -0.0739  0.0227
24337W        W39468   1.448  16.035   0.021 -0.1829 -0.2761 -0.1113
24338W        W39469   3.974  10.157  13.028  0.2524 -0.0656 -0.0762
24339W        W39470   8.756  15.623   0.777  0.2098  0.1491 -0.0646
24340W        W39471   8.726  15.669   0.310  0.2798  0.1030 -0.1473
24341W        W39472  10.669   3.248  16.009  0.2814  0.0432 -0.0434
24342W        W39473   2.997   6.575  11.424  0.1770 -0.2854  0.1404
24343W        W39474  11.638   7.946  13.732  0.2023  0.0033  0.1650
24344W        W39475  12.240   9.746  11.482 -0.3575  0.2495 -0.0944
24345W        W39476  14.619   2.839   3.857 -0.3912  0.0843  0.2238
24346W        W39477  15.749   0.974   4.642 -0.0440 -0.1868  0.2328
24347W        W39478  15.934  13.285   1.651 -0.3270 -0.0960  0.1111
24348W        W39479  13.156   0.300  15.809  0.0941 -0.0381  0.1573
24349W        W39480  15.099   9.590   3.608  0.2157 -0.0118 -0.0403
24350W        W39481  15.065  11.874   1.273  0.0133  0.0000 -0.2475
24351W        W39482   8.223  11.113   0.882 -0.1468 -0.1524 -0.1174
24352W        W39483   6.306   9.835   5.500 -0.0405  0.1830  0.0651
24353W        W39484   3.914   8.395  15.853 -0.0668 -0.0189 -0.2360
24354W        W39485  13.643  11.492  16.061 -0.2620 -0.3618  0.0423
24355W        W39486   4.707   7.639  11.131 -0.3434  0.0344 -0.3373
24356W        W39487  15.146  11.636   4.020  0.1185 -0.1322 -0.0051
24357W        W39488  13.907  16.357  16.123 -0.0890  0.1337 -0.1180
24358W        W39489   1.924  13.882   4.667 -0.2192  0.2590  0.0162
24359W        W39490   6.978   6.015  10.836 -0.1251  0.0470  0.0241
24360W        W39491  13.792  11.859   5.984 -0.5264 -0.0123  0.4440
24361W        W39492  11.699  10.463   1.180  0.0960 -0.2432 -0.0773
24362W        W39493   4.676   0.638  15.497  0.1837 -0.1220  0.2008
24363W        W39494   3.478   8.224   5.616 -0.3762  0.0386 -0.0139
24364W        W39495  11.328   6.332   1.333  0.1287  0.2617  0.1871
24365W        W39496   7.430   0.575  15.014 -0.2044 -0.1553  0.2806
24366W        W39497   2.748  14.710  15.416  0.1839  0.0416  0.3684
24367W        W39498  14.199   7.243  11.454 -0.1357 -0.0897  0.0737
24368W        W39499  15.561  12.977  15.774  0.0058 -0.0041  0.2858
24369W        W39500  16.217   1.859  15.504  0.6180  0.1681 -0.1439
24370W        W39501   6.933   9.408   0.158  0.1271  0.2791  0.0534
24371W        W39502   0.703   1.343  14.762 -0.3620  0.0641 -0.0922
24372W        W39503   9.439   3.804  14.653 -0.1105 -0.0735  0.3277
24373W        W39504  17.108  16.102   5.077  0.1975 -0.0825 -0.1396
24374W        W39505  16.839  11.891   4.279 -0.0259  0.1578 -0.0830
24375W        W39506   9.325   8.321   3.703  0.2087  0.0349 -0.0370
24376W        W39507  13.894   1.882   1.369  0.1629 -0.1192 -0.1680
24377W        W39508  14.791   2.822   6.063 -0.0288 -0.2223 -0.3017
24378W        W39509   4.239  13.184  13.709  0.0544 -0.1442 -0.2386
24379W        W39510  15.998   9.298  10.719  0.0259 -0.0933 -0.1059
24380W        W39511   4.928   5.997   3.503 -0.2908  0.0354  0.0033
24381W        W39512  16.298  13.684  16.030  0.2708 -0.0057  0.0836
24382W        W39513  10.360  14.492  11.466 -0.3480  0.0630 -0.1136
24383W        W39514   4.958   5.192   5.624 -0.0558  0.3025  0.0714
24384W        W39515   3.268   0.330  12.043 -0.2859 -0.0662 -0.2317
24385W        W39516   5.682  14.742   3.638 -0.1181 -0.0888 -0.0679
24386W        W39517   9.448   0.322  11.908  0.1286 -0.1181 -0.1199
24387W        W39518   6.722   5.062  14.633  0.2774 -0.3401  0.3189
24388W        W39519   9.901   8.576   6.474 -0.0921 -0.1902  0.2413
24389W        W39520   6.000   6.853   4.840 -0.0529 -0.1034 -0.0095
24390W        W39521   8.158  13.266  10.543 -0.0676 -0.2066  0.0893
24391W        W39522   3.310   4.653   1.667 -0.0144  0.0899 -0.1455
24392W        W39523  10.326   9.979  13.873  0.2764 -0.0063 -0.2646
24393W        W39524  12.053  13.993  12.711 -0.1438  0.3473  0.0962
24394W        W39525   8.964  13.958   5.695 -0.2361 -0.1061  0.0384
24395W        W39526  15.730  10.728  11.418 -0.0069 -0.0863 -0.0177
24396W        W39527   8.100   4.717   0.195  0.1554  0.0520 -0.1061
24397W        W39528  17.114  17.731   0.395 -0.0868 -0.2030 -0.3717
24398W        W39529   8.630   9.624   2.926  0.2389  0.0945  0.1209
24399W        W39530  13.227  16.146   3.608  0.1209  0.1087  0.2017
24400W        W39531  15.812  17.910  11.884  0.2419 -0.1533  0.0750
24401W        W39532  16.337   7.678  14.154  0.0228  0.0902 -0.0639
24402W        W39533   9.533   8.367   0.032  0.0077  0.0034 -0.0597
24403W        W39534   9.170   6.996  14.759 -0.1828 -0.1858  0.3736
24404W        W39535  10.510   1.986   0.624 -0.0504 -0.2685 -0.0828
24405W        W39536  10.361   3.002  14.172 -0.0755 -0.0471 -0.2348
24406W        W39537   0.127  17.803  16.140 -0.1389 -0.1316  0.0078
24407W        W39538  11.126   5.687   2.574 -0.1338  0.0698 -0.1584
24408W        W39539  12.134  12.533   1.044 -0.4365 -0.0433 -0.0947
24409W        W39540   3.410   1.933   3.870 -0.0755 -0.0374  0.0717
24410W        W39541   3.668   3.671   5.305  0.2275 -0.1993  0.3456
24411W        W39542   0.629  14.191   4.611 -0.2008 -0.0336  0.3702
24412W        W39543  15.593  12.661  11.612  0.2732 -0.1266  0.0545
24413W        W39544   9.967   4.656   0.412 -0.0493 -0.0610 -0.0612
24414W        W39545  13.829  16.403  13.014  0.1533  0.1355 -0.1443
24415W        W39546   9.132  10.525  13.977 -0.3602 -0.0262 -0.1489
24416W        W39547  13.133   1.918  12.138 -0.2799 -0.1280  0.2164
24417W        W39548   8.554   5.577   3.816 -0.1098  0.0539 -0.0295
24418W        W39549  17.215   9.913  13.619  0.0311 -0.1462 -0.1890
24419W        W39550  12.737  14.590  11.479  0.2021  0.0536 -0.2636
24420W        W39551   8.565   5.188   2.960  0.0931  0.3935 -0.1015
24421W        W39552  11.585   8.105  12.741 -0.2658  0.1682 -0.1952
24422W        W39553   5.837   9.226   5.120  0.0428  0.0464 -0.1964
24423W        W39554   6.169   0.783   0.383  0.1717 -0.1252  0.1311
24424W        W39555   0.836  13.165   1.683  0.0474 -0.5111 -0.3054
24425W        W39556  11.611   6.887   0.820 -0.0429  0.2719 -0.3731
24426W        W39557   6.956   3.046   4.419 -0.1095  0.2586  0.1184
24427W        W39558  12.574  14.557   3.050 -0.1951 -0.2758 -0.2062
24428W        W39559  16.754   2.759   5.427  0.1106 -0.0917  0.0238
24429W        W39560   1.064  11.489   3.284  0.1282  0.1357  0.0052
24430W        W39561   8.183   2.439  11.821  0.1582 -0.3799  0.3171
24431W        W39562  14.288   0.200  12.206  0.2207 -0.1725  0.1105
24432W        W39563  11.943   9.469  12.171 -0.2113  0.2530  0.0634
24433W        W39564  12.645   3.388   4.185 -0.1461  0.2928  0.0203
24434W        W39565   8.507   3.920  12.284  0.2196 -0.0477  0.2791
24435W        W39566  14.428   3.910   0.048 -0.0085  0.0444 -0.2532
24436W        W39567   0.033  10.565   1.752  0.2104 -0.1361  0.1878
24437W        W39568   6.659  16.144   0.496  0.1023  0.0620 -0.1794
24438W        W39569  13.793  11.555   0.604  0.1037  0.2862  0.0509
24439W        W39570  12.339   2.593  15.975  0.1486  0.0680  0.1289
24440W        W39571  11.667   5.845   3.349 -0.2929 -0.0782 -0.2783
24441W        W39572   4.327  15.333  12.870  0.1834  0.0316  0.1959
24442W        W39573  15.153   1.002   3.120 -0.2469  0.0954 -0.1699
24443W        W39574  12.857   1.439  14.418  0.1422  0.0097 -0.0953
24444W        W39575   0.255   7.488   4.968 -0.2241 -0.1142  0.2839
24445W        W39576  11.983   7.936  15.341  0.0150 -0.0529  0.0404
24446W        W39577  14.726   4.573  15.924  0.1934  0.1106  0.0296
24447W        W39578  15.245   5.026  12.719  0.0680  0.2428  0.2004
24448W        W39579   5.437   2.803   5.444  0.1545 -0.0483 -0.1101
24449W        W39580  13.924  14.068   2.492  0.0044 -0.0333  0.3356
24450W        W39581   7.293  11.786   4.264  0.0081  0.3132 -0.1504
24451W        W39582   1.461  12.844   2.048  0.0820 -0.0451 -0.1396
24452W        W39583  13.544   2.476  11.629  0.1075  0.1840 -0.1978
24453W        W39584  13.284   7.108  12.620 -0.5355 -0.1446  0.1127
24454W        W39585   6.188   6.431  12.243  0.2899 -0.0451 -0.1562
24455W        W39586   3.544  12.643   1.232  0.2309 -0.0210  0.3679
24456W        W39587  16.814   5.698  14.867 -0.1322 -0.4301  0.0170
24457W        W39588   1.749  16.377   5.062 -0.0739  0.0637  0.2233
24458W        W39589  14.525  10.055   4.483 -0.1863 -0.0227 -0.1203
24459W        W39590   1.868   2.246  11.776  0.3419  0.5168  0.3660
24460W        W39591  14.833  16.818  16.053  0.1001 -0.2950 -0.0743
24461W        W39592   4.968   5.688  12.216 -0.2567  0.3041 -0.1353
24462W        W39593  13.479  17.831   5.425  0.3494 -0.2564  0.1972
24463W        W39594  12.079  15.208   2.747 -0.4187  0.0595 -0.1250
24464W        W39595   9.887   0.203  13.997  0.2209 -0.2519 -0.0370
24465W        W39596   1.811  10.168   1.928 -0.1143 -0.0799 -0.1152
24466W        W39597   9.146   4.545  13.391  0.0374 -0.2409  0.0989
24467W        W39598  12.721   0.707   1.146  0.0046 -0.1835 -0.1457
24468W        W39599   2.617   2.032   2.717  0.0855 -0.2685  0.2148
24469W        W39600  15.442  13.954   6.173  0.1338  0.1600  0.0512
24470W        W39601  13.728  14.566  14.499 -0.1021  0.0859 -0.0794
24471W        W39602   1.824   2.103  14.003  0.2486 -0.2496 -0.1244
24472W        W39603   9.836   8.926   0.481  0.2591 -0.0418  0.1553
24473W        W39604   7.984  15.420   0.821  0.1939  0.0013  0.2133
24474W        W39605   4.658   9.402  10.921 -0.1598  0.1597  0.1882
24475W        W39606  15.498   2.242   3.041 -0.0337  0.0546 -0.0428
24476W        W39607  17.770  15.896  12.753  0.0304  0.0582 -0.0450
24477W        W39608  14.411   1.087  16.359  0.4817  0.0773 -0.1289
24478W        W39609   6.815   1.648  15.277  0.2033 -0.3300 -0.0192
24479W        W39610   9.673  14.664  13.473 -0.5689  0.3219 -0.0289
24480W        W39611   0.781   0.176   1.904  0.1046 -0.2346 -0.0495
24481W        W39612   3.454   7.488  16.230 -0.2511 -0.1780  0.1477
24482W        W39613   3.444   9.080  14.949 -0.1638  0.1353  0.3927
24483W        W39614  12.365   3.919  12.184  0.1488  0.0714  0.3797
24484W        W39615  17.121  15.401  12.358 -0.1320 -0.2658  0.2562
24485W        W39616   4.525  15.055  13.782 -0.0226 -0.3054  0.1318
24486W        W39617  10.262   2.888   2.372  0.1887 -0.0992  0.0411
24487W        W39618   9.336   1.869  12.832  0.1281 -0.0966 -0.1578
24488W        W39619  10.064   1.239   1.076 -0.2732  0.0794 -0.1116
24489W        W39620  12.903  17.019  14.541 -0.0220 -0.0247 -0.3100
24490W        W39621  14.509   6.685   5.188  0.2211 -0.0500 -0.1391
24491W        W39622   3.410  10.988   9.874 -0.0546  0.1714 -0.0849
24492W        W39623  12.150   3.292   5.909  0.0308  0.1342  0.5459
24493W        W39624   7.453   7.813  15.289 -0.1260  0.0195 -0.0575
24494W        W39625  12.218   2.631  13.995  0.2993 -0.0948 -0.2419
24495W        W39626  11.195  17.413   3.740  0.1878  0.1238  0.1434
24496W        W39627   4.290  17.624  12.933 -0.0744 -0.1374  0.0890
24497W        W39628  15.148   1.355   0.856  0.0537 -0.2534  0.0295
24498W        W39629  10.266   9.322  10.154  0.1037  0.0891 -0.1385
24499W        W39630  17.874   5.999  14.897  0.1812  0.1900 -0.0653
24500W        W39631   2.591   5.665  13.527  0.1105 -0.1508 -0.3599
24501W        W39632  16.974  10.245   4.709 -0.2444  0.2063  0.0747
24502W        W39633  14.249   0.574  16.309 -0.1682 -0.2385 -0.3852
24503W        W39634   6.859  15.960  11.429 -0.0527  0.0826 -0.1057
24504W        W39635  15.215   0.318   5.315 -0.3818 -0.1061 -0.2015
24505W        W39636   9.835   9.691  11.867 -0.0684  0.0912  0.1864
24506W        W39637  14.755  11.286  16.087 -0.1905  0.1784  0.1444
24507W        W39638  10.555  14.359  11.867  0.0539  0.0132 -0.3250
24508W        W39639   3.380   6.268  11.489 -0.1586  0.1280 -0.1242
24509W        W39640   6.444  15.110   0.348 -0.0005  0.0205 -0.2842
24510W        W39641   8.646  13.159   1.017  0.0562 -0.1015  0.2348
24511W        W39642   1.850  14.212  16.266  0.0060  0.1889  0.1501
24512W        W39643   5.585  12.391  11.788 -0.0695 -0.2333  0.1176
24513W        W39644   1.515   7.117   4.464  0.0644  0.2380  0.1937
24514W        W39645   3.648   2.092   4.332 -0.3411 -0.1076  0.1552
24515W        W39646  16.925   9.270  14.870 -0.1319 -0.2761  0.0430
24516W        W39647  11.657  11.205   2.837  0.1285 -0.0285 -0.2489
24517W        W39648   9.118   2.201   3.984  0.0652  0.1690 -0.1289
24518W        W39649   8.417   7.095  14.338  0.2088 -0.2007  0.1679
24519W        W39650  14.285  16.784  16.083 -0.1397  0.3769 -0.1764
24520W        W39651  16.697   7.004   1.233 -0.1405  0.0364  0.0374
24521W        W39652  11.038  15.133   0.381 -0.1890 -0.0010 -0.0853
24522W        W39653  11.131  12.028  16.294 -0.0378  0.5002 -0.1132
24523W        W39654   4.164  12.714   4.973  0.1000 -0.0739 -0.1544
24524W        W39655  13.699  17.690   4.963 -0.0474 -0.0838 -0.0272
24525W        W39656  15.993   6.203   3.891 -0.1773  0.0827  0.0009
24526W        W39657  10.336  17.883   1.061  0.0709 -0.0368  0.1163
24527W        W39658  16.976  16.745   0.184  0.0084 -0.1066  0.2737
24528W        W39659  17.643  13.592  11.553  0.2223  0.0063 -0.1300
24529W        W39660  10.436  17.318  15.874 -0.3839 -0.0494  0.0194
24530W        W39661  17.828  14.719   6.123  0.4029 -0.0511 -0.2160
24531W        W39662   6.746   2.959  12.342 -0.3793 -0.1534 -0.0406
24532W        W39663   2.068  16.070   1.843  0.0326 -0.3098  0.1237
24533W        W39664  18.075  12.127   1.076 -0.0617 -0.2526  0.0686
24534W        W39665   3.981   0.783   3.562 -0.0146 -0.0115 -0.0129
24535W        W39666  14.236  10.545  15.116  0.2284  0.2205  0.0589
24536W        W39667   0.297  12.879   4.842  0.0220 -0.1171 -0.1746
24537W        W39668  17.255  15.015   4.953 -0.1620 -0.2143 -0.0734
24538W        W39669  11.001  16.163   1.077 -0.0063 -0.4299 -0.0276
24539W        W39670  12.157   0.725  14.170  0.2751 -0.1736 -0.0367
24540W        W39671  15.511  14.944   4.747  0.0424  0.1398 -0.3638
24541W        W39672   1.927  17.563  12.982  0.1269  0.0185  0.2657
24542W        W39673   5.491   1.679   3.740  0.1768  0.1721 -0.0242
24543W        W39674   5.141  11.383  12.839 -0.3010  0.1494 -0.1032
24544W        W39675   9.657  15.585  15.305 -0.1790 -0.1153 -0.0055
24545W        W39676   5.567  17.962  15.650  0.1833 -0.1107  0.2127
24546W        W39677   5.286   1.055   3.551  0.1927  0.0011  0.1531
24547W        W39678  11.618  13.660  16.198  0.0917  0.2085  0.0768
24548W        W39679   2.332   6.314   2.086 -0.1569 -0.1390  0.0565
24549W        W39680  16.090   4.521  11.596  0.2417 -0.2170  0.1049
24550W        W39681   1.709  15.062  11.906  0.1578  0.0320 -0.0605
24551W        W39682  14.553   0.109   3.759 -0.0477  0.3336 -0.0418
24552W        W39683  11.980   4.976  11.953  0.0005  0.3056  0.2199
24553W        W39684   3.722  13.753  13.185 -0.2199  0.0783 -0.0736
24554W        W39685   4.546   3.976   0.491 -0.1057  0.0587  0.2078
24555W        W39686   5.478   8.888   5.030  0.1277 -0.0090 -0.3078
24556W        W39687  10.603   0.262   0.317  0.1206  0.0079  0.3236
24557W        W39688   2.965  13.865  15.303 -0.1076  0.2740  0.2224
24558W        W39689   2.887  12.896   2.176  0.0314  0.0684  0.1708
24559W        W39690   4.368  16.004   1.347  0.1551 -0.2077  0.0069
24560W        W39691  14.850   4.852  16.345  0.1846 -0.3799  0.0334
24561W        W39692   7.429   3.041  15.048  0.0544 -0.2039 -0.2565
24562W        W39693  10.293   8.199   1.536  0.0142  0.1791  0.2259
24563W        W39694   4.620   8.303   3.638 -0.1530 -0.1038 -0.4332
24564W        W39695   0.212  12.161   5.487 -0.0548 -0.1276  0.0302
24565W        W39696   3.940   6.804  15.673 -0.1686  0.0320  0.1450
24566W        W39697   2.472   9.065  12.512  0.1206  0.1121  0.2090
24567W        W39698   0.833  17.969   3.353 -0.3698 -0.0259  0.2911
24568W        W39699   8.074   0.285  16.288  0.1685 -0.0817 -0.0872
24569W        W39700  11.584   7.243  15.712 -0.1199  0.1954  0.0429
24570W        W39701   5.649   5.058  15.699  0.4760  0.1422  0.1621
24571W        W39702  13.870   4.012  13.035 -0.0485  0.0843 -0.0030
24572W        W39703  14.312   6.591   1.315  0.2917 -0.1086  0.2647
24573W        W39704   7.767  14.337  12.085 -0.1203 -0.0177 -0.0893
24574W        W39705  12.808   7.956  11.398  0.0129  0.0930 -0.0445
24575W        W39706   6.465   8.985  14.065 -0.1216  0.1379  0.0094
24576W        W39707  14.032  14.135  16.239 -0.0350  0.0891  0.0193
24577W        W39708  17.495   7.280   2.180 -0.2084  0.2696 -0.2575
24578W        W39709   4.063   6.464  15.219 -0.2761 -0.0633  0.2543
24579W        W39710   5.915   2.877   2.060 -0.0314 -0.1209 -0.1882
24580W        W39711  14.741  13.951   2.810 -0.2923 -0.3824  0.1240
24581W        W39712  12.788   1.952  15.394  0.1770  0.2402  0.0366
24582W        W39713   2.368   2.963   1.583 -0.1645  0.0640 -0.0540
24583W        W39714   3.543  12.037  15.316  0.1530 -0.2025  0.0438
24584W        W39715   2.758  12.331   3.882  0.2651  0.1424  0.0103
24585W        W39716   8.668   5.558  15.025  0.2822  0.3616 -0.2473
24586W        W39717  11.033   0.076  12.057  0.2001  0.1915 -0.3542
24587W        W39718  10.670   8.307  14.289  0.2141  0.0976  0.4032
24588W        W39719  10.811   9.763  15.713 -0.2943 -0.0261 -0.1594
24589W        W39720  13.059   2.620   0.205  0.0167 -0.0909 -0.2749
24590W        W39721   4.725   1.171  15.378  0.0742 -0.0867 -0.4328
24591W        W39722   7.702   1.419  12.811 -0.2059  0.1181 -0.4061
24592W        W39723   2.445   0.465  13.535 -0.2783 -0.2444 -0.0615
24593W        W39724  13.552   8.033   0.431  0.1138 -0.0153  0.1153
24594W        W39725   7.246   3.233  12.297 -0.1558  0.0187 -0.3569
24595W        W39726   7.044  11.434  14.192 -0.1667 -0.4070  0.1715
24596W        W39727   9.021  10.388  12.603 -0.1626 -0.3256  0.2592
24597W        W39728   9.825  16.756   2.431  0.0005 -0.3492  0.0511
24598W        W39729  12.385  16.460   3.138 -0.2384 -0.0424  0.3652
24599W        W39730   5.056   6.458  12.817 -0.1783 -0.0795  0.0523
24600W        W39731  15.660  16.818  14.644 -0.0539  0.1689  0.0778
24601W        W39732  12.493   0.287  15.028 -0.4120 -0.0414 -0.0354
24602W        W39733   4.247  15.977  11.348  0.2833  0.2244 -0.0526
24603W        W39734  17.626   5.570  15.184  0.0577  0.1141  0.0271
24604W        W39735   1.615  11.157  16.328  0.0001 -0.0679 -0.0350
24605W        W39736   7.948  11.524  12.654  0.2208  0.3340 -0.3131
24606W        W39737   6.458  15.865  12.614 -0.0344 -0.0326 -0.1282
24607W        W39738   2.696   4.583   3.475  0.1362 -0.1151  0.1774
24608W        W39739   3.763  10.472  11.091 -0.1835  0.0718 -0.0493
24609W        W39740  14.195   0.105  15.019 -0.3028  0.1568  0.0857
24610W        W39741  17.753  14.129  14.263 -0.0127  0.1384  0.1587
24611W        W39742   0.340  11.910  14.726  0.2943  0.0002  0.2130
24612W        W39743  16.181   2.061   5.067 -0.1192  0.0018  0.1162
24613W        W39744   9.029  14.830  15.179  0.0533  0.1237  0.0949
24614W        W39745   1.729  12.203   1.741 -0.1225 -0.1315 -0.4580
24615W        W39746   6.741  18.076  15.914  0.2451  0.2529  0.1311
24616W        W39747   1.378  12.419   4.233 -0.2688  0.0130  0.1853
24617W        W39748   4.828   4.535  12.380 -0.2543  0.2570 -0.2476
24618W        W39749  12.516   0.362   5.605  0.2201 -0.3086 -0.0482
24619W        W39750  12.086   6.503   5.881 -0.0652 -0.2297  0.3021
24620W        W39751  14.336   2.122   1.536 -0.0936  0.1909  0.1147
24621W        W39752  17.811   4.659   3.043 -0.1237  0.0373  0.1245
24622W        W39753  13.366  15.416  12.700 -0.2558 -0.1801 -0.0417
24623W        W39754  13.375  15.532   2.989  0.0597  0.0629 -0.0839
24624W        W39755   9.581   0.117  15.284  0.0973  0.1468  0.1807
24625W        W39756  11.549   5.128  11.557  0.0079 -0.1875  0.0568
24626W        W39757   5.051   5.803  15.742 -0.1186  0.0032  0.0908
24627W        W39758   8.121  13.098  12.424  0.1210 -0.1520  0.0519
24628W        W39759  15.051   2.117  13.994 -0.0743 -0.0300 -0.0502
24629W        W39760  13.266   4.238  16.364 -0.4088  0.0545  0.0309
24630W        W39761  16.443   8.708  15.952  0.0399 -0.2659 -0.3410
24631W        W39762   5.694  16.174   4.755 -0.0792  0.0131 -0.1006
24632W        W39763   9.214   8.721  14.917  0.0544 -0.2820  0.2512
24633W        W39764   7.438   4.041   1.758  0.5525 -0.0231  0.2222
24634W        W39765   8.601   0.288  14.212  0.2897  0.0767  0.2348
24635W        W39766   6.850  17.892  13.439  0.0421  0.1550 -0.0812
24636W        W39767  17.655   6.337   4.666  0.1238 -0.0985  0.0293
24637W        W39768  15.877  14.094  15.910 -0.3870  0.0987 -0.1262
24638W        W39769  11.753  16.390   4.742  0.1188 -0.1017  0.0424
24639W        W39770   1.814   7.725  15.405 -0.0369 -0.1717  0.1889
24640W        W39771   9.771   4.428  11.785 -0.0370 -0.2902 -0.0579
24641W        W39772   1.035  12.113  11.017 -0.3726 -0.0474  0.0003
24642W        W39773  13.893   5.022   0.429  0.1895  0.1836  0.2383
24643W        W39774  13.554  15.672  13.688  0.3799 -0.1941  0.0089
24644W        W39775   7.858  17.733   0.688  0.1400  0.1055 -0.2143
24645W        W39776   1.761   4.747  13.362  0.1911  0.2307 -0.0576
24646W        W39777   3.177   8.840   1.722  0.0220 -0.0778 -0.0854
24647W        W39778   5.158  17.262   3.405  0.1688  0.0097 -0.0934
24648W        W39779   7.397   3.462  12.721  0.0782  0.0435  0.2027
24649W        W39780  16.712   4.063  13.925  0.0768  0.2863  0.0141
24650W        W39781   8.295  10.330   2.412 -0.0172  0.1374 -0.0006
24651W        W39782   5.404  12.679  10.921 -0.0370  0.0867  0.1542
24652W        W39783   3.517   2.923  10.304  0.1065 -0.0518  0.0132
24653W        W39784   3.568  16.793   5.743  0.2447  0.0375  0.1737
24654W        W39785   8.394  11.302  13.789 -0.1548 -0.2168  0.2388
24655W        W39786  10.384  15.798  14.928 -0.0845  0.4034  0.0414
24656W        W39787  16.066  10.488   2.363  0.3621 -0.0280  0.0324
24657W        W39788   5.230  10.160  14.442  0.0954  0.0926 -0.1620
24658W        W39789  17.878   1.670   1.321 -0.0658 -0.3116 -0.1236
24659W        W39790   2.117   7.895   6.023 -0.0049 -0.4162  0.1277
24660W        W39791   6.906  18.018  15.398 -0.1496 -0.0704  0.2634
24661W        W39792  14.018  13.267  15.831 -0.1299  0.0969 -0.1597
24662W        W39793   8.527  16.952  12.272  0.0073 -0.1521 -0.0475
24663W        W39794  15.862   2.203  12.285 -0.0439 -0.0997 -0.0105
24664W        W39795   6.107  15.979  12.163  0.0427 -0.2482 -0.0808
24665W        W39796  17.012  10.927  16.324 -0.2268  0.0247  0.0230
24666W        W39797  16.091  10.013   4.290 -0.0937 -0.0189  0.0909
24667W        W39798   4.797   2.302  12.318 -0.2886  0.0999  0.2581
24668W        W39799  11.076   2.376  10.829  0.3790  0.0642 -0.0392
24669W        W39800  16.068  10.180  11.986 -0.0778 -0.2757  0.1540
24670W        W39801   6.646   3.700   0.202 -0.0387 -0.1129 -0.2554
24671W        W39802   5.492  15.511   4.325  0.1378  0.1485 -0.3686
24672W        W39803   7.097  13.434  11.584 -0.1964  0.4027 -0.0311
24673W        W39804  14.970  14.486   5.736  0.0854 -0.2953  0.2933
24674W        W39805   9.599  10.607   0.881 -0.2214 -0.0322 -0.1963
24675W        W39806   0.444  17.112  13.683  0.0296 -0.3109  0.2957
24676W        W39807   2.240   3.127  15.747 -0.2992 -0.1161  0.1265
24677W        W39808  17.948  16.679  16.092 -0.1570 -0.0582 -0.3105
24678W        W39809  13.192   8.816   5.583 -0.2393 -0.0426  0.0827
24679W        W39810   9.244   4.383   2.557 -0.1700  0.3133 -0.0238
24680W        W39811  11.478   4.642   2.943 -0.0669  0.0921 -0.1747
24681W        W39812  13.795  13.845  12.998 -0.0022  0.1574  0.3031
24682W        W39813   2.355   2.361  13.171  0.3438 -0.0219 -0.3131
24683W        W39814  16.069  13.095   4.342 -0.2053 -0.1668  0.0663
24684W        W39815  15.491   8.441   1.981  0.0279  0.2492  0.0555
24685W        W39816  15.087   6.727   6.104  0.0815  0.1757 -0.0115
24686W        W39817   9.782  14.621   3.495  0.0592  0.1427 -0.1349
24687W        W39818  13.790  13.355  12.730  0.1946 -0.0108 -0.0760
24688W        W39819   2.736   7.996  12.837  0.1461  0.0792  0.1111
24689W        W39820   0.906   8.568   5.548  0.5008 -0.0900 -0.0182
24690W        W39821  15.494  13.165  13.044 -0.0962 -0.0877 -0.2346
24691W        W39822   9.652   0.847   2.223 -0.0171 -0.0535  0.1251
24692W        W39823   4.324   4.573   5.491 -0.0464  0.0697 -0.0651
24693W        W39824  10.430   3.492   2.628  0.0431  0.1838  0.1349
24694W        W39825   3.128  10.000   2.877  0.1283 -0.2244  0.0429
24695W        W39826   7.722   7.746  13.290  0.0527 -0.1067  0.1147
24696W        W39827   1.080   2.040  16.422 -0.1900  0.1718  0.3913
24697W        W39828  17.668   4.748   3.829  0.2583  0.0562 -0.1017
24698W        W39829   6.735  12.005   2.975 -0.5274  0.1348 -0.2999
24699W        W39830  17.711  11.489   5.809 -0.4956 -0.0986 -0.3088
24700W        W39831   9.386   7.164   4.209  0.2416 -0.3927  0.2648
24701W        W39832  14.528   3.306   2.430 -0.0522  0.0360 -0.1542
24702W        W39833  17.286   3.558  14.567 -0.1025  0.1137 -0.0507
24703W        W39834  16.252   9.907  11.500 -0.1484 -0.1242 -0.2243
24704W        W39835   4.208  12.226  16.227 -0.0333  0.2261  0.0339
24705W        W39836  15.156  17.204   1.875 -0.2820  0.3810  0.0149
24706W        W39837  11.479  10.255   2.802 -0.1930 -0.0096  0.1231
24707W        W39838   4.107  16.846  15.509  0.1391 -0.0917  0.0109
24708W        W39839   5.756  11.372  12.244  0.0314 -0.0725  0.1361
24709W        W39840   4.860   3.226  13.952 -0.2034 -0.1700  0.4239
24710W        W39841   8.151  17.126   4.765 -0.0728 -0.1027 -0.0675
24711W        W39842   2.043   2.737  11.814 -0.0023  0.5416  0.1363
24712W        W39843   3.973   3.197  14.842 -0.0548  0.1033 -0.2562
24713W        W39844  15.103   9.017   2.595  0.0722  0.0081  0.3815
24714W        W39845   4.228   1.689  11.965  0.1283 -0.0841 -0.0828
24715W        W39846   6.799   7.354   0.444  0.0048 -0.1287  0.0606
24716W        W39847   0.213   7.117   3.233  0.0530  0.1492 -0.3677
24717W        W39848  16.575   4.398   2.561 -0.0340 -0.0901 -0.1936
24718W        W39849   6.290   4.926   3.461  0.0053  0.0466  0.3083
24719W        W39850  17.630  13.247   5.471  0.0137 -0.2596  0.0417
24720W        W39851   6.986   9.240   2.233  0.3162  0.2846 -0.0939
24721W        W39852   6.488  15.311   4.016 -0.1998 -0.1402  0.3443
24722W        W39853   4.074   1.861  15.526 -0.1843  0.0196 -0.1798
24723W        W39854   6.316   7.407   5.566  0.3188  0.0053 -0.0722
24724W        W39855  13.718   1.062  13.766  0.0872 -0.0506  0.0667
24725W        W39856   9.520   0.447  16.394 -0.0621 -0.3325 -0.1847
24726W        W39857   9.822  11.050  14.189  0.3928  0.1821  0.3257
24727W        W39858  10.211   3.529  16.201  0.0277  0.1533  0.4579
24728W        W39859  15.941   4.049  14.075 -0.0790 -0.0295  0.1649
24729W        W39860   6.257  12.544   0.085  0.2965  0.0386 -0.0877
24730W        W39861   8.812   6.087   2.461  0.0717  0.0159  0.0792
24731W        W39862  11.950  17.615   4.686 -0.1070  0.0050  0.0960
24732W        W39863  16.614  15.099   1.167 -0.3134  0.0398 -0.0610
24733W        W39864   8.876  15.232   0.497  0.1871  0.1685 -0.2190
24734W        W39865  11.495  11.898   0.140  0.1008  0.0444 -0.1373
24735W        W39866   3.229  14.063   2.531  0.1826 -0.1914  0.2713
24736W        W39867   7.001   3.442  14.745  0.1647 -0.1819 -0.0947
24737W        W39868   3.164   4.433  14.083  0.2570 -0.1144 -0.0626
24738W        W39869  12.794   6.407  11.492 -0.1729 -0.0253  0.1656
24739W        W39870   7.012   6.654   3.594 -0.0183 -0.0528  0.1990
24740W        W39871  15.835  12.195   1.378  0.2424  0.3695  0.1473
24741W        W39872   2.599   3.592   5.437  0.3035  0.1429 -0.1661
24742W        W39873   2.963   9.894  12.519  0.2586 -0.0345 -0.1372
24743W        W39874   5.529   1.443  15.501 -0.1236  0.0299 -0.0386
24744W        W39875  12.496   7.504  11.288 -0.1395 -0.0713 -0.0236
24745W        W39876   7.648   2.157  13.189 -0.0069  0.1015 -0.1698
24746W        W39877  13.726  17.336   4.528  0.0792  0.0156  0.0505
24747W        W39878  13.347   5.487  11.837  0.2450  0.1236  0.1481
24748W        W39879  10.214   0.101   4.123  0.3490 -0.0851  0.1284
24749W        W39880   9.089  17.053  10.820  0.2511  0.2493 -0.0812
24750W        W39881   4.912   8.943   1.904 -0.2568 -0.1546  0.1154
24751W        W39882  12.336   0.025   3.605 -0.1679 -0.0078  0.1012
24752W        W39883   5.137   4.437  16.157 -0.0554  0.0969  0.0511
24753W        W39884   3.815  14.191   2.522  0.3668 -0.1490 -0.0110
24754W        W39885   8.483   1.632  12.466 -0.1034 -0.0044 -0.0520
24755W        W39886   5.186   7.895   2.478 -0.2054 -0.2435 -0.0307
24756W        W39887   4.392   2.046   4.299  0.1368 -0.0621  0.1547
24757W        W39888   5.352   8.877  10.592  0.2785  0.1323  0.0163
24758W        W39889  17.045  11.175   2.491  0.1827 -0.2093  0.1723
24759W        W39890   4.740  17.452   3.562  0.3159  0.1340 -0.1988
24760W        W39891  17.636  17.168   4.124  0.2730  0.0363 -0.0362
24761W        W39892  10.403   5.702  11.387 -0.0498  0.4140 -0.1705
24762W        W39893   0.969  12.214  12.525  0.1918  0.0873 -0.1148
24763W        W39894   3.560   8.132   1.753  0.1376  0.0326  0.0298
24764W        W39895   2.669   4.396   4.478  0.1425 -0.0937 -0.1192
24765W        W39896  15.214   8.334  14.678 -0.0121  0.1724 -0.0504
24766W        W39897   7.546  14.317   4.632 -0.1532  0.1143  0.1433
24767W        W39898   5.294   9.510  16.221  0.1541 -0.0397 -0.1292
24768W        W39899  11.325  13.561   3.363 -0.3277 -0.2153  0.2716
24769W        W39900  10.703  15.558   5.355  0.0084  0.0276 -0.1617
24770W        W39901   3.134   5.837   3.792  0.0924 -0.1399  0.2273
24771W        W39902   6.246   0.784   6.131  0.0972  0.5220  0.1223
24772W        W39903   7.938  11.165  13.754  0.0922  0.0902  0.0866
24773W        W39904   4.271  16.897   4.124  0.2031  0.1927 -0.0226
24774W        W39905   9.921   2.987  14.510 -0.0264  0.0027  0.0845
24775W        W39906   6.279  14.227  13.366 -0.2412  0.2299  0.0272
24776W        W39907   4.256  11.676  16.242 -0.2897 -0.4042 -0.0178
24777W        W39908  17.269   8.151   5.648 -0.3048  0.1333  0.0690
24778W        W39909  17.251   7.379   5.662 -0.0807 -0.1301  0.0660
24779W        W39910  17.847  13.166  13.513 -0.1259 -0.1536 -0.1440
24780W        W39911  10.317  12.121   3.745 -0.0400 -0.1497  0.0194
24781W        W39912  13.621  17.803   2.801 -0.0423 -0.0239  0.1857
24782W        W39913  13.413   4.724   0.106 -0.3081  0.3445 -0.0062
24783W        W39914   4.213   4.130  14.516  0.1605 -0.3419 -0.0598
24784W        W39915  12.690  12.895  15.115 -0.3510 -0.4254  0.1140
24785W        W39916  10.133   4.869   3.305 -0.0836  0.1985  0.2674
24786W        W39917  10.549   4.391  14.115  0.1567  0.2498  0.1936
24787W        W39918   7.711   3.660  12.175 -0.0970  0.0289  0.1278
24788W        W39919  16.016  12.881   3.530  0.1842 -0.2062 -0.1084
24789W        W39920  16.152  14.785   1.388 -0.2388  0.1625  0.0425
24790W        W39921  13.420   7.267  15.232 -0.0896 -0.0774 -0.3183
24791W        W39922  16.978   8.715   2.247 -0.2419  0.1168 -0.1323
24792W        W39923   0.583  16.761  13.985  0.1111 -0.0355 -0.2659
24793W        W39924  11.642   6.435   0.526 -0.0632 -0.0068  0.0382
24794W        W39925   1.388   2.244  12.659 -0.2017 -0.0704  0.1293
24795W        W39926  15.572   2.244   3.525 -0.0679 -0.1253  0.0941
24796W        W39927   8.303   0.983   4.135 -0.2373  0.2100 -0.0300
24797W        W39928  14.189   7.422   1.405 -0.1182  0.0683 -0.2677
24798W        W39929   2.969   7.775  10.295  0.0144  0.1586 -0.1118
24799W        W39930   0.349  12.489  13.684 -0.0200 -0.0063  0.1785
24800W        W39931   6.006  12.185  13.584  0.2016 -0.1336  0.1427
24801W        W39932   3.289   8.030  15.911 -0.3552 -0.0758  0.0455
24802W        W39933  10.323   3.958   3.058 -0.0385  0.3052 -0.0485
24803W        W39934  14.728   0.046  12.528 -0.0489 -0.0020  0.3045
24804W        W39935   0.837   6.828  12.224 -0.0033  0.1264 -0.2358
24805W        W39936   1.957  10.816  11.310  0.1198 -0.2457 -0.2117
24806W        W39937   1.104   1.470  16.070 -0.2772  0.0453 -0.2324
24807W        W39938   0.344   2.967  13.702 -0.0793 -0.1951  0.1982
24808W        W39939   6.248  13.202   5.286  0.2103  0.0321  0.4255
24809W        W39940   9.661  11.858  11.218  0.0079  0.0543  0.0904
24810W        W39941  11.108   9.221   1.958  0.1569 -0.0504  0.0865
24811W        W39942   4.991   2.876   2.007 -0.0727  0.1942 -0.0496
24812W        W39943  16.109   5.827   2.578 -0.2047  0.1835  0.1734
24813W        W39944   8.433  12.696  12.049 -0.1019 -0.0660 -0.1115
24814W        W39945   5.209   0.205   5.218  0.0142 -0.0144  0.2297
24815W        W39946   3.348   6.679   4.073 -0.1608  0.0614  0.1712
24816W        W39947   9.867  11.346   3.795 -0.0489 -0.0455 -0.0641
24817W        W39948   6.626   9.657  12.452 -0.1802 -0.2365  0.1041
24818W        W39949   3.948  14.332   1.708  0.0829  0.2954 -0.3041
24819W        W39950  12.727   6.507  15.972  0.0298  0.1592  0.2034
24820W        W39951   2.644  11.062  13.989 -0.1479 -0.3525  0.2864
24821W        W39952   9.594   3.903  10.689  0.3040  0.2036  0.1286
24822W        W39953   5.346  14.585   1.278 -0.0390 -0.2879 -0.1675
24823W        W39954  12.000  14.167  11.641  0.0096 -0.0310 -0.2301
24824W        W39955   3.600  13.128   4.533  0.2368 -0.0424 -0.1384
24825W        W39956   5.441   2.854  15.407  0.0767  0.1228 -0.0227
24826W        W39957  15.028   9.789  10.850  0.1826 -0.1346  0.0104
24827W        W39958  17.127   6.889   5.418 -0.2301 -0.0611  0.0990
24828W        W39959  14.981  15.316   2.509 -0.1685  0.0333  0.2933
24829W        W39960  14.158   5.562   5.357  0.0231  0.0549 -0.4117
24830W        W39961   9.519  14.302  11.629  0.1735  0.4250  0.0538
24831W        W39962   5.623  17.043  10.725  0.1367  0.0657 -0.5305
24832W        W39963  10.021  13.159   1.045  0.2570  0.2352 -0.1828
24833W        W39964   6.790   9.112   0.580 -0.2472  0.1395 -0.1665
24834W        W39965   7.379   6.889  13.567  0.0144  0.1073  0.3086
24835W        W39966  14.589  10.241   1.458 -0.2136 -0.3291  0.1483
24836W        W39967  15.846  17.260  15.869 -0.2776  0.1164  0.1421
24837W        W39968  10.596   2.680   1.224 -0.0469 -0.0091 -0.1685
24838W        W39969   6.310   6.752  12.814  0.0863 -0.0703 -0.1342
24839W        W39970   2.811   0.638  13.176 -0.1678 -0.3652  0.0140
24840W        W39971   0.768   1.107   4.700 -0.0142 -0.0545  0.0345
24841W        W39972   4.474  14.164   2.385 -0.1769  0.1063  0.4264
24842W        W39973   2.649  16.338   3.814 -0.0673  0.1333 -0.1147
24843W        W39974  16.320   6.696  16.215  0.0750 -0.1075 -0.1951
24844W        W39975  14.002   7.846  15.471 -0.2785 -0.0841 -0.0427
24845W        W39976   4.478  14.481   5.026  0.2088 -0.3685  0.1986
24846W        W39977   8.814  16.400   1.636 -0.1676  0.0851  0.0223
24847W        W39978   4.048   7.945   1.874 -0.2567  0.0966 -0.1695
24848W        W39979  15.934   1.486   2.877 -0.0009 -0.1181 -0.2732
24849W        W39980   6.457   4.858   1.290 -0.0668  0.1499  0.0747
24850W        W39981  15.433  16.020  14.099  0.0812  0.0446 -0.0856
24851W        W39982   8.142   1.307  15.911 -0.2197 -0.2771  0.0591
24852W        W39983   4.489   0.659  14.856 -0.1096 -0.0751 -0.1241
24853W        W39984   5.372   3.471  14.199  0.0599  0.2992 -0.2710
24854W        W39985   4.697  12.926   3.839  0.0182  0.1396 -0.3448
24855W        W39986  10.040  16.485   0.051  0.2938  0.1807  0.1763
24856W        W39987  15.341   7.154   6.212  0.2410  0.3637 -0.1513
24857W        W39988   7.367  11.811   4.825 -0.0202  0.2310  0.2478
24858W        W39989  14.750  17.137  14.717 -0.0763  0.1208  0.1952
24859W        W39990  10.569  12.862   4.996  0.1521 -0.0157 -0.1029
24860W        W39991   9.156   6.389   1.418 -0.1432  0.2703 -0.0205
24861W        W39992   9.227   7.468  15.985  0.2385 -0.1599 -0.0534
24862W        W39993   7.197  11.603  11.745  0.1954  0.0499 -0.1177
24863W        W39994  17.136  16.409   3.011 -0.0437 -0.0539  0.0177
24864W        W39995   2.601  14.974  11.263  0.0031 -0.1060  0.2095
24865W        W39996   5.768  11.190   4.588 -0.1534  0.5264  0.2352
24866W        W39997   2.596   9.149  10.596 -0.1208  0.1059  0.0877
24867W        W39998   2.766   8.697  15.464  0.1417  0.0022  0.2549
24868W        W39999   1.982   1.920  12.630  0.2464 -0.0062  0.0541
24869W        W40000  16.834   1.015   0.903 -0.1091 -0.2392  0.0497
24870W        W40001  17.855  15.115   3.891  0.1625 -0.2886 -0.1630
24871W        W40002   2.942  11.884  13.112  0.0546  0.0339 -0.1251
24872W        W40003  10.995  10.103   2.674 -0.2005 -0.2187  0.0463
24873W        W40004  14.216   1.283  14.661  0.2622  0.1018 -0.1306
24874W        W40005  10.193  14.695   0.254  0.1008  0.1285 -0.1551
24875W        W40006  16.560  13.533  12.929 -0.1698 -0.0376 -0.0219
24876W        W40007   5.201   3.047   5.021 -0.0763 -0.0514  0.0342
24877W        W40008   8.197  13.477   1.368 -0.0544  0.2192  0.2037
24878W        W40009   1.909  15.185  15.598 -0.0336  0.0660 -0.0136
24879W        W40010   1.799  10.717   0.742  0.0596 -0.2433  0.0322
24880W        W40011   2.428   3.427   4.414 -0.3358  0.0942 -0.0690
24881W        W40012   4.195   9.815  11.709 -0.0045 -0.1977 -0.0520
24882W        W40013  12.315   5.525   4.911  0.3198 -0.0046  0.0718
24883W        W40014  11.324   7.763   1.897 -0.1855 -0.1431 -0.0520
24884W        W40015   5.846   0.829   5.544 -0.1444  0.0182 -0.1642
24885W        W40016   5.205  17.242  13.674  0.0563  0.0956 -0.0458
24886W        W40017  10.831   0.308   5.990 -0.4048 -0.1157  0.0206
24887W        W40018   0.671   7.960   0.758 -0.0333 -0.1814  0.2762
24888W        W40019   7.523  15.008   4.223  0.0113  0.1885 -0.0150
24889W        W40020   8.646  17.950   4.717 -0.2553 -0.0740 -0.1653
24890W        W40021  10.356   7.310   1.955 -0.1399 -0.0999 -0.0342
24891W        W40022  12.714  10.033  11.750  0.0400 -0.0257 -0.0207
24892W        W40023   2.837  16.903   5.168  0.1363 -0.0906 -0.2217
24893W        W40024  13.022   2.107  15.812  0.1702 -0.0932 -0.2610
24894W        W40025  16.468   8.659   0.183  0.4447 -0.0582  0.2606
24895W        W40026   7.577   5.313  10.538  0.0413 -0.2473  0.0979
24896W        W40027   5.971  17.057  15.566  0.0275 -0.0615  0.1479
24897W        W40028   5.434  14.622   2.775  0.0424  0.3250  0.0137
24898W        W40029  13.425  13.432   2.957  0.1338  0.1502 -0.2154
24899W        W40030  16.892   8.383  15.126  0.3671  0.1069 -0.1794
24900W        W40031  10.600   4.520   2.410  0.1827  0.0331 -0.1404
24901W        W40032   1.181   5.555   2.003 -0.2183  0.2937 -0.1317
24902W        W40033  10.699   2.358  14.690  0.0228  0.0723 -0.0998
24903W        W40034   2.034  12.479   0.251  0.1706  0.3015  0.0311
24904W        W40035   2.047   7.405  11.796  0.2400  0.0872  0.1064
24905W        W40036   8.533  17.812  16.275  0.0381  0.1947 -0.0503
24906W        W40037   2.873  10.792   3.148 -0.0337 -0.1335  0.0856
24907W        W40038   2.727   1.510  13.664 -0.2679 -0.0156  0.2611
24908W        W40039  16.762  16.905   3.584  0.4069 -0.3507  0.1497
24909W        W40040   5.835  14.136  13.644 -0.1905 -0.0330 -0.0789
24910W        W40041  16.974   2.770   1.806  0.1379  0.2315 -0.0633
24911W        W40042  10.549   9.881   1.362  0.3024 -0.2660  0.1451
24912W        W40043  15.392   1.564  11.347 -0.0483 -0.3934  0.0290
24913W        W40044  10.944   7.271  10.043  0.0777  0.0027 -0.2212
24914W        W40045  16.988   0.611  15.840 -0.1279  0.1871  0.1706
24915W        W40046   3.274  16.189  12.945 -0.1290  0.0585  0.0875
24916W        W40047   7.826   3.918   3.600  0.0374 -0.3584 -0.0564
24917W        W40048  11.212  15.510  11.940  0.3137 -0.0466 -0.1984
24918W        W40049   4.950  15.766  11.752  0.0377  0.2192  0.1612
24919W        W40050  17.217  11.990   4.616 -0.1485 -0.2923  0.2303
24920W        W40051  17.682   1.100   5.106  0.2591 -0.1181  0.0862
24921W        W40052  10.107   4.524  14.442 -0.1981  0.2619  0.3250
24922W        W40053   6.415   6.993   2.384 -0.4921 -0.1801  0.1302
24923W        W40054  17.852   2.821   4.700 -0.3891  0.0234  0.2514
24924W        W40055  14.206   0.517   3.819  0.2612  0.0227 -0.1864
24925W        W40056   1.157   9.723  12.409 -0.0853  0.1021 -0.1721
24926W        W40057  10.314  12.679   5.514 -0.3355 -0.2006 -0.1048
24927W        W40058   1.053   5.670   2.482  0.2573 -0.1459 -0.5199
24928W        W40059  11.473   9.506   4.029 -0.3219 -0.2831 -0.2767
24929W        W40060  14.360   8.064  14.484  0.1399  0.1044  0.0609
24930W        W40061  17.426   9.618   3.289 -0.0417 -0.3242  0.0355
24931W        W40062   8.345   8.815   4.703  0.2661  0.0230  0.2070
24932W        W40063   2.476  14.665  11.916 -0.5356  0.0068 -0.2867
24933W        W40064   2.049   6.199  10.249 -0.0717  0.2242 -0.0340
24934W        W40065   2.051   0.821  13.645 -0.0657 -0.0132 -0.2708
24935W        W40066   5.242  11.494   3.637 -0.2952  0.0565  0.1543
24936W        W40067   0.948  16.321   1.607 -0.0655  0.1602  0.1123
24937W        W40068  10.981   1.277  14.689  0.1293  0.1462 -0.1943
24938W        W40069   5.926   8.056   3.687 -0.0476  0.1247  0.1113
24939W        W40070  11.124   8.877   2.696  0.0530 -0.2514 -0.2594
24940W        W40071  16.582   1.032  12.543 -0.2018  0.3035 -0.0056
24941W        W40072  16.636   2.061  14.306  0.0921  0.1858 -0.2673
24942W        W40073  10.396  11.596   1.517 -0.0711 -0.0323  0.1940
24943W        W40074  14.760   9.549   4.488 -0.2184  0.2616  0.0882
24944W        W40075  15.299   7.205   0.921 -0.0453 -0.0448  0.1289
24945W        W40076   8.337   8.466   4.311  0.1897  0.3003 -0.0848
24946W        W40077   0.256  11.742   0.918 -0.2701 -0.1088  0.0698
24947W        W40078  14.424   2.588   1.251 -0.0577  0.2915 -0.0314
24948W        W40079   4.861  12.843  13.785 -0.0937 -0.1180  0.0828
24949W        W40080  15.098  18.039  16.061  0.1929  0.3402  0.0894
24950W        W40081  17.225  10.196  12.289  0.0210  0.0128 -0.1175
24951W        W40082   2.031   8.398  10.824  0.3037  0.2668 -0.1023
24952W        W40083  14.429   5.719  15.329 -0.0925  0.2657  0.0252
24953W        W40084   1.839   0.399   2.140 -0.0667 -0.2385  0.0628
24954W        W40085  11.294   9.622  15.788  0.1988 -0.0857 -0.1798
24955W        W40086   0.089  11.811   5.837  0.0164 -0.0568  0.0258
24956W        W40087  17.201   6.155   1.631  0.0503  0.1864 -0.2762
24957W        W40088   1.242  16.499  16.347  0.0656  0.0352 -0.0931
24958W        W40089  14.654  12.972   3.954 -0.0984 -0.0371 -0.1002
24959W        W40090   5.980   5.939   5.502 -0.1543  0.0857 -0.2685
24960W        W40091  15.542  15.800  15.469 -0.0329  0.1485 -0.0827
24961W        W40092  12.135   4.576   4.657 -0.0826 -0.1824  0.0880
24962W        W40093  13.105   2.586   0.720 -0.1374 -0.1846  0.2265
24963W        W40094   3.063  15.839  16.445  0.0613  0.2642 -0.0937
24964W        W40095   3.554   7.329   2.019  0.1454 -0.2190  0.1556
24965W        W40096  14.465  12.509  13.596  0.3922  0.0330 -0.0108
24966W        W40097   4.303  13.482   5.242  0.1260 -0.0016 -0.2013
24967W        W40098   4.071   1.993  16.244  0.3142 -0.0227 -0.0192
24968W        W40099   7.104   1.782   1.933 -0.1194  0.1932  0.2566
24969W        W40100   1.828  16.015   0.841  0.2172  0.2369 -0.1973
24970W        W40101   1.672  14.233   1.590 -0.2985  0.1816 -0.0967
24971W        W40102  10.771   9.284  12.903  0.1476  0.1864  0.1779
24972W        W40103  15.622   4.929  14.951 -0.1183  0.0686 -0.0374
24973W        W40104  16.500   4.008  14.942 -0.1012 -0.0616 -0.2056
24974W        W40105   7.414  16.367  12.731 -0.3250 -0.1358 -0.2780
24975W        W40106   9.464   6.355  11.776  0.0447 -0.1465  0.1763
24976W        W40107  12.633   4.546   4.805 -0.2972  0.0383  0.1461
24977W        W40108   3.011  17.870   4.137  0.5074 -0.0742  0.1170
24978W        W40109  15.126  17.501   4.936  0.0284  0.1126  0.0012
24979W        W40110  15.723  16.450   5.262  0.1645 -0.1436 -0.1571
24980W        W40111  13.682   5.761  13.949  0.1761 -0.4175  0.2143
24981W        W40112   8.063   2.215  15.199 -0.1152 -0.0487 -0.1935
24982W        W40113   2.360  15.957  15.023  0.0943 -0.1401  0.1454
24983W        W40114   0.980   3.871  14.451  0.0430  0.1374  0.1205
24984W        W40115  15.362   3.701  14.441 -0.0865 -0.2162 -0.0533
24985W        W40116  13.840   8.138  11.575  0.2103 -0.2051 -0.1747
24986W        W40117  10.430  13.076  13.834  0.0635  0.0562  0.2133
24987W        W40118   8.858  16.922  15.824  0.1974 -0.1978  0.1824
24988W        W40119   5.184   3.468  13.305 -0.1601 -0.2449 -0.0868
24989W        W40120  16.495   9.750   3.735  0.0540 -0.0087 -0.1434
24990W        W40121  13.929   0.527  14.921 -0.0678  0.1465 -0.2326
24991W        W40122  10.270  14.518  15.794 -0.2263 -0.1468  0.0959
24992W        W40123  13.138  15.772  16.174 -0.0810  0.1149 -0.0976
24993W        W40124   1.292  13.678  13.200  0.0123 -0.1334 -0.3128
24994W        W40125  11.122  17.615  11.976  0.2307 -0.0420 -0.1402
24995W        W40126   9.083   9.998  13.633  0.1446  0.1317  0.0708
24996W        W40127   4.878   9.945   0.418  0.2571 -0.1077  0.0557
24997W        W40128   2.068  11.965   0.184  0.0497  0.0696 -0.0451
24998W        W40129  16.695  17.143  14.846 -0.0663  0.1367  0.0210
24999W        W40130   8.602  11.692   3.052  0.1201 -0.0629 -0.3785
25000W        W40131   6.474  17.694   4.474 -0.1781 -0.1430  0.0785
25001W        W40132  15.922   7.124  11.348 -0.3161  0.0043 -0.1069
25002W        W40133  13.926   9.872  11.964  0.0387 -0.2629 -0.0215
25003W        W40134   1.434  16.849  12.694 -0.0009  0.1674 -0.2062
25004W        W40135   8.950  11.850   2.781  0.3013  0.1480  0.0849
25005W        W40136   6.971   6.691   4.706 -0.0360  0.1272  0.0889
25006W        W40137  15.010   8.833   4.927  0.1888 -0.2367 -0.2066
25007W        W40138  15.803   6.527  13.907  0.3482 -0.1516  0.0617
25008W        W40139  15.138   4.985  11.632 -0.0988 -0.4125 -0.0711
25009W        W40140  12.679   1.377  11.660  0.0435 -0.0705 -0.0328
25010W        W40141  13.756  16.421   5.461 -0.1953 -0.1923 -0.0740
25011W        W40142   6.652   6.958  14.351  0.2847  0.1198  0.2754
25012W        W40143  16.240  14.660  13.291  0.0780  0.0460 -0.4493
25013W        W40144   3.225  13.852   3.154 -0.0246 -0.2198 -0.1064
25014W        W40145  14.623   4.168   0.452  0.0888  0.0446 -0.3177
25015W        W40146   1.372   7.547   3.715  0.1677 -0.0989  0.0095
25016W        W40147   2.237   4.924  16.302 -0.2120  0.3053 -0.3466
25017W        W40148   0.895   3.355   2.497  0.1444  0.2588  0.1081
25018W        W40149  16.833  16.085   0.262 -0.1721  0.1031  0.1619
25019W        W40150   5.002   6.464  11.938 -0.0135  0.3188  0.2826
25020W        W40151  12.257  14.019  14.101 -0.1464 -0.1414  0.1870
25021W        W40152   6.259   3.450   1.271 -0.0535  0.0146  0.2352
25022W        W40153  13.751  10.822  15.002  0.0215 -0.0162 -0.2726
25023W        W40154   2.673   7.392  11.655 -0.3833  0.1000 -0.1121
25024W        W40155  17.703   5.159   4.810  0.2584 -0.1025  0.0381
25025W        W40156   2.691  11.238   4.912 -0.1077 -0.0777  0.0723
25026W        W40157   7.337  16.219  11.964 -0.1468 -0.2220  0.1729
25027W        W40158  15.145  10.177   5.276 -0.1364  0.0978 -0.0654
25028W        W40159   1.152  11.762   0.073  0.2162  0.1217 -0.1668
25029W        W40160   8.784   2.768  14.691 -0.0760 -0.0290 -0.2424
25030W        W40161   4.443   6.572   6.024 -0.2985  0.0056 -0.0307
25031W        W40162  14.380   6.597  10.536  0.0092 -0.0617  0.2876
25032W        W40163   1.859  11.530  12.455 -0.2540  0.1665  0.0253
25033W        W40164  13.965   9.857  14.666  0.0707  0.2706  0.2032
25034W        W40165   0.782   2.907   1.387  0.1930  0.0120  0.0239
25035W        W40166  15.200   7.931  14.966  0.0421  0.1096  0.1196
25036W        W40167  10.626  11.864  12.771  0.1259  0.1060 -0.0729
25037W        W40168  16.216   7.804  12.897  0.0304 -0.0611 -0.2462
25038W        W40169   4.609  16.287  13.004 -0.1801  0.4214  0.2310
25039W        W40170   9.906  10.211  14.043  0.1517 -0.2801 -0.1605
25040W        W40171  15.533  10.387   2.322 -0.1014 -0.2546 -0.1208
25041W        W40172   0.542   0.668   2.077 -0.0686 -0.0358 -0.0644
25042W        W40173  14.471   5.839  12.662  0.2230  0.2922  0.2188
25043W        W40174   7.547  15.728   0.706  0.0175 -0.2197 -0.1318
25044W        W40175  11.101  14.266  16.360  0.0343  0.1537 -0.1635
25045W        W40176   8.785   8.379   4.563  0.1186 -0.1715  0.1912
25046W        W40177  15.885   1.854   3.891 -0.1330 -0.2883 -0.1221
25047W        W40178   3.220  15.926   2.139 -0.1372 -0.1892 -0.1388
25048W        W40179   6.664   9.307  12.878  0.1617 -0.0423  0.0420
25049W        W40180   2.483   3.840   2.085 -0.1565  0.2601  0.3110
25050W        W40181  14.658   9.511   0.817  0.4646 -0.0983 -0.3840
25051W        W40182   4.437   2.511   4.132 -0.2198  0.0841 -0.0446
25052W        W40183   2.623  15.963   3.253  0.1727 -0.2711  0.3439
25053W        W40184  13.851  12.740   5.013  0.0221  0.1965  0.1449
25054W        W40185   3.910   1.541  13.994  0.1067 -0.0142  0.1168
25055W        W40186   9.282  14.390   4.224 -0.1893  0.1845 -0.1638
25056W        W40187  16.399  16.053   2.452  0.0441 -0.1789 -0.1121
25057W        W40188  13.291   0.155   2.669  0.0779 -0.1505  0.1772
25058W        W40189   3.285  12.300  14.738  0.0377  0.0029 -0.2579
25059W        W40190  14.264   6.591   5.607 -0.1355 -0.2190  0.0900
25060W        W40191  10.874   8.688  16.355  0.0574  0.1522 -0.1184
25061W        W40192   5.362  14.140  13.933  0.0439 -0.3986  0.1122
25062W        W40193  10.224  15.713   5.458 -0.1283 -0.2003  0.0164
25063W        W40194   2.063   0.438  13.240 -0.0189 -0.0574 -0.0026
25064W        W40195   3.471   6.003  11.979 -0.1299 -0.0179  0.2322
25065W        W40196   8.023   1.168   2.000  0.1875 -0.1696 -0.1079
25066W        W40197  16.934  12.861  14.357 -0.0029 -0.1195 -0.3791
25067W        W40198  14.508   8.131   4.874  0.0995  0.0186 -0.3158
25068W        W40199  10.768  16.489   2.135  0.1923 -0.1453  0.1438
25069W        W40200   5.963  15.153   1.889  0.2094 -0.0276 -0.3746
25070W        W40201  10.655   6.177   4.242  0.2547  0.0690 -0.0821
25071W        W40202  10.741   0.444  11.954  0.1928  0.0062  0.1322
25072W        W40203   4.430   6.125   4.990 -0.1478 -0.0483 -0.2362
25073W        W40204  16.330   8.444  13.003 -0.2356  0.1398 -0.1249
25074W        W40205  14.594   6.104   3.452 -0.0193  0.0801  0.2584
25075W        W40206  16.923  15.341  13.823  0.2524  0.1112 -0.2165
25076W        W40207  13.830   5.814   5.065 -0.0688 -0.0794 -0.0810
25077W        W40208   5.632  10.525  10.693  0.1434 -0.1393 -0.1123
25078W        W40209  17.786   8.328  11.778  0.2575  0.1328  0.1264
25079W        W40210  10.958  13.513   4.096 -0.2650 -0.1302  0.0702
25080W        W40211  15.094  14.982   1.112 -0.2554  0.0507  0.2358
25081W        W40212   6.492   6.677   4.905 -0.0280  0.3252 -0.2868
25082W        W40213  10.310   6.711  15.397  0.0924 -0.2245  0.2467
25083W        W40214  14.207  10.382   4.234 -0.1047  0.3573 -0.2139
25084W        W40215  12.116   7.187  16.135 -0.1454 -0.0304 -0.0790
25085W        W40216   5.640   0.435   5.378  0.0576  0.3985 -0.1333
25086W        W40217   5.019  13.905   2.829  0.1975 -0.1534  0.1864
25087W        W40218   8.648  14.856   0.701 -0.0464  0.2472 -0.2172
25088W        W40219   4.694   8.575   1.132  0.0067  0.0484  0.1021
25089W        W40220   4.488   4.447  16.166  0.1418  0.0073  0.1898
25090W        W40221  17.216  10.690   3.255 -0.0538 -0.0636 -0.2051
25091W        W40222   5.973  10.103  15.390  0.1933 -0.3967  0.1469
25092W        W40223   3.387  17.432   3.174  0.3406  0.1892  0.1818
25093W        W40224   5.261  14.187   4.385 -0.1920  0.0488  0.1241
25094W        W40225  12.364   8.525   3.982 -0.4354  0.0800  0.0113
25095W        W40226  16.402  17.607  11.356 -0.2732  0.0568  0.4634
25096W        W40227  17.582   9.316  11.935 -0.0062 -0.0829  0.0251
25097W        W40228   5.534   6.370   0.366 -0.2192 -0.1433  0.0678
25098W        W40229  16.387   1.229   3.668 -0.0618  0.2830 -0.2866
25099W        W40230  10.529   5.996   1.376 -0.1606 -0.1422  0.0779
25100W        W40231  16.090  15.072  11.095  0.0239 -0.0226 -0.0585
25101W        W40232  13.064  10.767  13.743 -0.2522 -0.1709  0.1405
25102W        W40233   3.547  12.777   0.750 -0.0214 -0.1134 -0.0178
25103W        W40234  13.145   8.438   3.330 -0.2238  0.1669  0.1107
25104W        W40235   3.734   4.665   2.050  0.0205  0.0495  0.1807
25105W        W40236   4.029  14.154  15.389  0.1776 -0.0850  0.0029
25106W        W40237  14.209  10.900   1.768  0.0913  0.0864  0.4027
25107W        W40238   2.213   8.200   3.075  0.2340 -0.1101  0.0854
25108W        W40239  17.345  11.062   2.933 -0.0763  0.1917 -0.0353
25109W        W40240  12.161  16.715  11.305  0.0961  0.1833 -0.1040
25110W        W40241  11.294   8.746   2.268  0.1151  0.1871  0.1957
25111W        W40242   7.348  17.357   1.459  0.1879 -0.2023 -0.0153
25112W        W40243  10.980   7.197  14.665  0.0261  0.0486 -0.1389
25113W        W40244  15.831  15.983  12.219 -0.0104  0.0676 -0.1109
25114W        W40245   7.992   4.974   0.619  0.0817 -0.2072  0.0030
25115W        W40246  13.195  11.806   2.714  0.1641 -0.0649  0.2236
25116W        W40247  12.728  10.886   0.254 -0.4559 -0.2767 -0.0004
25117W        W40248  11.256   9.968   3.875  0.1729 -0.5056  0.0841
25118W        W40249  13.602  10.984   1.262 -0.0535  0.1128  0.1345
25119W        W40250  17.949  16.760   2.772  0.0132  0.0725 -0.0624
25120W        W40251  17.616   1.346   2.896  0.1023  0.0073 -0.4628
25121W        W40252   9.531   4.857   1.754  0.2571  0.2678  0.2978
25122W        W40253   3.626  17.055   0.863  0.0004  0.1696  0.1597
25123W        W40254   9.137   6.139  15.020  0.1934  0.0663 -0.3124
25124W        W40255  11.216   1.712   1.924  0.0235 -0.3007 -0.0196
25125W        W40256  10.847   2.470  10.374  0.0177  0.0534 -0.0781
25126W        W40257   2.061  13.875  14.333 -0.2993  0.0186 -0.1435
25127W        W40258   7.403  14.779   4.678  0.1095  0.1201 -0.0805
25128W        W40259   5.388   6.374  12.468 -0.1219  0.1470 -0.0037
25129W        W40260   6.923  12.462   3.222 -0.0686  0.3826 -0.2498
25130W        W40261   1.515   0.054   0.784  0.2323 -0.2015  0.3039
25131W        W40262   5.340   4.094  13.114 -0.0633 -0.2103 -0.0812
25132W        W40263  16.689   3.543  13.605  0.3828 -0.3258  0.1007
25133W        W40264   5.148   2.528   1.525 -0.0907  0.1891 -0.0143
25134W        W40265  11.040   1.236  12.238 -0.1417  0.2829  0.2136
25135W        W40266  10.835   8.565   3.630 -0.0097 -0.0510 -0.2849
25136W        W40267  17.874   7.318  15.226  0.1700  0.1956  0.0289
25137W        W40268   8.306   7.828   3.633  0.0438 -0.1738  0.1573
25138W        W40269  15.345   0.499   0.805  0.0151  0.2662  0.1928
25139W        W40270   3.113   1.989   3.450 -0.0134  0.0350 -0.0413
25140W        W40271   7.131   1.533   4.233  0.1408  0.2316  0.2046
25141W        W40272  10.937   9.317   2.540  0.0329  0.5184 -0.0512
25142W        W40273   8.389  16.705   1.417 -0.0026  0.0411  0.0504
25143W        W40274   7.142  16.533   4.989 -0.2978  0.1442  0.2789
25144W        W40275   0.486   3.351  14.877 -0.1446 -0.2417  0.0147
25145W        W40276  16.582   5.770  12.995  0.1125  0.0360 -0.1012
25146W        W40277  15.803  13.998  12.551 -0.0964 -0.0587 -0.2323
25147W        W40278   0.312  13.389  13.326 -0.0188  0.1537  0.1305
25148W        W40279   6.696  10.545  11.541  0.1367  0.2200 -0.2779
25149W        W40280   9.581   6.505  13.635  0.0590 -0.1941  0.1587
25150W        W40281   5.395  16.065  10.410  0.0065  0.0578  0.0380
25151W        W40282  15.414   9.346   2.818 -0.3399 -0.0676  0.0010
25152W        W40283   7.066   8.456   4.109 -0.2128 -0.1928 -0.0677
25153W        W40284  17.346  14.758   1.526 -0.0250  0.1476 -0.0474
25154W        W40285  14.193  14.526   2.176  0.2005  0.1625  0.0931
25155W        W40286   3.414   5.987   2.572 -0.1563 -0.0650 -0.0691
25156W        W40287   1.338   1.282  14.179  0.1699 -0.0356 -0.2553
25157W        W40288  16.535  16.813  11.723  0.0420  0.2501 -0.0716
25158W        W40289   0.352  12.967   1.737 -0.0459 -0.0244  0.1073
25159W        W40290   8.277   1.198  15.410  0.1077  0.0776 -0.1550
25160W        W40291   9.739  13.233   5.265 -0.2836  0.1175 -0.3461
25161W        W40292  15.797  15.631   5.392 -0.2381  0.1338  0.0020
25162W        W40293  10.777   5.760   4.441 -0.2722 -0.2881  0.0431
25163W        W40294   1.458  17.303  14.854  0.1811 -0.0609  0.2158
25164W        W40295  17.598  13.746   3.100 -0.1847 -0.1072  0.0805
25165W        W40296  15.718   2.732   4.621 -0.1712  0.2301  0.0633
25166W        W40297   2.134   3.363   3.763  0.0125 -0.2087 -0.1034
25167W        W40298  14.131  17.954   4.927 -0.2010  0.2317 -0.0412
25168W        W40299   5.465   5.449  13.760 -0.2354  0.0406  0.0881
25169W        W40300   5.727  13.662  10.025 -0.0635 -0.1027 -0.2150
25170W        W40301   3.015   6.548   0.137  0.0188  0.2175 -0.0083
25171W        W40302   3.710  16.541   0.160  0.1195  0.0561 -0.0057
25172W        W40303   8.904   0.890   4.183 -0.1183 -0.0201 -0.1794
25173W        W40304   8.819  12.420  15.249  0.0569  0.0219 -0.3114
25174W        W40305   3.017   7.801   2.984  0.2033  0.0782  0.0209
25175W        W40306  12.270  10.724   3.932  0.2164  0.0404  0.0998
25176W        W40307   2.367  16.753   3.599 -0.2969  0.2711 -0.3803
25177W        W40308  11.527  13.693  14.271  0.1357 -0.1816  0.0087
25178W        W40309  14.360   1.287   5.095  0.0754 -0.0195  0.2229
25179W        W40310   1.904   1.282  14.506 -0.0121 -0.0970  0.0206
25180W        W40311   9.834  15.726   1.582 -0.2929  0.0085 -0.0259
25181W        W40312  17.174   6.829  16.073 -0.5083 -0.4131 -0.0532
25182W        W40313  16.358  13.868   0.606 -0.2325  0.2877  0.0308
25183W        W40314   9.760   2.200  15.516 -0.1122 -0.1756  0.2481
25184W        W40315  14.053   9.412  14.388 -0.0199  0.0058 -0.4385
25185W        W40316   2.349  16.536   1.452 -0.2307  0.1581 -0.1444
25186W        W40317  10.918  15.268  16.006 -0.0119  0.3758 -0.1781
25187W        W40318   2.202  14.570  15.367  0.2096 -0.1184  0.0497
25188W        W40319   1.649   4.175   3.440  0.1072  0.2817 -0.0199
25189W        W40320   5.514   9.253   0.221  0.1179  0.3065 -0.0000
25190W        W40321   9.141   3.470  14.990  0.1387 -0.0013 -0.1576
25191W        W40322   3.385   7.158   2.436  0.0668  0.0532  0.2136
25192W        W40323   3.096  13.972   0.942 -0.1515  0.1458 -0.2594
25193W        W40324  13.137   0.647  13.288 -0.0752  0.3152  0.3668
25194W        W40325   2.318   6.952   3.234 -0.0512  0.0313  0.0772
25195W        W40326   3.659   8.312  12.954  0.1368  0.3741  0.0394
25196W        W40327   8.265   7.027   0.268 -0.0036 -0.0269 -0.0474
25197W        W40328   8.810   0.282   3.567 -0.3825  0.0221  0.4009
25198W        W40329   5.332   7.605  16.411 -0.4100 -0.1770 -0.0289
25199W        W40330  16.580  14.713   4.297  0.1299 -0.1987 -0.1709
25200W        W40331   3.578   4.580  15.900 -0.0130  0.2037 -0.2577
25201W        W40332  13.053  16.154  14.698 -0.1062  0.0776 -0.1547
25202W        W40333   0.145   2.335   2.186 -0.1495 -0.1045 -0.0824
25203W        W40334  12.173   7.645  16.300 -0.2078  0.0189 -0.1178
25204W        W40335  17.301  14.095  15.035  0.2249 -0.0452 -0.0492
25205W        W40336  13.561   3.197   0.999  0.0447  0.0679  0.3285
25206W        W40337   6.321   1.624   0.856  0.0214 -0.0294  0.2192
25207W        W40338  15.563  17.504   4.479  0.2988  0.1904 -0.0372
25208W        W40339  13.986  17.230  11.746 -0.1027 -0.0051 -0.2050
25209W        W40340   7.195  17.480  12.579  0.1033  0.1772  0.2529
25210W        W40341  15.679   2.320  13.940 -0.2148  0.1286  0.0022
25211W        W40342  17.715   3.905  14.992  0.1256 -0.2064 -0.0109
25212W        W40343  12.713   5.700   1.569  0.0761  0.0273 -0.1838
25213W        W40344   7.629  14.564   0.379 -0.3496 -0.0489  0.0015
25214W        W40345   2.002   8.971  11.463  0.0058 -0.1276 -0.0920
25215W        W40346   7.125   5.485   3.279  0.0090 -0.1264 -0.2121
25216W        W40347   8.678  14.040   0.439 -0.4249 -0.0470 -0.0272
25217W        W40348   2.692   8.676  13.993  0.2033  0.0245  0.2062
25218W        W40349  10.115  11.968  12.830 -0.0746  0.2591 -0.0097
25219W        W40350   6.793  11.114   1.980  0.0348 -0.1270 -0.0456
25220W        W40351  13.461  10.029  12.021 -0.2008 -0.1557 -0.3738
25221W        W40352   6.787  13.959   2.568 -0.1414 -0.0506 -0.0143
25222W        W40353   8.600   2.666  16.092 -0.3114  0.1510 -0.3699
25223W        W40354  14.328  13.703   2.553 -0.1883  0.3769  0.0826
25224W        W40355   0.153   7.524   4.047 -0.0312 -0.5329 -0.0771
25225W        W40356  11.119   4.701  13.396  0.0768  0.5503  0.3197
25226W        W40357   9.594  14.561  10.781  0.2581 -0.2354 -0.2618
25227W        W40358   1.749  10.100  13.095 -0.0268 -0.0579 -0.1656
25228W        W40359   6.847   6.387  10.467  0.1215 -0.0741 -0.1471
25229W        W40360  12.016  11.676  14.337  0.0386 -0.1243  0.1655
25230W        W40361  15.586   2.979   4.220  0.0161 -0.1743  0.0649
25231W        W40362  10.535   1.092  16.262 -0.1992  0.1978  0.4246
25232W        W40363  17.099   5.330   2.207  0.2103  0.3157 -0.2166
25233W        W40364  15.222   3.643   0.754  0.2813  0.0380  0.0712
25234W        W40365   8.262  13.266   0.453  0.0656 -0.0485  0.1476
25235W        W40366   9.932  13.296   1.528 -0.3342 -0.0557  0.0942
25236W        W40367   1.917  17.242   5.109  0.2924 -0.0081  0.4019
25237W        W40368  12.266   9.731   5.691  0.0580 -0.1344 -0.0141
25238W        W40369   2.974  15.494   0.350 -0.0329  0.0671 -0.0455
25239W        W40370  11.671   8.032   0.076 -0.0620 -0.3000 -0.3097
25240W        W40371   4.399  16.382   4.086 -0.1692  0.0911  0.0383
25241W        W40372  12.769   9.818   5.827 -0.4445 -0.0300 -0.0274
25242W        W40373  13.462   8.748   6.542  0.0478 -0.2595  0.0692
25243W        W40374  16.263  13.163  13.455 -0.1947 -0.0912  0.0671
25244W        W40375   6.709   4.265  12.982  0.2972  0.0977  0.2291
25245W        W40376  11.522   2.017  16.219 -0.2760  0.0406  0.0751
25246W        W40377   2.773  11.740   4.171  0.1630  0.0863  0.1964
25247W        W40378   8.675  11.892  13.279 -0.3008 -0.1485  0.4031
25248W        W40379   6.054   2.437   4.824 -0.1211 -0.0982  0.3461
25249W        W40380  13.986  11.732  15.257  0.2784  0.1910  0.0510
25250W        W40381   8.346  17.290   4.227 -0.0822  0.1887 -0.2702
25251W        W40382   7.497  11.411   3.038  0.1817 -0.0677  0.2563
25252W        W40383  15.394  12.505   5.344  0.1388  0.1869 -0.0004
25253W        W40384  12.663  13.001   4.090  0.1419 -0.1011  0.0559
25254W        W40385  11.600   4.334  12.225 -0.2007  0.3701  0.2792
25255W        W40386   5.070   4.027  11.676  0.2495  0.0015 -0.0309
25256W        W40387  17.930  13.185   2.657 -0.1394  0.1419  0.1256
25257W        W40388   3.975  10.807   5.255 -0.3097 -0.1595  0.0262
25258W        W40389  14.207  16.607   0.570 -0.3730  0.0216 -0.0372
25259W        W40390   4.050  14.023   0.728  0.1682 -0.0172 -0.2350
25260W        W40391  12.485   0.548   3.379  0.3611 -0.0715  0.2199
25261W        W40392  13.920  18.059  11.220 -0.2204 -0.1523 -0.1543
25262W        W40393   6.439  16.960   2.189  0.2716 -0.0875  0.1382
25263W        W40394   6.646   3.989  13.814 -0.0637 -0.1128 -0.3039
25264W        W40395   6.647  14.554  13.280  0.0499 -0.1299  0.0615
25265W        W40396   3.849  16.757   2.206  0.0139 -0.0534  0.0057
25266W        W40397   5.942   6.338   1.917 -0.1989 -0.0376 -0.0017
25267W        W40398   6.666  13.241   1.207 -0.1293  0.3064  0.1769
25268W        W40399  11.861   8.081  16.078 -0.3878  0.0420  0.1485
25269W        W40400   5.269  16.920   4.200 -0.0236 -0.4711 -0.0768
25270W        W40401  17.839  13.050   4.983  0.0459 -0.1414 -0.1316
25271W        W40402  13.885   5.074  14.265  0.0849  0.4192 -0.0512
25272W        W40403   5.033  15.581   4.022  0.1013 -0.1298 -0.1536
25273W        W40404   6.373   2.634   3.722  0.1998  0.2981  0.0484
25274W        W40405   1.063   5.873  14.401  0.0496  0.1782  0.2521
25275W        W40406   4.425   2.020  15.883 -0.0778  0.2060 -0.3357
25276W        W40407  13.391  14.897  10.668  0.0585 -0.1433 -0.2901
25277W        W40408  16.097   4.641   2.355 -0.0783  0.1509  0.2622
25278W        W40409   5.575  14.344  12.226  0.1859 -0.0064  0.3132
25279W        W40410   5.151  16.455  12.901  0.1101 -0.0813  0.2832
25280W        W40411  14.460  10.543  11.278  0.1458 -0.0076 -0.0335
25281W        W40412  12.257   8.945   3.548 -0.0594  0.2625 -0.1184
25282W        W40413   5.845   4.948   1.185 -0.0497 -0.0453 -0.1891
25283W        W40414   4.927   7.205   2.963 -0.0824  0.0376 -0.4010
25284W        W40415  14.949   9.463   1.372 -0.0347  0.1879 -0.2100
25285W        W40416  17.527   4.858   5.796 -0.0995 -0.2920  0.2034
25286W        W40417   3.265  10.898   2.808  0.1147 -0.1596  0.1733
25287W        W40418   5.287   8.183  11.179 -0.0093  0.1182  0.1060
25288W        W40419   9.457   9.337   4.328  0.2187 -0.0508  0.3156
25289W        W40420   9.066  13.797   0.230 -0.1379  0.3236  0.2907
25290W        W40421   1.181  17.326   4.335 -0.2116  0.0467  0.0826
25291W        W40422  13.106   1.103   0.296 -0.0431 -0.2060 -0.2151
25292W        W40423   8.211   2.934  14.456 -0.2215 -0.4645 -0.1662
25293W        W40424  16.715  13.904  13.197  0.0150  0.0981  0.0806
25294W        W40425   4.054   4.484  11.272  0.0627 -0.0152  0.0034
25295W        W40426  13.271   8.790  12.783  0.2590 -0.0513 -0.1636
25296W        W40427   3.589   6.672  10.762 -0.0109 -0.0957  0.2262
25297W        W40428   9.244  13.261  15.903 -0.1925  0.0282 -0.1563
25298W        W40429  10.194   6.937   4.545 -0.0724 -0.1765 -0.2248
25299W        W40430  16.430   2.682  14.683 -0.1168  0.3266 -0.0127
25300W        W40431  14.486   8.068  12.074  0.1838 -0.2074 -0.1566
25301W        W40432  16.658  15.138  15.507  0.2560  0.0991 -0.1883
25302W        W40433   2.378   5.866  11.550 -0.2692  0.0284  0.3083
25303W        W40434  16.682   0.360  14.907 -0.2980  0.2900 -0.2270
25304W        W40435   1.743   8.331   1.137  0.0866  0.3264  0.1496
25305W        W40436  15.688   3.553  15.969 -0.1327 -0.0098 -0.1040
25306W        W40437  10.189  16.558  12.092 -0.0399 -0.1742 -0.1891
25307W        W40438  17.999  12.681  14.557  0.0829  0.0847  0.1990
25308W        W40439  15.829   5.842  13.256 -0.0759 -0.3354  0.1994
25309W        W40440   1.669   4.210   4.697 -0.1918  0.0895 -0.2835
25310W        W40441  10.899   4.722  15.602 -0.2705 -0.2625 -0.0626
25311W        W40442   6.681   9.283   1.599 -0.0784 -0.1147 -0.0093
25312W        W40443   3.061  16.196   3.485 -0.1217  0.2847  0.3260
25313W        W40444   0.589   6.051  12.672  0.0472  0.2267 -0.0482
25314W        W40445   3.894   2.872   2.392 -0.0995 -0.2140  0.0389
25315W        W40446   1.876   1.966  15.636  0.3263  0.1763  0.1872
25316W        W40447  15.201   9.323   0.612  0.0514  0.2018 -0.1573
25317W        W40448   0.771  17.851  14.206  0.1587 -0.0162  0.3440
25318W        W40449   5.126   3.298   0.473  0.0907  0.0404  0.1121
25319W        W40450   8.111   2.485  14.130 -0.2735  0.1144  0.1154
25320W        W40451  10.982  14.898  14.672 -0.0817 -0.1072 -0.0960
25321W        W40452   2.860   7.810  15.698  0.4191 -0.0718  0.2397
25322W        W40453   6.042   5.274  15.938 -0.1824 -0.2905 -0.0283
25323W        W40454   5.376   8.623  15.968 -0.0921 -0.0648  0.0371
25324W        W40455  15.969   7.299   2.467  0.4136  0.0768  0.2094
25325W        W40456  17.339  11.967   2.220 -0.0220  0.2385 -0.0970
25326W        W40457   2.126   8.956   5.308 -0.1280  0.2626 -0.0936
25327W        W40458   8.241  14.378   3.883 -0.1912  0.2534 -0.0733
25328W        W40459  16.062  14.812   4.854 -0.3630  0.3101  0.3220
25329W        W40460   3.085  12.913  11.016  0.2867  0.0659  0.3404
25330W        W40461  13.091  10.410   3.899  0.0134  0.1264  0.1345
25331W        W40462  17.393   9.900   0.243  0.2865 -0.0290  0.0653
25332W        W40463   9.252   6.155  13.927 -0.1615  0.1755 -0.0680
25333W        W40464   2.175   9.799  16.433 -0.1549  0.0336  0.0911
25334W        W40465   3.272  17.771   5.398 -0.1191  0.3330 -0.0228
25335W        W40466  14.130   3.573   4.979 -0.0891  0.2190  0.0118
25336W        W40467   9.645   1.349   4.036  0.0070 -0.0538 -0.1155
25337W        W40468  17.142   6.709  13.702 -0.0993 -0.0280 -0.0317
25338W        W40469   1.139  11.375  16.207  0.0950 -0.2798 -0.1169
25339W        W40470  13.087   6.581  13.798 -0.2400  0.2372  0.1215
25340W        W40471  16.648  15.495  14.252 -0.0091 -0.0334  0.3133
25341W        W40472  10.193   6.185  14.178  0.0003  0.1271 -0.0640
25342W        W40473   6.451   2.103   6.024  0.0675 -0.1689  0.1240
25343W        W40474   3.879   6.087   2.264  0.0171  0.1906  0.1189
25344W        W40475  14.769  13.863   3.650 -0.1223 -0.1791 -0.3001
25345W        W40476  12.903   8.113  15.063  0.1782 -0.0681  0.1908
25346W        W40477  15.097  14.175  16.265  0.3160  0.2036  0.0068
25347W        W40478  15.184   6.943  15.155  0.0624 -0.1268  0.0383
25348W        W40479   7.057   2.939   5.737 -0.3372 -0.0764  0.0164
25349W        W40480  12.123  13.322   2.552  0.2293  0.0496  0.0596
25350W        W40481  10.988   9.455  13.358 -0.3470 -0.4368 -0.1544
25351W        W40482   6.282  13.008  14.966  0.1558  0.0445 -0.3268
25352W        W40483  14.883   6.587   0.538  0.2772 -0.1987 -0.1374
25353W        W40484  12.287  14.414  11.299 -0.1663  0.0003  0.0429
25354W        W40485  13.095   1.829  16.256  0.2716 -0.1411 -0.0245
25355W        W40486   1.025  15.214   1.716 -0.2709 -0.2233  0.0646
25356W        W40487  17.533  16.574  15.727  0.1697 -0.2037 -0.0920
25357W        W40488   0.926  16.463   2.388  0.3852  0.0176 -0.1754
25358W        W40489   2.308   1.704  16.429 -0.4523  0.4491 -0.0896
25359W        W40490   2.179   1.711   2.761 -0.2384 -0.0627  0.2049
25360W        W40491   9.308   4.005   2.858 -0.0449  0.2390 -0.2818
25361W        W40492   8.928  16.448   2.508  0.0428  0.0020 -0.1666
25362W        W40493   1.731   7.764  11.591  0.1289  0.1810  0.0714
25363W        W40494   5.342  17.085   5.221  0.0855  0.2402  0.1623
25364W        W40495   7.674   5.189  14.978 -0.1166  0.0483 -0.0839
25365W        W40496  13.239   3.567   3.300  0.2019  0.2224  0.1949
25366W        W40497   3.387  13.432   0.064  0.1557 -0.0363 -0.1189
25367W        W40498  12.695  10.678   2.098 -0.1410  0.0537 -0.0170
25368W        W40499  11.167   6.053   3.041  0.1046  0.1655  0.0602
25369W        W40500   3.756   0.625   5.314 -0.3543  0.1157 -0.2199
25370W        W40501   8.882  14.304  13.537 -0.2061 -0.0451 -0.0486
25371W        W40502   6.863   5.873   0.102  0.2412 -0.0121 -0.1800
25372W        W40503   7.693  12.041  14.199  0.3176 -0.0248 -0.1310
25373W        W40504  10.727   8.418  14.783 -0.1429 -0.0027  0.0188
25374W        W40505   5.503   9.373  10.552 -0.2150 -0.0385  0.0030
25375W        W40506   4.389   6.130  10.304  0.1102 -0.0634 -0.1207
25376W        W40507  18.036  11.054   2.207 -0.1095 -0.3243 -0.1126
25377W        W40508   3.036  16.760  12.686  0.2206 -0.0057  0.1205
25378W        W40509  12.160   5.880  12.447 -0.3757  0.0578 -0.3587
25379W        W40510   2.298   4.964  15.408  0.0609 -0.1804 -0.2976
25380W        W40511  16.884   2.065   0.177  0.0884  0.0068  0.1810
25381W        W40512  13.041  12.620   0.042 -0.1687 -0.0776 -0.0671
25382W        W40513   0.135  14.806  11.336 -0.1221 -0.3385 -0.1006
25383W        W40514   7.279  10.323   1.316  0.3091 -0.3165  0.1511
25384W        W40515  15.559   3.288   5.622 -0.1290 -0.2116 -0.1549
25385W        W40516  11.554   4.976  14.317  0.0571 -0.0565 -0.1904
25386W        W40517  14.332   3.136   4.123  0.1379  0.2661  0.1877
25387W        W40518   9.827   5.860   5.658  0.1062  0.0839  0.2879
25388W        W40519   4.366   0.850   4.041 -0.2135 -0.1286 -0.2581
25389W        W40520   2.630  14.363  14.507  0.1206 -0.1411 -0.0484
25390W        W40521  12.250  11.940  11.376  0.4059  0.1306 -0.1358
25391W        W40522  12.053  13.338  12.181 -0.2269  0.1629 -0.1775
25392W        W40523   9.833  17.825   0.403  0.1905 -0.1310 -0.0407
25393W        W40524   5.053  16.075   2.432  0.0107 -0.0227 -0.0673
25394W        W40525   3.440   8.366   0.398 -0.2167 -0.0370 -0.1224
25395W        W40526  10.236   9.570  12.155  0.0074 -0.3529  0.0523
25396W        W40527  13.457  14.840  10.150  0.1911 -0.2879  0.1379
25397W        W40528   7.807  13.512   4.377  0.3563 -0.2034  0.0820
25398W        W40529  14.934   2.960  14.199  0.2066  0.2303 -0.2015
25399W        W40530  17.816  17.753  12.472  0.2646  0.1945  0.1442
25400W        W40531   9.656  13.152   3.021 -0.2418 -0.1572 -0.1306
25401W        W40532   9.559  12.054   3.357 -0.2264 -0.0867 -0.6317
25402W        W40533  16.336   4.030   0.057 -0.2146 -0.0748  0.0442
25403W        W40534   0.678  14.453  15.594  0.1046  0.0312 -0.1032
25404W        W40535  11.549  13.053  15.055 -0.2484  0.1992  0.1197
25405W        W40536   6.534   5.297  12.948  0.0741 -0.1787 -0.0747
25406W        W40537  12.914  12.315  12.661 -0.1013  0.2598  0.1195
25407W        W40538   8.325   0.215  14.697 -0.1025  0.1045 -0.0087
25408W        W40539   8.441  15.110  13.121 -0.1175  0.2008  0.0806
25409W        W40540  16.923   5.686   0.139 -0.1439 -0.0564  0.0464
25410W        W40541   2.864   2.426   2.834 -0.1780  0.0324  0.2190
25411W        W40542   2.541  14.643   0.275  0.0142  0.0394 -0.1296
25412W        W40543   5.241   1.378  13.556  0.0799 -0.0008  0.0235
25413W        W40544   8.433   3.161   2.609  0.2034 -0.0081  0.0530
25414W        W40545   8.433  13.479  14.513  0.0329  0.1281 -0.1665
25415W        W40546   1.150  14.671  12.177  0.4308 -0.2825 -0.0719
25416W        W40547   4.967   0.646   5.119 -0.0789 -0.2757  0.1031
25417W        W40548  12.187   6.664  10.110  0.3478  0.1598  0.0476
25418W        W40549   4.274  10.854  15.687  0.1982 -0.0193  0.0919
25419W        W40550   0.875   6.363  14.988 -0.1786  0.1105  0.1405
25420W        W40551  10.801  12.778  11.550  0.0369 -0.0277 -0.2502
25421W        W40552  14.500  11.448  14.637 -0.0233  0.0036 -0.2439
25422W        W40553  16.145  17.420   1.719  0.1570 -0.1032 -0.1003
25423W        W40554   6.467   9.085   1.972  0.1444 -0.0804 -0.2609
25424W        W40555  14.730  10.523  14.892 -0.6415 -0.0624  0.3515
25425W        W40556  13.288  15.260  16.185 -0.1780 -0.0857 -0.0544
25426W        W40557   9.427  13.962   6.441 -0.0133  0.0538 -0.0038
25427W        W40558   0.407   8.426   3.276  0.0675 -0.0795 -0.0621
25428W        W40559   7.283  10.180  11.475 -0.2418 -0.0211 -0.0569
25429W        W40560   2.920   9.806   4.162 -0.1580  0.3122  0.0546
25430W        W40561  16.986   9.251  16.026 -0.1745 -0.1015  0.0794
25431W        W40562   7.661  12.488  11.628  0.2091 -0.1066  0.1272
25432W        W40563  15.704  17.246   1.944 -0.0596 -0.1157 -0.2663
25433W        W40564  10.805   4.906   4.066 -0.4710 -0.2735  0.0465
25434W        W40565  14.251  16.760   5.013 -0.2586 -0.3044  0.1038
25435W        W40566   5.020  13.813   5.788 -0.0423 -0.1167  0.0330
25436W        W40567   2.821   6.992   3.207 -0.1964 -0.0756  0.2602
25437W        W40568  11.148  16.640  15.509  0.1807  0.0609  0.1422
25438W        W40569   2.051  17.223   1.933  0.0426  0.1827  0.3600
25439W        W40570  17.761  11.006   3.295 -0.0348 -0.3689 -0.1071
25440W        W40571   2.465   4.468  16.345  0.0375  0.2736 -0.0400
25441W        W40572   0.351   0.476  14.189 -0.1596 -0.2679  0.2109
25442W        W40573  16.153  14.350   5.205  0.4892  0.1321  0.1833
25443W        W40574   3.074   9.699   1.989  0.1319 -0.1282  0.0524
25444W        W40575   5.997  18.071   0.072  0.2273 -0.0276 -0.1585
25445W        W40576   4.884  11.791  14.752 -0.2404  0.1491 -0.2578
25446W        W40577  17.945  16.365  15.604  0.0055 -0.1222  0.1004
25447W        W40578  12.317   7.175  13.577  0.2675 -0.0445  0.1135
25448W        W40579  13.581  10.278  10.232 -0.1243 -0.0788  0.0578
25449W        W40580   2.685   6.191  14.145 -0.0811  0.0239  0.2679
25450W        W40581  15.348  16.265  12.304 -0.3745 -0.0579 -0.0375
25451W        W40582   1.587  16.745  11.891 -0.0427 -0.0421 -0.3293
25452W        W40583   8.265  13.788  14.116 -0.0796 -0.3132  0.0215
25453W        W40584   4.632   0.592   0.642 -0.1604 -0.0632  0.1108
25454W        W40585   9.343   8.400  12.266 -0.1199 -0.1104  0.1297
25455W        W40586   7.409   0.516   5.167  0.1158 -0.0074  0.0877
25456W        W40587   7.057  16.425   5.786  0.0409 -0.0526  0.0883
25457W        W40588   4.453  15.795   3.220 -0.0346 -0.3770 -0.1128
25458W        W40589  13.659   0.536   2.945 -0.1453 -0.0108  0.0729
25459W        W40590   6.166  13.187  16.218 -0.2155  0.0120  0.2451
25460W        W40591   9.822   8.544   3.743  0.2236  0.1096 -0.2150
25461W        W40592   4.792   8.223  11.051 -0.1071 -0.0076 -0.2562
25462W        W40593   1.608   1.167  15.121  0.0845 -0.0700  0.4330
25463W        W40594   8.573  16.346   2.102 -0.0262 -0.3045 -0.0218
25464W        W40595   4.366  15.688  15.335 -0.2440 -0.1198 -0.1468
25465W        W40596  10.479   1.850   4.294  0.0965  0.1884 -0.3266
25466W        W40597   9.141   9.030  12.015  0.3005  0.0583  0.1260
25467W        W40598   0.064  13.023   1.312  0.1539  0.0428 -0.1413
25468W        W40599   8.447  10.283  14.757  0.0388  0.2575 -0.2440
25469W        W40600  16.567   9.342  15.812  0.0705  0.1882 -0.3330
25470W        W40601   4.884   5.609   0.533  0.0726  0.0133 -0.2366
25471W        W40602   4.947  16.056   5.961  0.0814 -0.0788 -0.0180
25472W        W40603  11.172   7.182   5.012  0.1729 -0.0060 -0.0280
25473W        W40604  14.451   6.656   3.711  0.0821 -0.1647  0.1378
25474W        W40605  10.205  13.095   3.177  0.0394  0.2673 -0.0761
25475W        W40606   3.618  13.230   2.531 -0.2278 -0.0173  0.0967
25476W        W40607   9.557   2.997  14.149  0.1046 -0.4828  0.1364
25477W        W40608   6.117  16.331   5.530  0.1189  0.0633  0.0764
25478W        W40609   4.514   8.047  13.989 -0.2984 -0.0416  0.0837
25479W        W40610  10.977   2.362   1.378  0.1488 -0.2361  0.0521
25480W        W40611   5.156  11.949   2.119  0.2174  0.0551 -0.4008
25481W        W40612   9.086   1.375  12.840 -0.1059  0.1608 -0.4150
25482W        W40613  15.690  14.450   3.737 -0.1125 -0.1128  0.1897
25483W        W40614  11.135  11.463  16.244 -0.2299 -0.1685  0.3778
25484W        W40615  14.737   0.484  14.915  0.1546 -0.1703 -0.1010
25485W        W40616   4.933   4.468   9.834 -0.1253 -0.1827  0.2612
25486W        W40617   5.753  10.103   2.833  0.0268  0.0819 -0.0680
25487W        W40618   2.472   6.233  14.773  0.1883 -0.0204 -0.2201
25488W        W40619   1.683  16.296  15.705  0.0297  0.1557 -0.1811
25489W        W40620   8.534   6.342   2.158  0.0098 -0.1337  0.2319
25490W        W40621  13.815   2.938  12.741  0.0930  0.5142 -0.0605
25491W        W40622  13.881   0.914  14.638 -0.3124 -0.3158 -0.1254
25492W        W40623  13.440   2.352  10.966 -0.2742  0.5604  0.0716
25493W        W40624   0.365   2.455  10.994 -0.0786  0.0027 -0.2221
25494W        W40625   5.195   8.247  15.635  0.0426  0.0107 -0.2191
25495W        W40626  16.786  14.498  14.164  0.1207 -0.1476  0.1645
25496W        W40627  15.102  14.489   1.930 -0.0220  0.0838  0.1349
25497W        W40628   1.454  14.566   5.628 -0.0191  0.0291  0.2747
25498W        W40629  16.332   3.305   0.079  0.0153  0.0104 -0.0350
25499W        W40630  15.367  11.249  15.185  0.1535 -0.0787 -0.1764
25500W        W40631   0.686   6.452   0.762 -0.1375 -0.0031  0.0498
25501W        W40632   8.888   8.757  10.574 -0.2507 -0.1052  0.6008
25502W        W40633  16.470  15.453  11.023 -0.0174  0.2770  0.0614
25503W        W40634  16.250   4.079   2.177  0.0555  0.1290  0.0277
25504W        W40635   9.426  11.489  13.415  0.2739 -0.1655  0.0277
25505W        W40636   7.921  16.117  11.987  0.3215  0.3241  0.1177
25506W        W40637   5.832  13.852   3.558 -0.3263  0.1524  0.0392
25507W        W40638   5.349  14.472  15.353 -0.0013 -0.0310  0.0866
25508W        W40639   5.335  16.960  16.260 -0.3007  0.1281  0.1400
25509W        W40640   5.816  12.906  11.803  0.1359 -0.2993 -0.0017
25510W        W40641  18.056  13.756  13.559  0.0077  0.0798  0.1501
25511W        W40642  16.205  11.953   5.463 -0.3309 -0.3268 -0.0795
25512W        W40643   2.476  15.914  13.063  0.2287  0.0229  0.2346
25513W        W40644  12.545  15.441   3.890  0.1524 -0.2478 -0.3754
25514W        W40645   5.807  16.505   1.724  0.0165 -0.1789 -0.1777
25515W        W40646  16.033  16.927   2.638 -0.0263  0.0796 -0.0864
25516W        W40647  10.171   6.362   4.544  0.0439  0.0622  0.3585
25517W        W40648   0.889   7.760  16.181 -0.1050  0.0293 -0.1071
25518W        W40649   6.767  12.795   5.235 -0.2120 -0.0979  0.0187
25519W        W40650   9.720  11.263  13.738 -0.4100 -0.0760  0.1303
25520W        W40651   4.902   3.243  14.734  0.2990 -0.0261  0.2908
25521W        W40652  10.254  15.426   6.022 -0.1257 -0.1225 -0.2045
25522W        W40653   7.129   5.370   2.204  0.2507  0.1460  0.1233
25523W        W40654  16.789  15.011   5.275  0.0757 -0.0368 -0.1892
25524W        W40655   1.847  15.444   5.536  0.2877 -0.0557 -0.2523
25525W        W40656  10.257   6.479   5.006  0.2839 -0.1793 -0.0893
25526W        W40657   0.499  10.291   2.016 -0.3455  0.0544 -0.1532
25527W        W40658  14.216   1.196  15.945  0.0653  0.0104  0.0943
25528W        W40659   2.493   7.718   4.934  0.0465  0.2285 -0.0638
25529W        W40660   3.395   5.650   1.021 -0.0723 -0.1943  0.0230
25530W        W40661   9.002   3.675  13.602 -0.0406 -0.1705 -0.1849
25531W        W40662   2.183   2.139   3.059 -0.1506 -0.0445 -0.2708
25532W        W40663  12.944   0.506   0.458 -0.0806  0.0214 -0.0636
25533W        W40664   1.691  12.986   4.981 -0.1008  0.1830  0.0753
25534W        W40665  12.707   1.810  14.872  0.0288 -0.2112 -0.2206
25535W        W40666   7.111   7.930   1.165  0.3261  0.2760  0.1039
25536W        W40667   0.428   5.017  12.383 -0.0490  0.4503  0.1911
25537W        W40668  13.062  10.766  14.267 -0.2592  0.1550 -0.1111
25538W        W40669   7.449   7.977  11.442  0.3505 -0.2970  0.1077
25539W        W40670  10.283   7.543  14.787  0.1167  0.0183 -0.2855
25540W        W40671   7.480   3.035  11.181  0.0665  0.0012  0.1963
25541W        W40672  13.187   5.069  11.461 -0.3983  0.2258  0.0893
25542W        W40673  17.465  10.890  11.459  0.0939  0.1028 -0.2844
25543W        W40674  17.973  10.403  16.277  0.0569 -0.2728  0.0915
25544W        W40675  14.370  14.037   5.549  0.0387 -0.0133 -0.0025
25545W        W40676   2.927   3.611  15.649  0.0501  0.1235  0.0093
25546W        W40677   0.154  13.176   6.274  0.0964 -0.1067  0.1262
25547W        W40678   3.024  13.642  12.781 -0.0378  0.1739  0.1747
25548W        W40679  13.605   3.355  11.964 -0.5040 -0.0604 -0.0057
25549W        W40680  10.780   3.877   1.082 -0.1637 -0.0121 -0.2818
25550W        W40681  13.005   6.860  12.993  0.2735  0.1281  0.1295
25551W        W40682   9.227  12.168   3.695 -0.0305  0.3478 -0.0456
25552W        W40683   0.259   5.926  13.076 -0.0861  0.1237 -0.1690
25553W        W40684  15.060   9.627   1.976 -0.1932 -0.0422 -0.2038
25554W        W40685   7.726   5.672  11.553  0.0362 -0.0479  0.2947
25555W        W40686   8.360   1.981  12.868  0.0230  0.2586 -0.3329
25556W        W40687  10.558  12.387   4.748 -0.1871  0.0537  0.0827
25557W        W40688  16.403   2.223  11.203 -0.0446  0.0253  0.1372
25558W        W40689   7.248   9.697  11.653  0.0406 -0.1528  0.4120
25559W        W40690  13.383   3.459  14.828  0.1801 -0.0651  0.1968
25560W        W40691  17.613  13.630  12.117  0.1001  0.1963 -0.3955
25561W        W40692  11.671   0.341  13.276  0.2376 -0.0165  0.1542
25562W        W40693   6.730   4.666   4.881 -0.3232  0.0365  0.0455
25563W        W40694   9.636   4.380   1.919  0.1111  0.0596 -0.1933
25564W        W40695   9.171   7.288   3.694 -0.0302  0.2998  0.0605
25565W        W40696  15.437   1.436  14.076 -0.2222  0.1391  0.2352
25566W        W40697   4.911   7.226   5.172 -0.0263  0.0586 -0.0658
25567W        W40698  16.015  15.281   3.523  0.0455  0.0791  0.0335
25568W        W40699  12.828   3.700  12.186  0.0241  0.2386 -0.2549
25569W        W40700  14.990   2.637   5.689 -0.1505  0.1294  0.0281
25570W        W40701   3.618  18.004  13.796 -0.1296 -0.1378  0.3054
25571W        W40702  16.484   8.266   6.367 -0.0032 -0.0912 -0.2368
25572W        W40703  12.655  18.104  15.468  0.1023  0.0366  0.3489
25573W        W40704   8.231   0.195   4.507  0.1532  0.3787 -0.3077
25574W        W40705  12.203   2.375  12.451  0.1932 -0.4598 -0.0395
25575W        W40706  12.132   9.012   3.013 -0.0912 -0.4376 -0.1571
25576W        W40707  13.644   1.562  14.555 -0.1811  0.3944 -0.0069
25577W        W40708   9.395  17.613   0.349  0.0753 -0.1595  0.1228
25578W        W40709  13.559   5.413   4.654 -0.1088  0.0841  0.1076
25579W        W40710   1.811   1.256   3.518  0.1446 -0.1500 -0.1011
25580W        W40711  15.609   0.435   3.661 -0.3391 -0.2619 -0.0615
25581W        W40712   2.719   2.260  14.478  0.0723  0.3112 -0.2439
25582W        W40713   6.511   1.227  11.788  0.1871 -0.3844  0.1651
25583W        W40714   9.568  17.139  11.780  0.1398 -0.0124  0.2460
25584W        W40715   2.466  15.374   6.273  0.0494 -0.5095 -0.1707
25585W        W40716   5.133  15.944   4.753 -0.0211 -0.2165 -0.2136
25586W        W40717   6.053   5.014   2.186 -0.2058 -0.0189 -0.0281
25587W        W40718   7.534  13.960   2.720 -0.0257 -0.0275 -0.0420
25588W        W40719   8.622  10.206  12.821 -0.0907 -0.0783  0.0436
25589W        W40720   7.642   9.681   2.918 -0.0822  0.1889 -0.1443
25590W        W40721  14.632  12.906  11.686  0.2883  0.1267  0.0444
25591W        W40722   1.279   7.074  12.277 -0.0499  0.1156 -0.2347
25592W        W40723   3.416   7.133  14.281  0.1513 -0.0525  0.2956
25593W        W40724   1.173   6.469  11.908 -0.0167  0.2093  0.0784
25594W        W40725  10.386   9.655   3.179  0.0084  0.0913 -0.2411
25595W        W40726  14.967  16.615  11.858  0.1113  0.1225  0.0121
25596W        W40727  12.584   7.642  14.446 -0.1110  0.0506  0.3137
25597W        W40728   5.981   6.766  16.114 -0.2751  0.2193 -0.1052
25598W        W40729   1.061   2.496  15.531  0.1093 -0.1720  0.3593
25599W        W40730  16.831  17.917   1.647  0.0371 -0.0847 -0.1328
25600W        W40731   6.868   5.786  13.917  0.2706 -0.1812 -0.0150
25601W        W40732  13.395   1.025   4.715 -0.0649  0.0599  0.0458
25602W        W40733  13.980  13.273   0.987  0.0587  0.4189  0.0596
25603W        W40734  17.491   9.962  11.907 -0.1285  0.0484  0.0106
25604W        W40735   9.630   8.501  11.416 -0.1964 -0.0670 -0.1471
25605W        W40736  14.467   4.146   5.739 -0.3275  0.3243 -0.2473
25606W        W40737  13.576   3.547  15.738 -0.3130 -0.0647 -0.0806
25607W        W40738  16.732   4.199  12.448  0.1623 -0.1608 -0.2530
25608W        W40739   0.157   3.693  12.356 -0.1255 -0.2434 -0.0604
25609W        W40740   8.484  15.121  14.020 -0.0625  0.1047  0.3699
25610W        W40741  16.573   5.989   5.214  0.0131 -0.3389 -0.2109
25611W        W40742   3.578  12.983  11.247 -0.1987 -0.5753  0.0373
25612W        W40743   1.797  15.626  11.349  0.2188 -0.2472 -0.2420
25613W        W40744  15.235   6.260  12.703  0.0850  0.1839 -0.0337
25614W        W40745   8.312   3.180  12.290  0.0191 -0.0753 -0.3295
25615W        W40746   9.331   4.443  13.898 -0.1633  0.1553 -0.0309
25616W        W40747  13.646   7.397   2.877  0.0358  0.2327  0.2298
25617W        W40748  12.664   8.875  14.016  0.0008 -0.3133  0.1717
25618W        W40749   7.775  12.796  11.198  0.2092 -0.1064  0.1522
25619W        W40750   9.539   0.421  15.902  0.0556  0.1248  0.0406
25620W        W40751   9.401   4.397   4.264  0.1744 -0.0709  0.2958
25621W        W40752   1.357   2.243   4.043  0.0609 -0.0599 -0.1321
25622W        W40753  17.832  17.505  12.899  0.1046 -0.1535  0.0342
25623W        W40754   3.762   1.589   2.780  0.0317 -0.0774  0.2226
25624W        W40755  13.692   7.680  11.516 -0.1217  0.1307 -0.2232
25625W        W40756  15.615   3.532   4.268  0.0814  0.2270 -0.1557
25626W        W40757   4.806  13.995  15.985  0.0952  0.1541 -0.2145
25627W        W40758  15.353  16.652   5.443  0.1761  0.0479  0.0835
25628W        W40759  14.880   7.944  12.968  0.0301 -0.2015  0.0810
25629W        W40760   0.615   8.324   0.480 -0.1571  0.1058  0.1907
25630W        W40761   3.028   6.606  14.934 -0.0881 -0.1135  0.1182
25631W        W40762   5.501   4.575   1.391  0.0606 -0.3194  0.0029
25632W        W40763  16.874  13.412  15.415  0.0260  0.1595 -0.3114
25633W        W40764   3.726   4.721  13.790 -0.0872  0.2739  0.2826
25634W        W40765   3.379  15.310  12.092  0.0934  0.0908  0.3370
25635W        W40766  14.130   7.949   1.169 -0.2975  0.0972 -0.0048
25636W        W40767   3.474  17.191   4.951 -0.1726  0.2334 -0.0151
25637W        W40768  15.417   0.713   2.825  0.1031  0.4424  0.1339
25638W        W40769  17.169   8.078   3.889 -0.0225  0.0618 -0.0065
25639W        W40770   3.845  10.077   0.384 -0.0301 -0.0206  0.0343
25640W        W40771   6.029   0.603   0.889  0.0713 -0.3247 -0.0997
25641W        W40772  13.987  13.880   4.110 -0.0913  0.0222 -0.0414
25642W        W40773  16.805  14.460  12.125  0.0722  0.3683  0.1364
25643W        W40774   9.574   4.281  14.329 -0.0422  0.1695  0.3051
25644W        W40775   6.861   0.463   4.849 -0.2499 -0.0016 -0.1851
25645W        W40776  11.309   0.692  16.327 -0.3211  0.0004  0.2289
25646W        W40777   7.873  14.315  12.947  0.0479  0.0702 -0.1271
25647W        W40778   2.216   8.787   0.049  0.1935 -0.0305  0.1484
25648W        W40779   3.918  13.240  13.287  0.0576 -0.0665 -0.2107
25649W        W40780  18.044   7.437  14.344 -0.1594 -0.3527 -0.0039
25650W        W40781  18.042   2.484  11.434  0.1190 -0.0717  0.2052
25651W        W40782  14.319   4.853   4.815 -0.0272  0.1962 -0.1252
25652W        W40783   0.727  15.709  13.001 -0.2162 -0.1388  0.0320
25653W        W40784   1.738   3.635  15.075 -0.3169 -0.0058  0.1333
25654W        W40785  15.235  16.567  11.414 -0.0376  0.3841  0.0853
25655W        W40786  17.039  10.012  16.187 -0.0218  0.1907  0.2284
25656W        W40787   7.128  12.713   1.757 -0.0806  0.1104 -0.2586
25657W        W40788  15.957   8.106   0.785 -0.1208 -0.0358 -0.1973
25658W        W40789   8.690   7.558  15.899 -0.1032  0.0811 -0.1068
25659W        W40790   6.353  12.366  15.721 -0.1077  0.1631 -0.0000
25660W        W40791   4.005  14.629   4.703 -0.0950  0.0664 -0.0767
25661W        W40792   5.668  10.098  10.227  0.1277 -0.2035  0.0219
25662W        W40793  10.274  10.439  15.836  0.0928 -0.1866 -0.0211
25663W        W40794  10.014   1.060   4.237 -0.2084  0.2383  0.4860
25664W        W40795   1.827   0.839   9.859 -0.1790  0.1430 -0.1141
25665W        W40796  10.838   0.951   1.486  0.2328 -0.0035 -0.0669
25666W        W40797  10.602   8.865   4.236 -0.0814 -0.2224 -0.1756
25667W        W40798  15.022  15.354   1.549  0.1865  0.2732 -0.1527
25668W        W40799   5.780   8.676   5.462  0.1953 -0.1597 -0.1068
25669W        W40800   6.759  10.819   5.832  0.1797  0.0747 -0.1804
25670W        W40801  16.650   6.474  14.446  0.1067 -0.0732  0.0398
25671W        W40802   7.975   4.262   1.816 -0.0403  0.1306  0.0015
25672W        W40803  16.052   1.199  12.041  0.0550 -0.3553  0.0460
25673W        W40804   1.038  17.927   4.870 -0.0817 -0.0821  0.0278
25674W        W40805   6.805   3.474  13.766 -0.3907 -0.1797 -0.1118
25675W        W40806   6.273   6.977   1.482  0.3865 -0.3367  0.3769
25676W        W40807  12.723   2.665  15.181 -0.2651  0.1896 -0.0128
25677W        W40808   2.536  10.563  13.876 -0.0469  0.0882 -0.3307
25678W        W40809  16.078   5.195   0.090 -0.1510 -0.0915  0.0145
25679W        W40810   0.823  14.146  15.975  0.1266 -0.0714  0.0896
25680W        W40811  11.032   4.924  11.819  0.0026  0.4807  0.0029
25681W        W40812  15.717   6.460  14.520  0.3535 -0.1628  0.1915
25682W        W40813  14.690   1.101  11.280 -0.1435 -0.0885  0.0554
25683W        W40814  13.673   3.781   3.185  0.1791  0.1274 -0.1923
25684W        W40815  16.953   1.508   0.884 -0.1379  0.4906 -0.2793
25685W        W40816   8.158   6.134   2.496  0.0897 -0.0188  0.1150
25686W        W40817   8.546  11.692   4.078  0.1303 -0.2183  0.0256
25687W        W40818  12.762  13.552   4.164  0.0649  0.0368 -0.1870
25688W        W40819   6.364   5.490  16.363  0.0396  0.0537  0.1198
25689W        W40820   8.746   0.438   2.828  0.2468 -0.0862 -0.1958
25690W        W40821  12.187   9.134  14.782  0.0519  0.1559 -0.3418
25691W        W40822   7.151   4.107  13.754 -0.0696  0.1350  0.0840
25692W        W40823   7.897   5.423  10.189 -0.5220 -0.1741  0.0215
25693W        W40824   6.440  17.803   5.257  0.3921  0.0952 -0.0300
25694W        W40825   1.336   0.935  15.995 -0.0609 -0.0308 -0.1810
25695W        W40826  15.489  10.195   3.564  0.0164  0.2646  0.0968
25696W        W40827  10.254  10.498   2.123 -0.0440  0.1877  0.0149
25697W        W40828   9.759  12.866   1.861  0.0454  0.7069 -0.2547
25698W        W40829   7.637   6.263  11.611  0.3375  0.2989  0.3072
25699W        W40830   6.119   3.855  14.349 -0.1075 -0.0583 -0.2827
25700W        W40831  15.044  12.800   0.920 -0.1392 -0.0651 -0.1972
25701W        W40832  10.869  15.514  12.368 -0.2622  0.0348  0.2558
25702W        W40833   5.777   4.961   3.279  0.0301  0.2072  0.0061
25703W        W40834   7.729   4.969   4.205 -0.1035  0.1460 -0.1570
25704W        W40835   9.615  14.365  16.402  0.1304  0.3146  0.0117
25705W        W40836   9.695   4.913  12.318  0.0957 -0.2458 -0.2702
25706W        W40837   0.496  15.093   3.150 -0.3860  0.0118 -0.3129
25707W        W40838  11.142   6.888   2.517 -0.0112  0.3342  0.4777
25708W        W40839  17.844  13.615   5.081  0.0103  0.1696 -0.1640
25709W        W40840  17.784  13.371  14.957 -0.2086  0.0033 -0.3128
25710W        W40841   8.890   2.891   0.011  0.0587  0.0991 -0.1975
25711W        W40842   6.011   1.988   5.711  0.0374  0.0373 -0.2740
25712W        W40843   8.462  15.053  10.967  0.2378 -0.0209 -0.0174
25713W        W40844   2.820   3.987  15.996  0.0533  0.0466 -0.0430
25714W        W40845  11.202  13.841  15.969 -0.0905  0.0006  0.1977
25715W        W40846   2.078   8.794   4.853  0.2848  0.0924 -0.0267
25716W        W40847  15.830   2.377  13.320 -0.1061 -0.1544 -0.0237
25717W        W40848   7.276   6.628  11.384 -0.0309  0.0793 -0.0791
25718W        W40849  14.740  14.337   0.510 -0.0860 -0.3377  0.0317
25719W        W40850   4.281   7.904  11.077  0.3242 -0.0856 -0.2045
25720W        W40851  15.389  12.457   1.094 -0.1119 -0.2500 -0.0862
25721W        W40852  13.974   2.820  14.129  0.0492  0.0108  0.1096
25722W        W40853  14.667   8.139   2.760  0.2142  0.0836  0.2678
25723W        W40854  17.598  17.251  14.959 -0.0119  0.1184 -0.3226
25724W        W40855   0.038  12.164   4.534 -0.3985  0.2139 -0.3115
25725W        W40856   3.107  12.144   3.528  0.1573  0.0512 -0.3855
25726W        W40857  12.490   9.446  12.292  0.2110 -0.2125  0.2567
25727W        W40858   5.054   6.838   9.823  0.4876 -0.2147 -0.2827
25728W        W40859  16.174  11.281   1.485  0.1959 -0.0733  0.2371
25729W        W40860  11.829  14.010   0.226 -0.4595  0.0167 -0.2303
25730W        W40861   7.117   0.844   3.494  0.1904  0.4600 -0.2187
25731W        W40862  14.253  16.550   3.139  0.2109  0.0156 -0.0715
25732W        W40863   3.049  14.574  14.436 -0.2128  0.1280 -0.2232
25733W        W40864   3.893   4.792   5.850  0.2263  0.0703 -0.0047
25734W        W40865   0.087  17.169  12.991 -0.0025 -0.1500 -0.2055
25735W        W40866   1.321   3.530   5.883 -0.1496  0.1354 -0.1411
25736W        W40867  11.476   5.901   4.986  0.0332  0.1551 -0.0556
25737W        W40868  17.450  10.764  12.547  0.0198  0.2892 -0.0967
25738W        W40869   2.829   0.108  13.276  0.1311  0.0747  0.0896
25739W        W40870   0.417   9.911  11.980 -0.0227 -0.0103 -0.3287
25740W        W40871   9.784  17.016  15.763 -0.1599 -0.2183  0.0104
25741W        W40872   5.025  13.307  12.087  0.2621  0.1186  0.2396
25742W        W40873  12.839   9.757   1.050 -0.0711 -0.0251 -0.1848
25743W        W40874   2.470   1.626   3.178  0.0333  0.0562  0.0068
25744W        W40875   0.760   0.702  14.049 -0.1666  0.2001 -0.0733
25745W        W40876  17.081   4.649  11.101 -0.1127 -0.0596 -0.0775
25746W        W40877  15.935   6.239  12.745 -0.1904  0.2176  0.2194
25747W        W40878  11.173   4.253  13.915 -0.0788 -0.4030 -0.2378
25748W        W40879  12.494  10.179   1.729 -0.1475 -0.3131 -0.0656
25749W        W40880  15.252  17.064  11.627 -0.0962 -0.0253  0.0050
25750W        W40881  14.720  11.981   0.414 -0.1973  0.0549  0.0835
25751W        W40882  15.956   2.915   0.105 -0.3331  0.0787 -0.0024
25752W        W40883  12.224   3.154   5.044  0.1207 -0.2027 -0.0566
25753W        W40884   3.284  17.582  15.313  0.1398 -0.1306  0.0546
25754W        W40885  16.428  10.650  16.376 -0.2436  0.0681 -0.0457
25755W        W40886  16.005  14.473   1.046 -0.2842 -0.0110 -0.0988
25756W        W40887  15.605   9.671   0.562  0.1863 -0.4757 -0.1600
25757W        W40888  10.385  17.489  13.191  0.1693  0.0093 -0.1529
25758W        W40889   2.764   2.001   4.636 -0.1878 -0.2527  0.0843
25759W        W40890  13.208   9.438   1.729  0.0166  0.1299  0.0674
25760W        W40891  17.971   7.705   3.525  0.2879  0.0825 -0.1524
25761W        W40892   7.787  14.141   3.621 -0.0636 -0.2056  0.0349
25762W        W40893  10.632  17.738  14.584 -0.0874  0.0254 -0.0443
25763W        W40894  15.170  15.817   1.792 -0.0936  0.0475 -0.1477
25764W        W40895   7.249   2.724   3.176  0.2144 -0.1865  0.1792
25765W        W40896   8.281  10.427  13.330 -0.1519 -0.0907  0.0078
25766W        W40897  13.894   7.531   4.665  0.0430  0.1065  0.0802
25767W        W40898  10.118   2.527   4.442  0.1699 -0.0136 -0.1384
25768W        W40899   7.512   4.200  12.087  0.2200  0.0592  0.0008
25769W        W40900   8.660   3.741  14.773 -0.2189  0.0018  0.0474
25770W        W40901  10.119   1.555  11.529 -0.3414  0.1492 -0.1354
25771W        W40902  17.706  15.833  15.778  0.1264 -0.0874 -0.3056
25772W        W40903   1.386  16.596  15.389  0.2174 -0.1932  0.0405
25773W        W40904  13.465  10.892  11.324 -0.1777 -0.0656 -0.2407
25774W        W40905  17.562  13.781   1.035 -0.0478 -0.2311  0.1942
25775W        W40906  14.620   6.853  11.914  0.1828  0.0176  0.2236
25776W        W40907   2.395   2.172  12.586 -0.0787 -0.0477  0.0197
25777W        W40908  11.616  13.121  10.534 -0.1773 -0.3101  0.0769
25778W        W40909   2.702  17.093   2.696 -0.1571 -0.0772  0.1403
25779W        W40910   8.371   1.816   4.399 -0.3530 -0.0193 -0.0880
25780W        W40911   1.405   1.167   0.970 -0.0076 -0.0638  0.3046
25781W        W40912  17.355   5.011   0.748 -0.1506  0.2670  0.3112
25782W        W40913  14.597  12.806  13.164 -0.0347 -0.0958  0.2991
25783W        W40914  11.050  18.048  14.768 -0.0289 -0.1698 -0.3017
25784W        W40915   1.218   9.987   0.236 -0.0828 -0.0089 -0.2283
25785W        W40916   8.042  12.671  12.735 -0.3025  0.0811  0.0370
25786W        W40917  17.182   9.984  14.420 -0.1410  0.2987  0.0805
25787W        W40918  17.659   9.658   0.551 -0.4415 -0.1548 -0.0674
25788W        W40919   3.040  13.080   4.410 -0.0340 -0.0665 -0.0827
25789W        W40920   9.599   4.117   2.334  0.0640 -0.1784 -0.0152
25790W        W40921  14.052  10.959   4.526  0.1277  0.3011 -0.0175
25791W        W40922  15.740   3.133   0.521 -0.1834 -0.2797  0.0391
25792W        W40923   9.983  17.952   1.533  0.0038 -0.0108 -0.3313
25793W        W40924  10.774   8.515  15.734 -0.2537  0.0070  0.2798
25794W        W40925   9.752  17.311   1.730  0.0289  0.0072  0.1644
25795W        W40926   8.941   6.146   1.835 -0.2623  0.0686  0.0736
25796W        W40927  15.331  10.307   2.961  0.1457  0.1377  0.0365
25797W        W40928  15.243   5.179  16.226  0.2889 -0.3047  0.1055
25798W        W40929   2.873   3.543  13.320  0.0496 -0.0144 -0.0694
25799W        W40930   6.413  12.966   4.800 -0.0906  0.1033  0.1749
25800W        W40931  11.881   1.624   4.166  0.0457  0.0013 -0.0134
25801W        W40932   6.840   1.069  11.063 -0.0987  0.2835  0.1075
25802W        W40933   7.072  14.433   1.115  0.0730 -0.0743  0.0182
25803W        W40934   3.009  14.300   0.522 -0.0088 -0.0003 -0.0786
25804W        W40935  14.008   1.504   4.068  0.0579  0.1043  0.0625
25805W        W40936   4.581   8.921  11.053 -0.2550 -0.3070 -0.0296
25806W        W40937  17.074  10.006   2.392 -0.3023  0.1105  0.1608
25807W        W40938  10.865   9.934  10.978  0.2984 -0.0751  0.0573
25808W        W40939   9.907   1.177  11.747  0.2141 -0.0022 -0.1095
25809W        W40940   9.337   8.011  16.195 -0.0819 -0.1327 -0.1451
25810W        W40941  11.093  16.811  11.122  0.0283  0.1535  0.1338
25811W        W40942   1.540   6.039   4.540 -0.0882  0.2738 -0.1781
25812W        W40943   2.535   1.344   4.092  0.0574 -0.1148 -0.3721
25813W        W40944  16.021   8.317   3.185  0.3106 -0.3692  0.2665
25814W        W40945  16.576   0.928   0.537  0.0411  0.1109  0.2428
25815W        W40946   1.735  14.074  14.708  0.2106 -0.2460  0.0117
25816W        W40947   8.061   8.764  11.590 -0.0690  0.0045  0.1209
25817W        W40948  17.665   8.013  16.220  0.0214  0.0077  0.2791
25818W        W40949   1.699   3.426  14.353  0.2463  0.3015  0.0050
25819W        W40950   8.647   7.172   5.120 -0.0044  0.3859 -0.2124
25820W        W40951   5.908   5.481   5.343 -0.1516  0.0316  0.3858
25821W        W40952  16.393   3.131  15.049  0.3543  0.0587 -0.3136
25822W        W40953   5.888  15.149   0.400  0.0368 -0.1627 -0.1304
25823W        W40954   0.248   2.458   3.111  0.0162  0.1961 -0.2315
25824W        W40955  12.116  14.778  13.487  0.0313  0.3072  0.0568
25825W        W40956   2.452   7.527   1.175  0.0239 -0.0597  0.0112
25826W        W40957  10.459   5.600   4.944  0.1834  0.2751 -0.0341
25827W        W40958  18.029  14.557   4.659 -0.2364  0.0642  0.2187
25828W        W40959  10.792  10.576  13.370 -0.0270  0.1608 -0.0316
25829W        W40960   0.575   6.899   4.605  0.0475 -0.0386  0.0145
25830W        W40961   4.624  12.510  14.081 -0.3785  0.4871  0.0503
25831W        W40962  13.914   8.923   6.014 -0.3518  0.4317 -0.1099
25832W        W40963   2.388   1.192  12.129 -0.0248  0.0891  0.2483
25833W        W40964   6.245  15.476  15.044 -0.3803  0.2705 -0.0605
25834W        W40965   1.555  15.527  13.888 -0.1392 -0.2093 -0.1641
25835W        W40966  15.325   9.360   5.644 -0.3309  0.1030 -0.0750
25836W        W40967   6.218   2.997  11.605 -0.0180  0.0886  0.1617
25837W        W40968   6.940  15.898  12.776  0.1987  0.1114  0.0530
25838W        W40969  17.973   8.645   1.096 -0.1010  0.1032 -0.0793
25839W        W40970   9.430  11.465   1.169  0.1595  0.1109  0.1552
25840W        W40971  12.954   7.337   2.307 -0.2205  0.3832  0.1070
25841W        W40972   4.909  15.109   4.677 -0.1245  0.0456  0.2054
25842W        W40973  10.298   8.636   1.759  0.1462 -0.1474 -0.0367
25843W        W40974   2.532  17.473  10.886 -0.1936  0.1430 -0.0450
25844W        W40975   4.690  11.193  15.612  0.1066 -0.3306  0.2667
25845W        W40976   9.075   5.008   1.419 -0.0076  0.4422 -0.0892
25846W        W40977   4.509  13.957   0.564  0.0159  0.0710 -0.0398
25847W        W40978   6.429   2.015  16.081 -0.1053 -0.0135  0.0286
25848W        W40979  10.855   4.882  16.081  0.4010  0.3817  0.2949
25849W        W40980   2.628  13.406   4.346 -0.0515 -0.0306 -0.0855
25850W        W40981  15.582   1.212   3.252  0.2106 -0.3936 -0.0663
25851W        W40982  17.845   1.070  13.142 -0.2421 -0.0298  0.2886
25852W        W40983   1.555   5.172  14.151 -0.0981  0.0508 -0.0354
25853W        W40984   6.595   5.322  15.440 -0.1724  0.1731  0.0143
25854W        W40985   5.134   9.233   5.889  0.0683 -0.1095  0.3179
25855W        W40986  15.091   4.930  15.839 -0.2386  0.0621 -0.1351
25856W        W40987   7.741   4.254  14.070 -0.3333 -0.0363 -0.0776
25857W        W40988   9.543   2.144   3.626  0.4212  0.1385  0.3914
25858W        W40989   5.525   3.893  11.456 -0.2892 -0.0262  0.1031
25859W        W40990   1.374  13.882  15.787  0.2482 -0.0215  0.0571
25860W        W40991   8.159  15.461   3.357 -0.0245  0.0407 -0.1819
25861W        W40992   6.423   6.412  15.095  0.2278  0.1948  0.1398
25862W        W40993   3.384   8.637  12.592  0.0537  0.1570 -0.0214
25863W        W40994   8.249  14.232   3.422 -0.0563  0.1443  0.0084
25864W        W40995  16.026  16.278  14.142  0.1082 -0.4065  0.2354
25865W        W40996  12.270   2.673   4.582  0.1720 -0.2513 -0.2477
25866W        W40997  14.722   5.791  14.483  0.0709 -0.1927 -0.0592
25867W        W40998  12.506   2.409   4.924  0.1028  0.2406 -0.1577
25868W        W40999  15.894  15.296  11.979 -0.1922 -0.0336 -0.3683
25869W        W41000   8.231   6.639   1.872  0.1539 -0.3041 -0.1517
25870W        W41001  12.449  17.637  10.999 -0.0428  0.0501  0.3816
25871W        W41002   3.828   4.520   5.078 -0.0267  0.0287 -0.1291
25872W        W41003   2.248   6.474  13.856 -0.0726  0.0169  0.1513
25873W        W41004  14.502  12.719   4.379 -0.1826  0.1691 -0.0190
25874W        W41005   8.737  15.666   2.447  0.0541  0.0617  0.3020
25875W        W41006  12.633   8.926   3.879 -0.3499 -0.0934  0.2345
25876W        W41007  10.095   2.688  10.913 -0.0754  0.2945 -0.0208
25877W        W41008   2.349  10.856   0.903 -0.3517  0.3552 -0.1129
25878W        W41009   7.685   8.988   0.042 -0.2451 -0.2093  0.3917
25879W        W41010  15.554   7.421   5.577 -0.3180  0.0671  0.1032
25880W        W41011   4.182   5.837   0.054 -0.1056 -0.3024 -0.1445
25881W        W41012   5.374  10.773  11.082  0.2235 -0.0652  0.2000
25882W        W41013   8.045  16.415   2.736 -0.2542 -0.1931  0.1239
25883W        W41014  15.342   6.162   5.345  0.2109 -0.1032  0.2568
25884W        W41015  11.891   0.702  13.595 -0.0175  0.1056  0.1188
25885W        W41016   8.173  12.082  14.172  0.1871  0.1181  0.0423
25886W        W41017  17.633   6.577  12.311  0.1952  0.0261  0.1343
25887W        W41018   2.256   9.906   1.761 -0.1725 -0.1683  0.0487
25888W        W41019   1.703  16.463   5.553 -0.1823 -0.0757  0.0100
25889W        W41020  15.775   7.229  14.867  0.0389 -0.1891  0.0167
25890W        W41021  14.616  14.653   1.929 -0.1083 -0.4158 -0.1053
25891W        W41022   0.235  16.913   0.110 -0.1176 -0.2243 -0.0896
25892W        W41023   3.950  17.841  11.468  0.3138  0.0109 -0.0789
25893W        W41024  13.342  15.597  15.758 -0.0302 -0.2973 -0.0162
25894W        W41025   3.926   3.510  15.228  0.1598 -0.0800  0.2008
25895W        W41026  13.808  12.497   2.203  0.2107  0.0201 -0.0249
25896W        W41027  13.213   8.739  11.289  0.1661 -0.1173 -0.1794
25897W        W41028   1.809   6.280   5.594  0.0079  0.0627  0.1004
25898W        W41029   1.993   6.495   4.793 -0.2068  0.1588  0.2254
25899W        W41030  15.935   4.358  12.203  0.3302  0.0940 -0.1042
25900W        W41031  17.644   7.187  16.126 -0.0839  0.1642 -0.1114
25901W        W41032  13.111   1.072  13.731 -0.0423  0.4625  0.1272
25902W        W41033  16.706  13.445  12.233  0.0102 -0.0838  0.1721
25903W        W41034   9.319  17.073  11.238  0.3329 -0.1094 -0.2699
25904W        W41035   8.204  16.767  13.401 -0.1625  0.0351 -0.0819
25905W        W41036  16.541   3.698   6.698  0.1187 -0.0264  0.0804
25906W        W41037   8.135   7.693  12.771  0.0709 -0.1280  0.1011
25907W        W41038  12.916  17.896   1.646 -0.1288  0.0295  0.2663
25908W        W41039   4.435   9.568  13.614 -0.0662 -0.0385  0.1166
25909W        W41040   0.416   2.866  15.062 -0.1429  0.2788  0.1703
25910W        W41041   5.782  10.386  15.052 -0.3745  0.1297  0.3480
25911W        W41042  15.347   6.241  10.782 -0.1812  0.1231  0.1675
25912W        W41043   9.396   7.358   2.143  0.1318  0.2044  0.0043
25913W        W41044  17.631   8.887   5.947 -0.2475 -0.0592 -0.3202
25914W        W41045   9.488   5.010  11.044  0.1231 -0.5014  0.2453
25915W        W41046  13.060   3.387   2.829  0.2648 -0.3899 -0.3992
25916W        W41047   1.788  11.074   3.754  0.0287 -0.2869 -0.0133
25917W        W41048  14.833   7.986  13.519 -0.1206  0.0377 -0.4053
25918W        W41049  15.342   6.700  16.177  0.2199  0.3546 -0.3641
25919W        W41050   1.047   7.726   4.587  0.0294  0.1392  0.0635
25920W        W41051  11.400   5.874  14.193  0.5547  0.2684  0.0489
25921W        W41052  17.010   9.498  12.715 -0.1195  0.1264 -0.3412
25922W        W41053  13.397  13.916   2.839 -0.4902 -0.0539 -0.0496
25923W        W41054   2.016  17.041  12.839 -0.0271  0.1880 -0.1356
25924W        W41055   1.771  12.045  14.573 -0.0119  0.4369  0.1266
25925W        W41056   9.588   8.859  12.256 -0.0752 -0.2413 -0.1677
25926W        W41057  16.022   4.210  15.170 -0.1906 -0.0775 -0.0766
25927W        W41058  16.166  10.433   6.062 -0.0849 -0.1041 -0.2437
25928W        W41059  17.487   5.306   3.790 -0.2725 -0.1635  0.0183
25929W        W41060   9.078   0.073   2.583  0.1050  0.3259 -0.0717
25930W        W41061  11.787   9.835   3.675 -0.1228  0.2526  0.1758
25931W        W41062  13.498   9.738  10.616  0.1612  0.0590  0.1577
25932W        W41063   0.938  12.296   0.696 -0.5757 -0.0153  0.1225
25933W        W41064   5.000   5.238  13.784  0.0228 -0.0068 -0.0130
25934W        W41065   5.412   6.541  15.474 -0.1284 -0.0994  0.0333
25935W        W41066  14.020   2.874  16.358 -0.2044  0.0423  0.0256
25936W        W41067  11.702   8.786  13.230  0.1008 -0.2134  0.0467
25937W        W41068  13.725  15.851   2.208  0.0247  0.1334  0.0812
25938W        W41069   2.639   4.826   5.959  0.2264 -0.2435  0.0176
25939W        W41070  16.361  13.518  11.770 -0.0455  0.1090 -0.0556
25940W        W41071  17.096   8.872  11.832  0.3332  0.0508 -0.2374
25941W        W41072  10.071  13.734   3.997  0.0694 -0.0850  0.0866
25942W        W41073   8.068  14.637  16.132  0.0783  0.4075  0.0882
25943W        W41074  17.129   3.090  12.015 -0.1253 -0.4881 -0.2799
25944W        W41075  12.105  11.651   2.250  0.0591 -0.0689 -0.0460
25945W        W41076   3.459   3.821   2.238  0.2665  0.1590 -0.1148
25946W        W41077  12.419   1.257  15.757  0.0867 -0.2192  0.0250
25947W        W41078  16.663  10.658   6.003 -0.2925 -0.0346  0.0447
25948W        W41079  15.216  11.207   2.526 -0.0597 -0.0058 -0.1999
25949W        W41080  15.295  12.766  14.954 -0.0916  0.1773  0.0350
25950W        W41081  15.772  17.680  16.301  0.2172  0.2486 -0.4622
25951W        W41082   4.474  11.247  16.350  0.1713 -0.0239 -0.0926
25952W        W41083  15.601   2.734   3.758  0.0436 -0.0104 -0.0738
25953W        W41084  13.111   9.414   0.803  0.0918  0.1925  0.0674
25954W        W41085   4.335  17.574  11.451  0.0042 -0.1695 -0.1827
25955W        W41086   9.741   3.470  14.364 -0.0123  0.3349 -0.2820
25956W        W41087  17.398   7.769   3.531 -0.1089  0.0394 -0.2121
25957W        W41088  13.764   5.994   5.930  0.0958  0.1278 -0.0098
25958W        W41089  11.317   6.298   1.983 -0.0881 -0.0309  0.1178
25959W        W41090   5.459  14.034  13.364 -0.1118  0.2206 -0.3019
25960W        W41091  12.761   9.161  14.838 -0.1068 -0.1688 -0.0415
25961W        W41092  10.417   8.467   0.005 -0.1563 -0.0629  0.0416
25962W        W41093   2.599  11.487  13.205  0.0433 -0.3065 -0.3978
25963W        W41094   2.968  13.122   1.193  0.1226  0.0689 -0.2064
25964W        W41095   6.860  14.613  12.055 -0.2611 -0.0573  0.1309
25965W        W41096   5.191   5.557   4.668  0.0775  0.2912 -0.0286
25966W        W41097  15.087  15.916  12.505 -0.1526 -0.0772 -0.0764
25967W        W41098  10.184  12.427  15.997 -0.2486  0.0266 -0.2815
25968W        W41099   0.256   6.826  12.453  0.1147 -0.2072  0.0111
25969W        W41100  14.016   9.651  15.811  0.5125  0.0916 -0.1887
25970W        W41101  13.540   1.365   3.334 -0.1022  0.6720 -0.1148
25971W        W41102  15.856   2.535   4.190  0.6313  0.2324  0.0970
25972W        W41103  14.282  11.016  13.448 -0.3525 -0.1573 -0.1480
25973W        W41104   9.408   9.895   2.640  0.0678  0.3437 -0.2589
25974W        W41105  13.968   4.087   4.211 -0.1327 -0.2716  0.1146
25975W        W41106  12.554   7.724  12.758  0.1044 -0.0277 -0.0969
25976W        W41107  13.638  10.466  13.165 -0.1082 -0.2986  0.1717
25977W        W41108   9.002  11.399   3.293 -0.0684 -0.1465  0.1599
25978W        W41109   1.387   4.077  14.270  0.2018  0.0466 -0.5391
25979W        W41110   5.106  12.678  15.036 -0.0189 -0.0418 -0.3595
25980W        W41111   3.470  14.294   2.951  0.1469 -0.1518 -0.0359
25981W        W41112   3.045   1.297   1.910  0.1308 -0.0280  0.5142
25982W        W41113  10.782  16.525   3.441  0.0558 -0.1456  0.1500
25983W        W41114  16.807   1.547   3.880 -0.1474  0.1674 -0.2646
25984W        W41115   6.328   8.745  16.429 -0.1586  0.0098 -0.2574
25985W        W41116   5.395   4.366  11.085  0.0853  0.2957  0.1968
25986W        W41117   4.443  10.168  15.579  0.1023 -0.0709 -0.0187
25987W        W41118   6.564   9.825  12.955  0.3290  0.1849  0.1361
25988W        W41119   2.772   9.834   2.601 -0.0695 -0.1056 -0.1077
25989W        W41120   9.503  12.665   4.559 -0.0708 -0.1812 -0.0822
25990W        W41121   5.284  12.050   3.031  0.4179  0.0067  0.0733
25991W        W41122   3.280   9.302   4.658  0.2111  0.2255  0.0208
25992W        W41123   7.760  14.958   1.556 -0.0219  0.0910 -0.1859
25993W        W41124   0.764   9.178  11.082 -0.0024 -0.0181  0.1187
25994W        W41125   4.518   9.145   0.052  0.0556  0.0489  0.0509
25995W        W41126   0.576   4.047   5.652 -0.0184  0.1233 -0.2251
25996W        W41127   8.933  11.013  15.453  0.3225 -0.0187  0.0495
25997W        W41128  18.003  14.388   3.621 -0.0963 -0.0283 -0.2115
25998W        W41129  11.407   1.115  16.108 -0.3305  0.3459  0.0636
25999W        W41130  14.159  15.066   4.219 -0.1365  0.0724  0.0995
26000W        W41131  14.276  13.573  11.004 -0.2648 -0.3089  0.0667
26001W        W41132   7.838  13.597   0.642 -0.0602 -0.0897 -0.0460
26002W        W41133  14.340   4.201  11.460  0.0351 -0.3495 -0.0164
26003W        W41134  13.751   0.139   5.325 -0.1932  0.1493 -0.1151
26004W        W41135   3.550   1.647  13.103  0.0931 -0.0855  0.4678
26005W        W41136  15.274  10.375  11.712  0.2029  0.1658 -0.0686
26006W        W41137   7.190   3.836  12.293  0.3083  0.1798  0.0132
26007W        W41138   0.893  17.533   5.133 -0.1516  0.2422  0.0768
26008W        W41139   1.214  10.056   1.108  0.1190  0.1153  0.2042
26009W        W41140   2.130   6.260  16.346  0.3563  0.0260 -0.0091
26010W        W41141  11.891  15.988   2.598  0.0245  0.0722  0.1653
26011W        W41142  10.202   2.606  14.747  0.4160  0.0121 -0.0502
26012W        W41143   5.847   5.795   0.229 -0.1647  0.0100  0.0880
26013W        W41144  13.631   5.536  16.139  0.1746 -0.0108 -0.2124
26014W        W41145  11.625   1.296  11.410  0.2302  0.1147  0.0071
26015W        W41146   1.679  12.493   3.844  0.1545 -0.0097  0.2987
26016W        W41147   4.503  16.719  11.077  0.2738 -0.0449  0.0189
26017W        W41148   9.863   5.268   1.743 -0.0302 -0.0251  0.1160
26018W        W41149  14.384  10.404  15.670  0.0200  0.2132  0.2211
26019W        W41150   2.156  15.647   0.408 -0.0343  0.0867  0.0998
26020W        W41151   7.377   3.132  15.952 -0.0222 -0.3453 -0.3252
26021W        W41152   9.181   6.274  13.031 -0.2473 -0.1354  0.0180
26022W        W41153   1.327  14.196   5.294  0.2487 -0.1682  0.0419
26023W        W41154  14.811   2.409  16.225  0.0870  0.2322 -0.0417
26024W        W41155  16.566  15.924  15.257 -0.1125 -0.0176 -0.0236
26025W        W41156   3.000  16.854   4.322  0.0062  0.2969  0.0875
26026W        W41157   3.371   6.314  16.285  0.0433 -0.0580 -0.0233
26027W        W41158   8.568  17.303  11.908 -0.2648  0.1371 -0.0457
26028W        W41159   4.001  12.679   4.504 -0.4179 -0.1655 -0.1301
26029W        W41160   4.717  15.673   4.506  0.0402 -0.0030  0.0348
26030W        W41161   9.678   0.052  12.781 -0.2141  0.2785  0.0544
26031W        W41162  15.441  10.900   1.452  0.0886 -0.0055 -0.1221
26032W        W41163  10.803   2.079  11.953 -0.1053  0.0227 -0.1693
26033W        W41164   9.960   7.693   0.617 -0.1575 -0.2869  0.1682
26034W        W41165   7.730   2.467   4.454  0.2567 -0.0589 -0.1012
26035W        W41166   8.034   1.541   0.360 -0.0553  0.0952 -0.0426
26036W        W41167  11.767   4.411  11.194 -0.0525 -0.2360 -0.0415
26037W        W41168  12.622   6.455   0.336  0.3076 -0.2670 -0.1518
26038W        W41169   8.563   9.848  13.665 -0.1474  0.0222  0.1814
26039W        W41170   2.200  12.634  16.291 -0.1127  0.1515 -0.3649
26040W        W41171   3.015   0.145   1.697 -0.0484  0.1578  0.4708
26041W        W41172  17.159  11.056  12.335  0.0617  0.3067 -0.1342
26042W        W41173  13.021   0.486  11.474 -0.2424 -0.2961 -0.1277
26043W        W41174  10.771   9.049   3.795  0.0869  0.0235 -0.3312
26044W        W41175   0.347   0.495   4.809  0.0648  0.1510 -0.1781
26045W        W41176  13.872  17.380  13.407 -0.0008 -0.0256  0.0240
26046W        W41177  12.454  14.404   3.889 -0.0563 -0.0125  0.1023
26047W        W41178   9.090   0.146  13.383 -0.3274 -0.0390 -0.1690
26048W        W41179   6.876   3.980  15.229  0.3287  0.4250  0.2599
26049W        W41180   2.504   4.498  13.458  0.0948  0.5362  0.0988
26050W        W41181  11.962   3.671  14.033 -0.0435  0.2627  0.1409
26051W        W41182  17.473   4.484  15.992 -0.0651 -0.1322  0.0946
26052W        W41183  17.254  13.706  12.955  0.1098 -0.1516 -0.2418
26053W        W41184   7.595   1.628   0.084 -0.1721 -0.0396 -0.0290
26054W        W41185  12.237   2.487   5.808  0.1819 -0.0766 -0.2329
26055W        W41186   6.646  13.477   1.693 -0.0194  0.3127  0.2020
26056W        W41187  11.927  11.551  13.820  0.0457  0.0328  0.1166
26057W        W41188  11.310  11.331  12.133  0.3253  0.2035  0.1162
26058W        W41189  13.734   3.634  13.421  0.1924  0.0676  0.2043
26059W        W41190   9.738  14.277  12.148 -0.3837 -0.0374  0.1131
26060W        W41191  14.774  16.668   5.260  0.0632  0.0680  0.4070
26061W        W41192  15.935   3.641  12.947  0.0987 -0.1475 -0.1769
26062W        W41193   3.878   3.707  14.639 -0.1603  0.0064  0.0581
26063W        W41194   5.438  17.736   2.654 -0.0299  0.3764  0.0355
26064W        W41195  15.660   4.759   0.998  0.1036  0.0497  0.2686
26065W        W41196   0.372   4.065   2.377 -0.2382  0.1429  0.0238
26066W        W41197  17.453  15.135   3.623  0.1370 -0.0297 -0.2490
26067W        W41198   1.099   2.380   2.270  0.0193 -0.0402  0.1898
26068W        W41199   7.026  12.838  11.095 -0.4318 -0.0036 -0.1545
26069W        W41200  17.911   1.028   3.864  0.0923  0.0235  0.1791
26070W        W41201   6.973  10.746  10.720 -0.2317 -0.0809  0.1218
26071W        W41202   3.937   1.048  16.032 -0.0128  0.1716 -0.1402
26072W        W41203  17.615   6.790  13.032  0.0268  0.0290 -0.1232
26073W        W41204  16.393  12.594  12.381 -0.0066  0.0311 -0.2479
26074W        W41205   5.487  10.738   3.163 -0.0393  0.0838 -0.1725
26075W        W41206   0.305  12.208   2.538  0.2117  0.1320  0.0804
26076W        W41207  17.103  13.375   1.836  0.3543 -0.1199 -0.3988
26077W        W41208   2.201   1.640   5.054  0.0885  0.1197 -0.1566
26078W        W41209  12.463  18.023  13.112  0.1985 -0.0958 -0.3076
26079W        W41210   5.659  15.526   0.019 -0.0486  0.0604  0.3515
26080W        W41211   7.559   6.082   1.887 -0.0036  0.3456  0.0501
26081W        W41212  13.807  14.115  13.993 -0.1186 -0.2790 -0.0995
26082W        W41213  18.076   1.375   5.164  0.0123 -0.0020 -0.2208
26083W        W41214  17.299  10.758   2.589 -0.1131 -0.1385  0.0576
26084W        W41215   6.511  14.491  14.638  0.1193 -0.2098  0.0335
26085W        W41216  16.356   9.073   3.311  0.2905  0.0365 -0.0858
26086W        W41217   4.239  17.311   3.851  0.0339 -0.0003  0.0300
26087W        W41218  16.032  14.461   0.125  0.3936  0.1221  0.1250
26088W        W41219   7.296   1.085   0.198 -0.1390 -0.1170  0.0367
26089W        W41220  17.925   1.272   4.660  0.3559 -0.0156  0.1879
26090W        W41221  10.638  14.686  12.310 -0.0409 -0.1814 -0.3144
26091W        W41222   4.664   7.441   5.795 -0.3102  0.0227  0.1134
26092W        W41223   2.187   7.754   0.612 -0.2798  0.0176 -0.2471
26093W        W41224  15.414   5.593  13.439 -0.0716 -0.0232 -0.4432
26094W        W41225   7.293   7.694   3.601  0.2782  0.2038 -0.3362
26095W        W41226  11.634  10.968  14.557 -0.2527  0.0232 -0.0536
26096W        W41227   9.329   7.552   0.067 -0.0042  0.0587 -0.3656
26097W        W41228   0.412   2.266   5.143  0.0669  0.4447  0.2631
26098W        W41229  13.426  15.444  10.637 -0.1232  0.0089 -0.3121
26099W        W41230   9.195   0.267  12.896  0.1439  0.0776  0.1794
26100W        W41231  17.586  11.567  13.296 -0.1465  0.4509 -0.1251
26101W        W41232   2.087   3.609  14.125  0.1718 -0.0278 -0.0573
26102W        W41233  13.337  17.784  15.100  0.2272  0.2852  0.1153
26103W        W41234   9.013  16.848   5.356  0.3181  0.0660  0.0511
26104W        W41235   1.721   0.843  13.128 -0.1010  0.2557 -0.1521
26105W        W41236   3.555  15.366  11.635  0.0421 -0.3525  0.1990
26106W        W41237   8.629   0.471   0.737 -0.1836 -0.0940 -0.2247
26107W        W41238   2.199   2.244   4.041 -0.1253  0.0433 -0.2857
26108W        W41239   8.512  10.636   4.628 -0.1057 -0.1706  0.2326
26109W        W41240   7.600   7.962   6.061 -0.0466  0.0562 -0.0148
26110W        W41241   7.092   2.642  14.790 -0.3217  0.1166  0.4950
26111W        W41242  13.425  17.393   1.178  0.0200 -0.2212 -0.3728
26112W        W41243   2.710   4.896  16.070  0.0088 -0.1141  0.4277
26113W        W41244   5.181   7.747   2.985 -0.0884  0.3276  0.0289
26114W        W41245  14.532   5.315   1.071 -0.1185 -0.0591 -0.1891
26115W        W41246   1.133  13.280   2.049  0.2013  0.2755 -0.0153
26116W        W41247   4.883   2.097   4.366 -0.0160 -0.1273  0.1086
26117W        W41248  15.555   8.356   3.282  0.2635  0.0875 -0.0903
26118W        W41249  16.779   7.691   2.037 -0.2803 -0.0481  0.3084
26119W        W41250  11.700  14.286  12.626  0.0863 -0.2570  0.1213
26120W        W41251  12.192   5.792   2.031 -0.2497  0.1785 -0.2408
26121W        W41252  10.247   0.222  15.011 -0.1406  0.1172  0.1390
26122W        W41253  15.792   4.654  13.371  0.2849  0.0916 -0.0433
26123W        W41254  13.641  12.115   5.495 -0.0626 -0.0611 -0.4448
26124W        W41255   2.352  11.497   4.257  0.4057 -0.1540  0.0276
26125W        W41256  10.269  11.487   2.044  0.3177 -0.0281 -0.1509
26126W        W41257  10.992  12.507   0.012 -0.2355 -0.1318 -0.1589
26127W        W41258   7.374  13.380   0.231  0.0819  0.1221 -0.1001
26128W        W41259  15.133  16.224   1.359 -0.1756  0.2669 -0.0132
26129W        W41260   1.490   1.746  14.366  0.2334  0.1122  0.1059
26130W        W41261  16.003  15.648   0.305 -0.0328  0.0854  0.1443
26131W        W41262   7.867   3.621  13.433 -0.0985  0.2455  0.2349
26132W        W41263  10.465  15.998   2.133 -0.2089 -0.1100  0.1695
26133W        W41264  14.346   5.683   2.449  0.0451 -0.1401 -0.0871
26134W        W41265  13.766  12.047   4.232  0.0267  0.2740 -0.0343
26135W        W41266   5.817  15.931  10.661 -0.1142  0.0059  0.0742
26136W        W41267   6.757   0.362  15.540 -0.0074 -0.2705 -0.1275
26137W        W41268   3.156  16.159   0.905  0.1314 -0.2156 -0.1135
26138W        W41269  11.512  14.479   3.736  0.0995 -0.0990 -0.2616
26139W        W41270   6.135   7.558  11.558 -0.1167 -0.0088 -0.1461
26140W        W41271   9.214   1.727  14.670 -0.0486 -0.2013  0.0721
26141W        W41272   4.993   1.837  10.848  0.1765  0.0459 -0.1793
26142W        W41273  13.612   0.513   4.744 -0.3403 -0.0060  0.3110
26143W        W41274   5.306   9.151  13.567 -0.1051  0.0300  0.3161
26144W        W41275   7.406   5.066   1.417 -0.0441 -0.2180  0.0039
26145W        W41276   7.472  10.124   3.675  0.2615  0.4199  0.2863
26146W        W41277   8.165  13.575   6.140 -0.0753  0.1253 -0.1642
26147W        W41278   2.556   9.284   3.356  0.1317  0.2256 -0.1691
26148W        W41279   9.502   9.360   3.549  0.3935  0.0986 -0.1889
26149W        W41280   1.888   5.584  12.707  0.1219 -0.0695  0.1971
26150W        W41281   0.345   9.825   1.656  0.2923 -0.0012  0.0202
26151W        W41282  11.716  11.509  14.681 -0.0193 -0.2372 -0.0230
26152W        W41283  15.244   0.938  13.608 -0.0810  0.2515  0.0101
26153W        W41284  13.495   7.236  14.710 -0.0443 -0.1688 -0.1619
26154W        W41285   3.554   4.111   4.637 -0.0461 -0.1065  0.0412
26155W        W41286  15.787   1.749  13.254  0.2904 -0.0023 -0.0550
26156W        W41287  14.561  16.894   4.628 -0.1538  0.1871 -0.0317
26157W        W41288   7.548  13.449   5.235  0.0543 -0.4148  0.0744
26158W        W41289   2.795  14.009   1.362 -0.2925 -0.2225 -0.4315
26159W        W41290  10.890   2.721   4.090 -0.1953 -0.2821  0.1087
26160W        W41291   0.042   7.729  15.327  0.1906  0.0111  0.2484
26161W        W41292   6.457   3.256   2.836 -0.0788 -0.1960  0.1093
26162W        W41293  10.004  13.568   2.975  0.1214  0.0917  0.2645
26163W        W41294   0.054   2.783   1.951 -0.1505  0.0211  0.0631
26164W        W41295   6.616   7.753   0.676 -0.3366  0.3583 -0.0379
26165W        W41296   2.797   7.930  11.762  0.1764 -0.3125 -0.0661
26166W        W41297  10.356  15.188   5.027 -0.1766  0.0457 -0.0784
26167W        W41298  12.101  17.682   2.138  0.0119  0.2340  0.1072
26168W        W41299   3.806   3.306   1.408  0.1812  0.1156  0.0232
26169W        W41300   3.396  11.938   4.974  0.0715  0.2429 -0.1050
26170W        W41301   9.572   8.137  13.100  0.2074  0.0265  0.1841
26171W        W41302   1.713   7.858  16.213 -0.0868  0.2474  0.1271
26172W        W41303   8.347  11.594  16.128  0.1099 -0.1408  0.1778
26173W        W41304  16.200  14.636  10.901 -0.0296 -0.0657  0.0115
26174W        W41305   2.604   3.103   4.799  0.1649  0.1960  0.4151
26175W        W41306  10.583   2.503  15.261  0.1120  0.2481 -0.0493
26176W        W41307   0.224  16.714   1.068 -0.0084 -0.1777  0.1292
26177W        W41308   6.214   6.607  11.364  0.0947 -0.2168  0.2781
26178W        W41309   9.798   6.807   3.212 -0.3395 -0.0325 -0.1815
26179W        W41310   8.871  10.420   4.391 -0.2970  0.0093  0.0973
26180W        W41311  10.717  15.971  12.433  0.1157 -0.4246 -0.0336
26181W        W41312   3.318   6.503  13.365  0.4111 -0.0085  0.1280
26182W        W41313   3.947  15.510  15.519  0.1230 -0.2576  0.2800
26183W        W41314   4.924  11.621   3.254  0.1062 -0.2146  0.1268
26184W        W41315  14.945   0.178   0.932 -0.0139  0.2456 -0.1355
26185W        W41316   8.937   7.143   2.836  0.2029 -0.2726 -0.3832
26186W        W41317   2.630   4.820  13.055  0.3282 -0.1918 -0.1397
26187W        W41318  12.780  11.600   4.213 -0.3338  0.1131  0.0639
26188W        W41319  11.265  16.560   0.862  0.0568 -0.3885 -0.0574
26189W        W41320   5.437  14.701  14.245 -0.2000 -0.1624  0.0572
26190W        W41321   1.938   2.863   1.818  0.2864 -0.4169  0.0233
26191W        W41322   8.092   5.747  15.739  0.3836  0.0870 -0.1087
26192W        W41323  14.865  14.923  13.057 -0.0169 -0.0401  0.2009
26193W        W41324  10.028  14.296  13.704  0.1846  0.2386 -0.3667
26194W        W41325   7.583  16.896  12.539  0.0343  0.0644 -0.0291
26195W        W41326   6.450  14.007  15.610  0.0191 -0.3191  0.1863
26196W        W41327   1.294  13.005   5.827 -0.1134  0.1363  0.2346
26197W        W41328  17.212   3.237   2.110  0.0699 -0.0702 -0.4586
26198W        W41329   2.905   9.055   3.595  0.1083 -0.3925 -0.2440
26199W        W41330   0.577  13.359   4.867 -0.1597 -0.0267  0.1897
26200W        W41331   9.230   7.406   4.595 -0.0280 -0.0114 -0.0199
26201W        W41332   6.699  11.829  15.692  0.3051 -0.2703 -0.2058
26202W        W41333   5.709  16.290  12.231 -0.0141  0.3794 -0.1330
26203W        W41334   9.589   5.636   2.237  0.0597  0.4055 -0.1380
26204W        W41335  10.666   3.911   2.040  0.3663 -0.3105 -0.2348
26205W        W41336  10.360  10.799   2.492  0.0806  0.0358 -0.0490
26206W        W41337  12.491   1.076  14.403 -0.1036  0.3557  0.0424
26207W        W41338  14.778   5.354  14.153 -0.1123  0.0316  0.0575
26208W        W41339   6.430  11.304  13.496  0.0154 -0.1415 -0.1673
26209W        W41340   6.777  12.154  13.969 -0.0311  0.0134  0.1516
26210W        W41341   1.845   3.609  11.419  0.1102 -0.1870  0.0049
26211W        W41342  15.738  10.529   5.355 -0.0271 -0.0166  0.1959
26212W        W41343   6.749  15.671   3.774  0.0466  0.1045 -0.1759
26213W        W41344   0.519   8.705   0.168 -0.2460  0.2215 -0.0344
26214W        W41345  10.127   2.376   1.206 -0.2838 -0.2133  0.1457
26215W        W41346   7.981   0.306   5.753  0.3158  0.0921 -0.1143
26216W        W41347  17.213  13.257  12.262  0.0652  0.1301  0.0381
26217W        W41348   6.105   1.001  15.264 -0.1132  0.0238 -0.1348
26218W        W41349  16.720  14.218   5.170 -0.0977  0.1514  0.0553
26219W        W41350  11.612  15.772  12.654  0.2151 -0.2118  0.3352
26220W        W41351   5.183  12.367   1.179 -0.1685  0.0139 -0.0628
26221W        W41352  13.855   7.568  13.882 -0.0511  0.1541  0.0552
26222W        W41353  13.094  17.705  11.878  0.2237  0.3466  0.1486
26223W        W41354  14.794  11.165   6.443 -0.0554  0.0611  0.2040
26224W        W41355  12.227   3.968   1.612  0.0738 -0.1961  0.0506
26225W        W41356   0.252   7.797  14.497 -0.0434  0.0373  0.0503
26226W        W41357  15.020   6.177  14.734 -0.0505 -0.0082 -0.1753
26227W        W41358  13.745   5.588  12.101  0.1611  0.0721  0.0838
26228W        W41359   3.250   8.665  14.056 -0.1065  0.0574  0.0045
26229W        W41360   8.561  13.800   2.704 -0.1785  0.0907  0.0214
26230W        W41361   4.069  13.551  11.883  0.1160 -0.1278  0.0673
26231W        W41362  10.290   4.428  11.768  0.1142  0.2106 -0.0319
26232W        W41363   9.780  17.256   0.251  0.0744  0.1241  0.0138
26233W        W41364  16.992  10.365   0.927 -0.2769  0.0603  0.1889
26234W        W41365  15.479  15.770   4.181  0.0417  0.1759  0.0352
26235W        W41366  16.340  18.089  16.416 -0.2202 -0.0347  0.0383
26236W        W41367   6.536   0.741  15.202  0.1927  0.0114  0.3257
26237W        W41368   1.003   5.805   1.532  0.4127 -0.0966  0.0572
26238W        W41369   6.649   4.126   3.676 -0.3096 -0.1315 -0.1320
26239W        W41370   2.134   3.009   4.695 -0.0703  0.1561 -0.2659
26240W        W41371  13.369  14.590   3.595 -0.1300 -0.1443  0.2875
26241W        W41372  11.143   3.516  15.143 -0.0371  0.1738  0.1085
26242W        W41373  16.992  16.671  11.906  0.1254 -0.1035 -0.3416
26243W        W41374   3.782  11.812  16.352 -0.1367 -0.2952  0.1697
26244W        W41375   5.723  13.743  11.903 -0.1838 -0.3098  0.3072
26245W        W41376  16.714   4.357   1.946 -0.1686 -0.1603 -0.0945
26246W        W41377   8.082   8.651   5.165  0.1559  0.0182 -0.1341
26247W        W41378  13.889   5.691  15.636  0.2327  0.0990 -0.2675
26248W        W41379   3.199  15.370  13.464 -0.3405  0.0675  0.0474
26249W        W41380   8.900   3.221   1.371 -0.0507 -0.0105 -0.0390
26250W        W41381  11.365   3.157   3.541  0.0689 -0.1483 -0.1989
26251W        W41382   0.350  13.696   4.114  0.2357 -0.0215  0.1436
26252W        W41383  16.449  13.086   0.032 -0.1410  0.2696  0.0116
26253W        W41384   6.578  17.222  12.775  0.1670 -0.0151  0.1380
26254W        W41385   2.572   4.103  14.626  0.2863  0.0547  0.1150
26255W        W41386   3.069   3.802   5.386 -0.0256 -0.0383 -0.3066
26256W        W41387  13.939  12.582   0.432 -0.1233  0.0406  0.0620
26257W        W41388   5.348   0.135   4.572  0.0828  0.0486  0.1041
26258W        W41389   7.328   0.046   6.361  0.0956  0.3682 -0.0403
26259W        W41390   8.292   2.838  10.550 -0.1937  0.1747 -0.1361
26260W        W41391  14.500   6.443  11.117 -0.0688 -0.0258 -0.2736
26261W        W41392   5.559   6.836   3.439  0.0538 -0.1387 -0.0277
26262W        W41393   5.239  13.064   0.090 -0.3139  0.0266 -0.1669
26263W        W41394   8.686   1.074  15.119 -0.1766  0.0694  0.3017
26264W        W41395   1.140   1.022  15.295 -0.3182 -0.0298  0.1979
26265W        W41396  16.674   3.153   2.758  0.0808 -0.3204 -0.1645
26266W        W41397  16.471   6.199   4.003 -0.1292  0.3935  0.0599
26267W        W41398  10.244  13.510  15.856  0.1642  0.1944  0.1169
26268W        W41399  10.827  17.428   5.070  0.0265  0.0783  0.2064
26269W        W41400  17.788  11.441  15.470  0.2697 -0.1139  0.0524
26270W        W41401   2.016   8.168  11.636 -0.2379  0.0348 -0.2987
26271W        W41402   5.826  11.568   1.337 -0.1541 -0.0146 -0.2513
26272W        W41403   3.291  16.736   1.511 -0.0129  0.1171 -0.1306
26273W        W41404  10.881  11.430   3.193 -0.0088 -0.1253 -0.2060
26274W        W41405  14.208  12.811   2.139  0.0251  0.0216  0.0348
26275W        W41406  10.190   0.182   2.445 -0.2604  0.2009  0.0730
26276W        W41407   9.689   6.230  16.282 -0.3293  0.3263 -0.2525
26277W        W41408  15.692   2.815  11.656  0.1423 -0.0045 -0.0297
26278W        W41409  14.418   7.053   0.141  0.4893  0.0086  0.1411
26279W        W41410  11.385  11.113  13.134 -0.0219  0.1738 -0.0358
26280W        W41411   8.418   3.022  15.425  0.0464  0.2582 -0.2973
26281W        W41412  17.211  15.637   0.955  0.0897 -0.0128 -0.0443
26282W        W41413   7.436  12.076  10.984 -0.1038 -0.0485  0.3462
26283W        W41414   5.533  10.913   4.974  0.1933 -0.1531  0.1665
26284W        W41415  10.040  14.598  14.900  0.1488  0.0582 -0.0818
26285W        W41416   0.621  16.542  14.429  0.0119  0.0800  0.2374
26286W        W41417  15.249  14.138   2.299 -0.1334  0.0085 -0.2390
26287W        W41418  17.091  15.255   3.248  0.1057  0.0189  0.0870
26288W        W41419  11.226   8.281   2.049  0.0653 -0.0000  0.1596
26289W        W41420  11.859   8.233   0.629 -0.0544  0.1410  0.0953
26290W        W41421   2.133   6.593   0.245  0.0367  0.0516 -0.2461
26291W        W41422  17.504  17.090  14.471 -0.1364 -0.2041 -0.1540
26292W        W41423  10.616   3.524  15.081  0.0216 -0.0142  0.1898
26293W        W41424  11.919   2.115  13.869  0.0894  0.0728 -0.0209
26294W        W41425   3.788   6.920   2.720  0.2011  0.0480  0.1207
26295W        W41426   2.641   9.139  11.138 -0.0330  0.2552  0.1046
26296W        W41427  17.688  10.203   5.506 -0.3793  0.0215 -0.1188
26297W        W41428   4.170   2.553  11.904 -0.1767  0.0085  0.0240
26298W        W41429  10.864   6.665  15.500  0.1406 -0.0798  0.1860
26299W        W41430  10.958   7.407  13.363 -0.4943  0.1309 -0.3807
26300W        W41431   9.404  16.107  13.277 -0.1047 -0.2641 -0.0873
26301W        W41432   2.726  10.577  16.431  0.0421 -0.0325  0.2034
26302W        W41433   7.422   6.892  15.444 -0.0937 -0.1450  0.2712
26303W        W41434   5.449   7.875  15.967 -0.1163 -0.0482 -0.1367
26304W        W41435   8.323   0.918  11.278 -0.1436 -0.0499  0.3576
26305W        W41436  11.376  14.645   2.492 -0.1411 -0.0095 -0.0016
26306W        W41437   7.301   8.872  12.062  0.2650  0.2772 -0.0057
26307W        W41438  11.734  15.518  12.068  0.2579  0.4011 -0.1601
26308W        W41439   6.663   2.068   1.211  0.1191 -0.2413  0.1330
26309W        W41440  11.397  10.948   4.222  0.2317  0.0079  0.1210
26310W        W41441   7.235   0.513   4.463 -0.1187 -0.1093 -0.0092
26311W        W41442   8.034  11.416   4.184 -0.4129 -0.1625  0.1147
26312W        W41443   2.302   1.807  12.968  0.0145 -0.1884  0.0488
26313W        W41444   7.237   5.266  10.913  0.0566 -0.0039  0.0331
26314W        W41445   7.918  14.927   6.099  0.1525  0.3519 -0.0165
26315W        W41446  15.359  13.491   6.521  0.1687 -0.1154  0.0907
26316W        W41447   4.754   6.025  11.915  0.0252  0.3970  0.1397
26317W        W41448  14.325  10.569   5.332  0.0103  0.2080  0.2609
26318W        W41449   4.213  10.276  14.833 -0.3411 -0.1694 -0.0105
26319W        W41450  12.028   4.176  14.145  0.2859 -0.0384  0.1235
26320W        W41451   1.077   3.737  11.930 -0.0170  0.2168 -0.0327
26321W        W41452  16.970   9.683  10.511 -0.0594  0.2885  0.0954
26322W        W41453  13.018  15.165   2.416  0.0599  0.1219  0.1587
26323W        W41454  16.917  12.995   3.081  0.0002  0.0451  0.2490
26324W        W41455  16.968  14.934  13.497  0.0764 -0.1456  0.1995
26325W        W41456   2.346  10.564   2.551  0.0645  0.6800  0.0720
26326W        W41457   7.367  10.442  12.147 -0.1235  0.0398  0.0764
26327W        W41458  16.971  14.431  13.717  0.0527  0.0219  0.1752
26328W        W41459   4.236   1.174  11.989 -0.0562 -0.0996  0.1680
26329W        W41460   1.147  14.693  15.901 -0.0765 -0.1729  0.2540
26330W        W41461   4.527  12.852   5.898  0.1518  0.3659 -0.0277
26331W        W41462   9.191   7.824  13.227  0.1484  0.1723  0.0185
26332W        W41463  14.116  15.034   5.118 -0.1730  0.3315 -0.0893
26333W        W41464   8.864  13.104   5.527  0.0875 -0.1818  0.0988
26334W        W41465   9.652   4.208   0.458 -0.3206  0.1965 -0.0885
26335W        W41466   6.664  10.110   3.024 -0.0142  0.1384 -0.0491
26336W        W41467   7.075   0.853  13.140 -0.0521 -0.1269  0.0653
26337W        W41468  13.007   6.052  13.075 -0.2462 -0.0664  0.2240
26338W        W41469   1.838  15.855   3.882 -0.2253 -0.0269 -0.0768
26339W        W41470   7.880   8.170   1.985  0.2407  0.0408 -0.0561
26340W        W41471  10.553   9.583  13.565  0.2857  0.2591 -0.2593
26341W        W41472  11.114  14.213   2.638  0.3495  0.2652  0.0686
26342W        W41473   2.532  12.027   1.761  0.0607  0.1228 -0.0916
26343W        W41474   2.832   1.543  11.532 -0.0315 -0.0184 -0.0908
26344W        W41475   6.804  11.305   4.845  0.1053  0.1393 -0.1700
26345W        W41476   8.022   9.363  10.103 -0.1296 -0.1528  0.2025
26346W        W41477   3.241   0.530  14.974  0.0603 -0.3080  0.1851
26347W        W41478   8.342  13.154  13.160 -0.3193 -0.1182 -0.1264
26348W        W41479  10.993  17.937   5.064 -0.1293 -0.4279  0.0265
26349W        W41480  11.740   6.820  13.539 -0.0241  0.0102 -0.0431
26350W        W41481  11.630  10.159  10.868 -0.0904 -0.2046  0.1911
26351W        W41482  11.558  17.923   3.921 -0.2279  0.2004  0.1203
26352W        W41483   8.242  11.506   4.724  0.0461 -0.1092  0.0201
26353W        W41484   1.686   0.941  15.617 -0.2961 -0.1017  0.5533
26354W        W41485   1.982   5.564  10.107 -0.4842  0.1348 -0.1632
26355W        W41486   3.634   7.463   4.404 -0.1270  0.0513  0.1967
26356W        W41487  10.956   8.368  13.455 -0.2159 -0.1833 -0.1089
26357W        W41488  15.669   9.253   4.764 -0.3073 -0.0729 -0.1230
26358W        W41489   1.402   9.996  12.033 -0.0716 -0.2397  0.0472
26359W        W41490   9.781   7.511   4.738 -0.0094 -0.0090  0.2142
26360W        W41491  16.095   3.556  15.626 -0.1482 -0.0404  0.0876
26361W        W41492   8.891   0.951  14.636  0.1112 -0.0772 -0.0685
26362W        W41493   8.481   5.032   5.395  0.0315 -0.3011 -0.0121
26363W        W41494   6.497   7.504  12.685 -0.0169 -0.2155 -0.0765
26364W        W41495  12.493  17.712   0.465 -0.0313 -0.0560 -0.1767
26365W        W41496   5.290  16.084  15.246  0.0772 -0.0965 -0.0935
26366W        W41497   7.852   3.608  14.211 -0.1368  0.0628  0.0737
26367W        W41498  10.697  11.730  13.607  0.0028  0.1325 -0.2401
26368W        W41499  17.514  11.368  10.913 -0.2539 -0.0847 -0.2444
26369W        W41500  11.445   9.832  13.536  0.1890  0.0749  0.3243
26370W        W41501   2.699  15.643  14.214  0.1696 -0.0003  0.1077
26371W        W41502   1.255  18.107  11.546 -0.1506  0.1508  0.1964
26372W        W41503  16.363   6.632   4.643  0.1006 -0.0978  0.0520
26373W        W41504   4.041  10.561   4.771 -0.1561 -0.2807 -0.1597
26374W        W41505  15.788  10.259  11.581  0.1317  0.1221  0.1593
26375W        W41506   3.749  15.343  12.404  0.1201  0.0412  0.0145
26376W        W41507   0.658  17.897  15.386  0.1520  0.2995 -0.3120
26377W        W41508   7.891   8.165  16.081  0.0232  0.2175  0.1659
26378W        W41509   9.819   2.467  12.562  0.0471 -0.3228  0.2902
26379W        W41510  17.543  16.993   2.931  0.1813 -0.4578  0.0767
26380W        W41511   4.231   0.517  15.739 -0.1562 -0.2878 -0.0450
26381W        W41512   2.962  13.060   0.640 -0.2613  0.0099 -0.0063
26382W        W41513   0.501  11.266   0.876 -0.2694  0.2250 -0.0560
26383W        W41514  10.662   1.732  14.253  0.0756 -0.1537 -0.2914
26384W        W41515   2.731   2.095   1.766  0.3999  0.1179  0.0087
26385W        W41516   7.051  12.665  16.176  0.3392 -0.0694 -0.0107
26386W        W41517   6.967  12.499   2.209 -0.3656  0.0724  0.1413
26387W        W41518  13.934   1.107   3.736 -0.2266  0.1784  0.1307
26388W        W41519   3.790   1.273  14.463  0.0584  0.1931 -0.5788
26389W        W41520  14.774   8.540   0.809 -0.1472  0.2406 -0.1113
26390W        W41521   7.468   9.576  12.766 -0.0950 -0.1044 -0.2084
26391W        W41522  12.364   3.809  10.798  0.0564  0.1240  0.0656
26392W        W41523   6.144   1.228   3.496  0.1979 -0.1608 -0.2007
26393W        W41524  16.264   1.144  13.979 -0.0161 -0.2284  0.3061
26394W        W41525   7.116  16.917  13.435  0.1464  0.0591 -0.0142
26395W        W41526   5.731   1.124  12.025 -0.3904 -0.0626  0.1023
26396W        W41527   7.938   8.573  11.186 -0.2026 -0.0250 -0.1143
26397W        W41528   6.513  12.447  14.775  0.0401  0.1119 -0.3811
26398W        W41529   2.232   3.206  14.396  0.1541 -0.3044  0.0530
26399W        W41530   6.262  14.498  12.943  0.0180  0.3976  0.2039
26400W        W41531   9.288  11.685  15.887 -0.1448 -0.1333 -0.0307
26401W        W41532  10.350   1.373   0.191  0.1066 -0.0268 -0.2065
26402W        W41533   9.617   7.023  15.082  0.1255  0.0220  0.1781
26403W        W41534  10.316  11.158  11.964 -0.4162  0.0824  0.0644
26404W        W41535  12.799   9.909   5.331 -0.2804 -0.3296 -0.1231
26405W        W41536  10.637  17.933   3.201  0.2070 -0.0529  0.1144
26406W        W41537  10.906  15.935  14.048 -0.0060 -0.1075  0.1006
26407W        W41538  15.460  17.451  11.270  0.0964 -0.1009  0.0805
26408W        W41539   8.170   2.922   3.887 -0.0692  0.0316 -0.1369
26409W        W41540   8.022  17.292  13.200 -0.4354  0.2064 -0.0636
26410W        W41541  14.713  10.198  11.666  0.0684  0.2483 -0.1306
26411W        W41542  15.934  13.877   2.648 -0.1022  0.1519 -0.0438
26412W        W41543  16.739  17.772   1.175  0.1908 -0.0714 -0.0880
26413W        W41544   4.814  12.283  12.165 -0.0757 -0.0138  0.0970
26414W        W41545   1.676   0.376  13.599  0.4611 -0.0112  0.0501
26415W        W41546  17.737  11.795   3.314 -0.1344 -0.0458  0.0554
26416W        W41547  10.511   2.891  15.695 -0.0025 -0.0444 -0.4082
26417W        W41548   2.458   3.596  15.752 -0.1201  0.0096 -0.0087
26418W        W41549   6.965  13.941   0.986 -0.1878 -0.0552  0.0380
26419W        W41550  14.150   0.283   2.273 -0.1446 -0.2811 -0.0544
26420W        W41551   4.717   4.804   5.360 -0.2888 -0.1302  0.1723
26421W        W41552  16.835   6.869   5.001  0.0137  0.0478 -0.0048
26422W        W41553   9.831   1.922   0.465 -0.1725 -0.1529  0.0136
26423W        W41554   0.897   8.979   5.126 -0.0258  0.0302 -0.0396
26424W        W41555   7.985  11.530  14.333  0.3016  0.0227  0.0001
26425W        W41556  17.133   8.814  15.317 -0.0078 -0.0315 -0.1441
26426W        W41557  17.897   9.433  15.789 -0.1040 -0.0842 -0.1350
26427W        W41558   3.211   2.249  14.323 -0.1357  0.1462 -0.2239
26428W        W41559   4.595  15.636  13.154  0.0845 -0.0139  0.0394
26429W        W41560   5.221   5.495   1.918 -0.1164  0.3017  0.2211
26430W        W41561  15.765   4.602   5.395 -0.1865  0.2422 -0.1009
26431W        W41562  14.102  17.458  15.224  0.0321  0.0109  0.2108
26432W        W41563   9.059   1.309   1.805  0.0291  0.2136 -0.1525
26433W        W41564  13.676   1.787   3.095 -0.1435  0.0461  0.2479
26434W        W41565  17.486   8.331  11.035  0.1737  0.0246 -0.1173
26435W        W41566   4.199  11.701   2.372 -0.0126 -0.0227  0.1143
26436W        W41567   8.854  11.883   1.993 -0.2728 -0.1025  0.0261
26437W        W41568  11.610   9.535  16.177  0.1814 -0.0696 -0.3711
26438W        W41569   4.263   0.952   3.204 -0.2900  0.2079  0.1806
26439W        W41570   0.912   2.886  16.446  0.2341 -0.0243 -0.4036
26440W        W41571  10.478   5.386  15.229 -0.2275  0.1028 -0.4174
26441W        W41572  14.054  14.955  14.644 -0.0586  0.1767 -0.0777
26442W        W41573   6.597  17.008  11.498 -0.2491  0.1218  0.0910
26443W        W41574   4.060   3.069  16.062 -0.0390  0.2183  0.0556
26444W        W41575   5.687  14.053   4.560  0.1204 -0.1059  0.2913
26445W        W41576   5.725   5.464   4.455 -0.0515  0.3563 -0.0177
26446W        W41577  11.696   5.355   3.023 -0.0844 -0.1941 -0.1872
26447W        W41578  16.765   5.550  16.117 -0.3058 -0.2028 -0.1360
26448W        W41579   1.564   2.172  16.339 -0.1269 -0.1743  0.2825
26449W        W41580  13.872   0.897   2.687 -0.1051 -0.1507  0.1317
26450W        W41581  11.416  13.504  15.299  0.1696  0.1465 -0.0485
26451W        W41582   0.254   3.110   3.196 -0.0066  0.1469 -0.1761
26452W        W41583  14.580   7.573   3.323 -0.2050  0.1630  0.0390
26453W        W41584   0.810  13.143  11.630  0.1839  0.1252 -0.2266
26454W        W41585   9.751  17.124   1.118 -0.3293  0.0663 -0.1468
26455W        W41586  15.486  11.063  15.650 -0.0063 -0.4083  0.1840
26456W        W41587  13.062  12.696  11.505 -0.0394  0.1559  0.2973
26457W        W41588   3.246   4.918   4.783  0.1487  0.0904 -0.2397
26458W        W41589   7.854  13.736  15.313  0.3135 -0.3347 -0.1387
26459W        W41590   9.125   8.907  11.459  0.3167  0.3382  0.0723
26460W        W41591  15.743   7.043   3.429  0.2855 -0.2596  0.0395
26461W        W41592  17.525  12.907  15.738  0.1840 -0.1777  0.0858
26462W        W41593   1.040   4.799   3.379  0.0805  0.3617  0.0300
26463W        W41594  16.833  12.387  12.216 -0.2997 -0.0638  0.1079
26464W        W41595   7.579   9.417   3.485 -0.0169 -0.0892 -0.4609
26465W        W41596   1.038   0.470  11.446  0.0345  0.2172 -0.0564
26466W        W41597  13.737  16.875  14.616  0.0326  0.0288  0.1387
26467W        W41598  14.750  11.221   3.998  0.2140  0.1395  0.0556
26468W        W41599   7.190   1.822   0.505  0.0129 -0.1572  0.2977
26469W        W41600   8.831  10.788   3.659 -0.1538 -0.0923  0.2158
26470W        W41601   1.372  11.092  10.753  0.1514 -0.0321 -0.1683
26471W        W41602  13.405   4.042   1.338 -0.2813 -0.5228 -0.2899
26472W        W41603  16.885  16.668  13.685 -0.2190  0.1813 -0.0857
26473W        W41604  10.343  10.718   1.670  0.0417  0.0439 -0.0033
26474W        W41605   0.150   2.435  12.018 -0.0276  0.1247 -0.2368
26475W        W41606  17.292   6.424   0.729  0.0920  0.0730 -0.3324
26476W        W41607  13.056   2.493   1.355 -0.0249 -0.2014  0.1216
26477W        W41608  13.407  12.472   0.992 -0.1133  0.0363  0.0312
26478W        W41609  14.506   4.493  13.902  0.0881 -0.0653  0.1775
26479W        W41610   7.171  12.573  14.616  0.0822 -0.1677 -0.0629
26480W        W41611   1.985  16.823   1.304 -0.0489  0.0719 -0.0042
26481W        W41612  10.711   7.034  10.952 -0.1665 -0.1383  0.1532
26482W        W41613  14.896  10.762   0.557  0.1033 -0.1104 -0.5093
26483W        W41614  17.671   7.428   5.287 -0.1926  0.0326  0.3198
26484W        W41615   3.254  17.080  15.003 -0.1750 -0.3232 -0.2757
26485W        W41616   8.029   8.478  10.670 -0.0906  0.0344  0.2660
26486W        W41617  14.302   7.936  10.876 -0.0006  0.4422  0.0031
26487W        W41618  16.355   4.352   1.358  0.0833  0.0383 -0.0145
26488W        W41619   4.771  16.952  16.151  0.2947  0.0794 -0.2017
26489W        W41620  15.105   2.825   0.021 -0.1398 -0.1666  0.2100
26490W        W41621   7.153   1.984   1.429  0.0388  0.2847  0.1073
26491W        W41622   5.468   3.037   2.201  0.1355  0.1444 -0.0558
26492W        W41623  12.953   6.523  13.317 -0.0660  0.2587 -0.0236
26493W        W41624  11.920  17.244   1.354 -0.0917  0.1582  0.1873
26494W        W41625   5.913   0.698  12.935  0.0440 -0.2181 -0.2971
26495W        W41626   4.009   1.773  13.332 -0.0159  0.1896 -0.2457
26496W        W41627  10.926  10.630  13.902  0.2314 -0.0281 -0.0252
26497W        W41628  16.208   1.450  13.559  0.1543 -0.0102 -0.1617
26498W        W41629   4.939   1.718   2.786 -0.2241  0.1529  0.0668
26499W        W41630   7.487  12.531   3.132 -0.1512 -0.0595  0.0940
26500W        W41631   6.645  13.325  14.878  0.1173 -0.1570  0.2370
26501W        W41632   8.359   0.867  11.814 -0.0455  0.0711  0.1744
26502W        W41633  10.902  11.030   6.340  0.2039  0.0576 -0.2758
26503W        W41634  13.043   5.551  12.341 -0.0933  0.0532 -0.2226
26504W        W41635   9.618   0.108   5.741 -0.4904  0.0332  0.0457
26505W        W41636   9.539   4.418  12.240 -0.0808 -0.3165 -0.1443
26506W        W41637   4.970  17.944  16.251  0.1180  0.0664 -0.1575
26507W        W41638   4.740   5.653   4.409 -0.0249  0.2745  0.2961
26508W        W41639  12.875  13.662  10.913 -0.0817  0.1922  0.0521
26509W        W41640   9.756  12.540  15.746  0.1714  0.2440  0.4536
26510W        W41641  13.810   0.033  14.645 -0.0995 -0.2228 -0.0208
26511W        W41642  14.006  11.468  13.472  0.0913  0.3630  0.2660
26512W        W41643   8.181   7.895   4.476  0.1272 -0.1192  0.1779
26513W        W41644   7.530  14.589   1.301 -0.2342  0.2694 -0.1519
26514W        W41645  11.987   9.576   0.944  0.1379  0.0513 -0.4228
26515W        W41646  18.013   1.342  14.574 -0.0165  0.2290  0.1318
26516W        W41647  10.617  10.004   4.508  0.0100  0.0617  0.3874
26517W        W41648  16.988   6.181   0.218 -0.0198  0.1596  0.1361
26518W        W41649   0.169  14.347   0.759  0.0818  0.0424  0.1312
26519W        W41650  11.518   2.897  15.625  0.0905 -0.0075  0.0564
26520W        W41651  15.828   7.041  13.844 -0.0180  0.1848 -0.1309
26521W        W41652  10.663  15.575   5.871  0.0832 -0.3311  0.2343
26522W        W41653   9.794  15.011  11.032  0.0608  0.1465 -0.1977
26523W        W41654  10.740  10.976  14.245 -0.0991  0.0752 -0.3587
26524W        W41655  10.697  13.266  16.126 -0.2395 -0.4396  0.1359
26525W        W41656   2.660   2.915  14.429 -0.0798  0.0916 -0.3162
26526W        W41657   6.594  16.831   3.848  0.0611  0.1354 -0.0596
26527W        W41658   8.346  12.444   2.474  0.1437 -0.0767 -0.1503
26528W        W41659   8.830   7.157  11.851 -0.1109  0.3398  0.0450
26529W        W41660   9.553  14.296   3.756 -0.0682 -0.2713 -0.1545
26530W        W41661  12.714  15.992  12.284 -0.1473  0.4776  0.1960
26531W        W41662   8.676   3.256  14.558  0.1160 -0.0781  0.2337
26532W        W41663   5.014  12.652   0.257 -0.0402  0.0912 -0.1019
26533W        W41664  15.393   3.417  11.564 -0.0920  0.0838  0.1992
26534W        W41665  11.104   6.425  15.124  0.0163 -0.0568 -0.0304
26535W        W41666  15.807   9.712  11.334  0.0973 -0.1148  0.2512
26536W        W41667  11.300   2.676  13.380 -0.0050 -0.0030 -0.1521
26537W        W41668   8.885   8.616   0.688  0.0221  0.1305  0.3004
26538W        W41669   6.655  16.398   2.902  0.1998  0.2936  0.1896
26539W        W41670  15.131  13.884  14.736 -0.1356  0.3869 -0.0580
26540W        W41671   7.508  17.109   4.029 -0.1989 -0.1417  0.0348
26541W        W41672  13.343  17.887  13.296  0.1375  0.1401 -0.0452
26542W        W41673   4.597  16.676  15.318  0.1130 -0.1559  0.0239
26543W        W41674  17.625   0.119   1.885 -0.0924  0.2052  0.2018
26544W        W41675  11.073   0.471  14.976 -0.1682 -0.3427 -0.3491
26545W        W41676   3.910   3.368   0.552 -0.3760  0.0302 -0.1689
26546W        W41677  15.431   9.344   3.327  0.0559  0.1940  0.1919
26547W        W41678   1.044  14.253   1.100  0.1631 -0.0781 -0.1884
26548W        W41679   9.088  10.580  14.483  0.2027 -0.2149 -0.1075
26549W        W41680   1.285  10.853   4.402  0.1569 -0.0473 -0.3374
26550W        W41681   6.927   4.979  12.065  0.1093 -0.0657  0.1184
26551W        W41682   0.299   7.290   2.723 -0.2021  0.2583 -0.2095
26552W        W41683  10.716   8.091  13.838  0.1507 -0.1212  0.2413
26553W        W41684  17.822   0.173   0.903  0.4566 -0.1746  0.0055
26554W        W41685  17.162   1.674   5.733  0.0673  0.2064  0.0429
26555W        W41686   6.841   5.741  11.276  0.1191 -0.0228  0.1280
26556W        W41687   3.249  12.435   5.063 -0.0722  0.0898 -0.0219
26557W        W41688   8.919  16.465  15.061 -0.3512 -0.1359 -0.1809
26558W        W41689   8.905   4.761  15.721 -0.2901 -0.1665 -0.0356
26559W        W41690   1.437  10.708   3.374 -0.1199  0.0076  0.0471
26560W        W41691  13.011   9.678   2.123  0.0318 -0.2401  0.0300
26561W        W41692   8.121  17.221   6.083 -0.0989 -0.0768 -0.1858
26562W        W41693  11.105  17.287   2.936 -0.0762  0.0733  0.4174
26563W        W41694   8.894   7.973  13.634  0.0468 -0.0418  0.4605
26564W        W41695  13.540   7.374   4.337 -0.0493 -0.1052  0.3828
26565W        W41696  10.105   7.171   3.362  0.1979 -0.0097 -0.0588
26566W        W41697   9.078   9.399   3.037  0.2244 -0.4521  0.1288
26567W        W41698  14.117  14.299   4.919 -0.1688 -0.1992  0.0517
26568W        W41699   1.030   1.998  15.809  0.3149 -0.0233 -0.1250
26569W        W41700  10.168   5.187  16.172  0.2074 -0.2429  0.0326
26570W        W41701  17.856   0.538   1.645 -0.0170  0.0361 -0.2602
26571W        W41702   8.456   1.674   3.862  0.2925  0.2379  0.0688
26572W        W41703  10.601   4.405   4.760  0.1593  0.0482  0.0178
26573W        W41704   2.698   6.986  15.818 -0.1192  0.1722 -0.1264
26574W        W41705   8.373   0.859   1.129  0.0212 -0.1819 -0.0158
26575W        W41706   1.971   4.499  13.732 -0.1278  0.1200  0.2809
26576W        W41707  14.365   9.951   1.781 -0.1370 -0.0446 -0.4487
26577W        W41708   0.894  14.144   2.654 -0.3755 -0.1005  0.3291
26578W        W41709   4.170   1.941  11.526 -0.1414 -0.0470 -0.1719
26579W        W41710   1.647   3.526   2.277 -0.0665  0.1479  0.1621
26580W        W41711   1.694   5.365   5.336  0.1313  0.1406 -0.0110
26581W        W41712   0.790   0.143   5.183 -0.1247  0.0212 -0.2288
26582W        W41713   4.336   4.222  13.279  0.1626 -0.0897  0.0553
26583W        W41714  17.446   3.918  15.914  0.1341 -0.3228 -0.1643
26584W        W41715   8.345   0.559   2.442  0.2071 -0.0251  0.1152
26585W        W41716  16.064  18.047   2.839 -0.0947 -0.0073  0.2612
26586W        W41717   7.136  13.240  13.084 -0.1355 -0.1783  0.3810
26587W        W41718  16.300  10.930  13.547  0.1584  0.0957  0.2084
26588W        W41719   5.874   0.101   4.415  0.1302  0.0309 -0.0193
26589W        W41720   2.008   7.457   3.012 -0.0930  0.5489 -0.1732
26590W        W41721  18.042   5.431   0.185 -0.2483  0.0469 -0.0624
26591W        W41722   6.038  16.914  15.048  0.0356 -0.0710 -0.4906
26592W        W41723   9.359  11.306  12.047 -0.3773  0.1849 -0.2895
26593W        W41724   6.401   4.175  13.443 -0.0864 -0.0682 -0.1496
26594W        W41725   2.845   6.676   4.620  0.0380  0.1074 -0.0558
26595W        W41726   8.651  11.985   0.954 -0.1295  0.2148  0.2100
26596W        W41727   8.135  16.208  14.059  0.1159  0.0452  0.4802
26597W        W41728   7.235   4.482  15.231  0.0552 -0.2151  0.0617
26598W        W41729   1.154   1.318   2.257  0.1031 -0.1877  0.0978
26599W        W41730   4.689   5.918  15.001  0.0219  0.0750 -0.1138
26600W        W41731  11.959   2.823  11.070 -0.2352  0.0923 -0.1222
26601W        W41732   1.514   3.511   5.348  0.2596  0.1146 -0.0663
26602W        W41733   2.677   8.264   5.136 -0.1857 -0.0602  0.0789
26603W        W41734  10.999  16.012   2.281  0.2676  0.1399  0.1179
26604W        W41735  11.072   1.847   1.078  0.0920  0.1272 -0.0994
26605W        W41736  10.810   8.937   5.965  0.1490 -0.1558  0.0039
26606W        W41737  17.005   7.824  12.719  0.3942  0.4648 -0.0536
26607W        W41738   7.520   0.952  12.908 -0.1271 -0.1785  0.1482
26608W        W41739  10.923   1.840  13.714 -0.0713 -0.1242 -0.2396
26609W        W41740   9.956   7.669  14.393  0.1831  0.1392 -0.1833
26610W        W41741   3.258   7.122   5.361 -0.0766  0.2428  0.1468
26611W        W41742  14.433   3.452  14.623  0.0576 -0.1281  0.2240
26612W        W41743  10.405   2.881  11.883 -0.1364 -0.0800 -0.3850
26613W        W41744  14.632   3.607  12.815 -0.1396 -0.1047  0.1066
26614W        W41745   9.557   2.301  14.112  0.0216 -0.0658 -0.1686
26615W        W41746  17.666   2.800  14.620 -0.0451 -0.2958  0.0602
26616W        W41747   0.950   9.145   3.664 -0.3407  0.1241  0.0822
26617W        W41748   7.234   3.793  10.804 -0.1825 -0.2083  0.1111
26618W        W41749   6.180  10.004   1.646 -0.3349 -0.2419 -0.0743
26619W        W41750   9.359   6.025   1.175 -0.3258 -0.0848  0.0779
26620W        W41751  11.289  16.431  14.263 -0.1787 -0.1375 -0.2455
26621W        W41752  10.437   9.422   1.115  0.1163  0.1070  0.1650
26622W        W41753   9.578  10.839   1.327  0.0160 -0.1087 -0.1622
26623W        W41754   1.819  12.545   2.130  0.0718  0.0652 -0.0542
26624W        W41755   3.527   3.998  11.723  0.2135  0.3562 -0.3875
26625W        W41756  11.913  10.469   5.260  0.2356 -0.1970  0.0858
26626W        W41757  12.949   6.756   4.316 -0.0871  0.0168  0.3023
26627W        W41758   9.140  14.054  16.260 -0.0904  0.0551  0.3394
26628W        W41759  11.480   0.884   4.281 -0.1969  0.2125  0.0382
26629W        W41760   9.583  14.736  14.981 -0.0862 -0.1705  0.0542
26630W        W41761   5.817   7.873  14.290 -0.1229 -0.1293  0.1707
26631W        W41762   0.929  15.825  16.407  0.2495 -0.1650  0.0134
26632W        W41763   5.914  14.108  14.170 -0.2344 -0.0677  0.1730
26633W        W41764   5.835   2.714  14.425 -0.1419 -0.0642 -0.2073
26634W        W41765  18.021  16.631   1.555 -0.1553 -0.4012 -0.0155
26635W        W41766  16.020   0.444   3.113 -0.0466 -0.0730 -0.1803
26636W        W41767   8.986  11.241  13.689 -0.0515 -0.2736 -0.0794
26637W        W41768  11.765  16.469  11.652  0.2240  0.1512 -0.0571
26638W        W41769   9.650   5.499  11.150 -0.1653  0.2335  0.1347
26639W        W41770   8.298  17.166  14.143  0.2829 -0.1147 -0.0697
26640W        W41771  13.050   1.830   2.542  0.3566  0.2771 -0.2264
26641W        W41772   3.020  11.546  16.277  0.2845 -0.3240 -0.1377
26642W        W41773  13.631   8.494   3.297  0.0060  0.0883  0.0696
26643W        W41774   6.784   6.205   2.311 -0.0927  0.0961 -0.0363
26644W        W41775   0.024  17.724   5.196  0.0480 -0.2519 -0.0113
26645W        W41776   2.401  11.570  11.389  0.2335 -0.2583  0.2580
26646W        W41777   8.928   5.702  11.942 -0.3525 -0.0117 -0.1695
26647W        W41778   4.880   4.226   0.177  0.0856 -0.0700 -0.1153
26648W        W41779   4.455   0.138  14.827 -0.0612 -0.1294 -0.3209
26649W        W41780   4.563  10.625  14.401  0.0077 -0.0647 -0.2728
26650W        W41781  17.602   7.520  11.156 -0.0603  0.5308  0.1100
26651W        W41782  10.729   1.935  15.344 -0.2090  0.2577 -0.0608
26652W        W41783  17.883   4.423   5.737  0.1322  0.1155  0.0047
26653W        W41784  10.335   2.121  15.506  0.0867 -0.4303  0.2844
26654W        W41785   7.046  16.062  13.591  0.0434  0.0217 -0.2253
26655W        W41786  12.410   8.463   5.086 -0.0478  0.2524 -0.0780
26656W        W41787  14.298   4.015  14.789 -0.0551 -0.2095 -0.1617
26657W        W41788  14.383   7.088   1.097  0.3417 -0.1276 -0.2315
26658W        W41789   0.062  11.776  15.657 -0.0084 -0.2829 -0.0724
26659W        W41790  15.647   4.332   3.176  0.2755  0.2780  0.0436
26660W        W41791  17.863  16.663   0.123 -0.3576 -0.0287  0.3740
26661W        W41792   7.581   5.310  16.157 -0.2365 -0.0838  0.2571
26662W        W41793  17.532  18.082   0.147 -0.1141  0.2341 -0.3222
26663W        W41794  14.716  12.906  15.728 -0.1775 -0.0332  0.0173
26664W        W41795  13.552   1.425   3.871 -0.2313 -0.0856 -0.4165
26665W        W41796  13.753  12.908  16.028  0.0923  0.2487 -0.3978
26666W        W41797   2.331   0.008   4.512 -0.2768  0.2130 -0.0292
26667W        W41798   5.536   1.291   2.817  0.1206 -0.4658  0.3852
26668W        W41799  10.262   8.243  12.425 -0.0434 -0.0983 -0.1097
26669W        W41800   5.772   9.645  13.844  0.2035 -0.0460 -0.1257
26670W        W41801  17.589   4.075   3.007  0.3386  0.1089  0.0380
26671W        W41802   2.657  10.488   5.094  0.0342 -0.2626 -0.1484
26672W        W41803  15.048   6.482  13.171  0.2408 -0.0672  0.0736
26673W        W41804   6.215  16.691  12.790  0.3559 -0.1452  0.1006
26674W        W41805   5.852  11.371  15.288  0.2373  0.2452  0.2235
26675W        W41806   3.873  13.577   0.658  0.0612 -0.1011 -0.0412
26676W        W41807   2.596  16.540   4.277  0.0170 -0.0655  0.1227
26677W        W41808  11.860  15.901   0.021  0.1421  0.1886  0.1096
26678W        W41809   3.192   7.152   1.627 -0.3396  0.3475  0.0046
26679W        W41810  11.896  16.540  12.213 -0.1242  0.2343 -0.1677
26680W        W41811   5.310   7.735  12.182  0.0130 -0.0610  0.1633
26681W        W41812   6.037   8.294   5.758 -0.0805  0.3017  0.1970
26682W        W41813   6.205   7.430  15.261  0.0499 -0.0962 -0.1712
26683W        W41814   9.434   2.562  15.429  0.3010 -0.2210 -0.2264
26684W        W41815   8.818  15.764   5.148 -0.1796  0.2915 -0.0422
26685W        W41816   9.957   8.393  10.861  0.0015  0.0778  0.0152
26686W        W41817   9.913   9.681   2.981  0.2134  0.0798  0.0218
26687W        W41818   4.879   0.648   1.753 -0.0389 -0.0219  0.0292
26688W        W41819  10.594   4.432  16.128 -0.1045  0.1800  0.0694
26689W        W41820  17.960   2.799   3.915 -0.1354 -0.0214 -0.1245
26690W        W41821   8.569   4.441   1.368  0.2159  0.1444 -0.1100
26691W        W41822  14.100   6.044  13.016 -0.2085 -0.2370  0.0460
26692W        W41823  11.797  11.979   5.450  0.1160 -0.3596  0.1424
26693W        W41824  14.582   9.412   1.740 -0.1347  0.0037 -0.1071
26694W        W41825   0.037   3.949  14.755 -0.1695  0.0139 -0.1020
26695W        W41826   4.187   4.576  13.726  0.3634  0.2171  0.0901
26696W        W41827   1.928   8.623   2.870 -0.1928  0.0117 -0.0047
26697W        W41828  12.815   0.324   5.181 -0.1863  0.0988  0.0383
26698W        W41829  11.097   9.658  14.465  0.1224 -0.3548  0.0988
26699W        W41830   6.840   3.459  13.156 -0.0197  0.1399 -0.2218
26700W        W41831   1.358   0.689   0.687 -0.1176  0.1354 -0.2440
26701W        W41832   1.305   6.610  14.135  0.0680  0.0260 -0.0085
26702W        W41833   0.095  11.638   3.624  0.0825  0.0498 -0.0293
26703W        W41834  11.127  12.580  10.253 -0.1029 -0.1840 -0.0909
26704W        W41835  13.679   0.061   2.381 -0.2096 -0.1164  0.1368
26705W        W41836  16.201   4.176  10.948  0.0379  0.0215  0.1720
26706W        W41837   9.143   5.799   4.127 -0.0929  0.0419  0.0995
26707W        W41838   8.603   8.878   2.342  0.3291 -0.3708 -0.0814
26708W        W41839   0.566   4.385   0.587 -0.0352  0.5485 -0.0532
26709W        W41840   2.055  13.130   2.970 -0.0588  0.4285  0.0993
26710W        W41841  15.737   6.872   2.069 -0.0256 -0.0758  0.1433
26711W        W41842   9.734  10.400   2.118 -0.1447 -0.2235  0.4368
26712W        W41843  17.440  17.951  12.941  0.0423  0.0811  0.0867
26713W        W41844   5.074   6.144   0.762 -0.1440 -0.0050  0.2294
26714W        W41845  17.403  13.439   6.350 -0.2083 -0.2266  0.0571
26715W        W41846   5.567  15.037  13.664 -0.0339 -0.0144  0.0912
26716W        W41847  14.333  14.415   1.337 -0.3030  0.4623 -0.1690
26717W        W41848   6.171   2.397  14.246 -0.1544  0.0808 -0.0161
26718W        W41849   6.124  11.030   5.563 -0.0626 -0.0098  0.1277
26719W        W41850   4.717  16.836  12.754  0.0702  0.0402  0.0690
26720W        W41851  14.844  13.379   6.000  0.2037 -0.0276 -0.0859
26721W        W41852  10.794  14.194  12.358  0.1250 -0.1279 -0.2618
26722W        W41853   3.089  15.506  13.936 -0.1378 -0.0230  0.1381
26723W        W41854   4.390  13.907  15.768 -0.1076 -0.1970  0.3394
26724W        W41855  11.245  16.295  15.089 -0.1216  0.2516 -0.2111
26725W        W41856   1.446  12.929   3.779 -0.0579  0.1183  0.2342
26726W        W41857   5.558  13.947   2.054 -0.2772  0.2371  0.0300
26727W        W41858  10.373  15.611  12.493 -0.1821  0.0176 -0.0048
26728W        W41859   9.373   9.995  15.123 -0.0205  0.0816  0.1202
26729W        W41860   9.839  15.515  13.739 -0.1433 -0.2249  0.1430
26730W        W41861   0.297   0.420   1.710  0.2711  0.0238 -0.0354
26731W        W41862   7.296  10.044  13.890  0.0813 -0.1100  0.1109
26732W        W41863   9.341  17.545   1.956  0.1470 -0.0672  0.0830
26733W        W41864   3.693  16.043  15.813  0.2064  0.2071  0.3410
26734W        W41865   2.065  11.388  10.134  0.1340  0.0899  0.0975
26735W        W41866   9.963   0.317  15.505  0.2691 -0.0233 -0.0327
26736W        W41867   7.285  12.546   0.412  0.2871 -0.1933  0.0091
26737W        W41868   3.726   0.853  15.594  0.0940  0.3407 -0.0966
26738W        W41869   2.122  14.377  14.390  0.1852 -0.0740  0.2206
26739W        W41870   5.586   1.574  11.934 -0.0923  0.1835 -0.1880
26740W        W41871  11.610   1.681   2.240 -0.4229 -0.0149 -0.0690
26741W        W41872   5.439   2.972  16.020 -0.2064 -0.0204  0.1328
26742W        W41873   0.225  14.559  15.882  0.0269  0.0152 -0.1141
26743W        W41874   3.976  12.324  12.119 -0.4335 -0.1311  0.0286
26744W        W41875  11.683   2.714  15.031  0.0393  0.0319  0.0873
26745W        W41876   3.237  16.577  15.693 -0.2889 -0.0348 -0.1150
26746W        W41877   1.481   7.579   4.232 -0.2588  0.2180  0.5371
26747W        W41878   0.710  17.293   1.821 -0.2305  0.1233 -0.0352
26748W        W41879   2.132  12.540  15.794  0.0708 -0.1766  0.1230
26749W        W41880   6.770  12.509   0.139 -0.2446 -0.1184 -0.1282
26750W        W41881  16.879  15.652   4.105  0.1505  0.2717 -0.0992
26751W        W41882   5.003   8.586   0.714 -0.1335 -0.1237  0.1136
26752W        W41883  16.924   9.445   4.185 -0.1483  0.0747 -0.3338
26753W        W41884   6.345   9.745   3.115 -0.1207 -0.3594  0.0030
26754W        W41885   4.053  11.859  14.382 -0.4490 -0.0281  0.0738
26755W        W41886   1.265   4.840   0.611 -0.2690  0.0329  0.0168
26756W        W41887   8.463   0.945   0.526  0.1072 -0.1846 -0.3010
26757W        W41888   4.643   5.088  15.522 -0.0847  0.1145 -0.0473
26758W        W41889  11.838   0.765   2.150  0.2503 -0.0658  0.3290
26759W        W41890  16.520  17.776   5.162 -0.0716  0.0276  0.0447
26760W        W41891  16.228   2.844   4.907 -0.2296 -0.0453  0.1311
26761W        W41892  15.056   9.172   1.799 -0.2301  0.0435 -0.3456
26762W        W41893   5.255  11.254   4.640 -0.2549  0.1037 -0.1237
26763W        W41894  16.660  15.733  12.667  0.0765 -0.2259  0.0235
26764W        W41895   2.949  16.856  14.241  0.1438 -0.0624  0.0455
26765W        W41896   7.607  17.803  12.895 -0.1655  0.3062 -0.0466
26766W        W41897   4.967   7.790   4.900  0.2029 -0.0839 -0.2148
26767W        W41898   9.984  10.592  11.333  0.2567  0.1051 -0.0144
26768W        W41899   5.713   5.908  11.695 -0.0202  0.0489 -0.3322
26769W        W41900   1.223   2.527  12.327 -0.1246 -0.0310  0.2294
26770W        W41901   2.342   9.009   3.689  0.1858 -0.3479  0.1775
26771W        W41902   0.715  13.813  12.407  0.0967 -0.0748  0.0870
26772W        W41903  11.049  11.750  15.245 -0.0104  0.0421 -0.4079
26773W        W41904  15.637   8.856  12.221  0.0087  0.0654 -0.0928
26774W        W41905  17.231  14.159  13.360 -0.0917 -0.0740 -0.0722
26775W        W41906  17.795  17.483  14.120 -0.1535  0.1230 -0.0976
26776W        W41907  10.574  10.335   0.453  0.0280  0.2300 -0.3188
26777W        W41908  15.479  15.878   0.378 -0.0629 -0.1023 -0.0270
26778W        W41909   5.868  10.431   3.278 -0.0221 -0.2482  0.2203
26779W        W41910  12.642  16.144   3.725 -0.2790 -0.2505  0.0739
26780W        W41911  17.884  11.704  16.401 -0.1401  0.2317  0.1376
26781W        W41912   8.344  15.127  16.058 -0.0242 -0.0767 -0.1722
26782W        W41913  10.557  16.953   1.388  0.0470  0.0419  0.2452
26783W        W41914  11.272   0.741   4.790  0.0221  0.2666 -0.3081
26784W        W41915   9.308   2.803   4.379  0.1150 -0.0861  0.0197
26785W        W41916  10.763  11.700   1.201  0.1301 -0.0038 -0.1954
26786W        W41917  16.607  14.707  12.533 -0.4233 -0.2188 -0.0813
26787W        W41918  11.170  12.803  12.495  0.0922  0.0811 -0.1226
26788W        W41919   2.889  12.218  13.902 -0.2731 -0.1056 -0.1202
26789W        W41920  16.595  12.127   1.170 -0.0779  0.0131  0.2477
26790W        W41921   0.105   9.200   2.590  0.3107  0.0408 -0.1699
26791W        W41922  17.001   4.140   2.735  0.0633 -0.2579 -0.1745
26792W        W41923   8.598   4.102  16.164  0.3487 -0.1405  0.0736
26793W        W41924   3.202   7.837  13.829 -0.0079  0.2328  0.1215
26794W        W41925  13.909   4.695   0.082 -0.3351 -0.2665 -0.3151
26795W        W41926   5.916   4.575   5.161 -0.0194  0.2746  0.1634
26796W        W41927  14.881  15.011  11.746 -0.0354 -0.0161 -0.0987
26797W        W41928   2.867  14.471   2.455 -0.0710 -0.1269 -0.0793
26798W        W41929  10.328   1.216  14.057 -0.1194 -0.1515 -0.0183
26799W        W41930  11.373   3.301  13.261 -0.0126  0.1271  0.0327
26800W        W41931   0.027   8.994   4.108  0.1932 -0.1441  0.0128
26801W        W41932   9.859   6.326   5.756  0.0110 -0.4690  0.1141
26802W        W41933   2.611   0.906   5.476 -0.0932  0.0544  0.1893
26803W        W41934   6.951   8.712   0.790  0.0376  0.3401  0.1025
26804W        W41935  14.774  13.849   4.589  0.0987 -0.1782 -0.1573
26805W        W41936   1.360   7.797   0.544 -0.0758 -0.4628  0.0022
26806W        W41937  15.456  11.151  14.724  0.0782  0.0455  0.0776
26807W        W41938  11.549   3.363  15.407 -0.0080  0.2226 -0.1412
26808W        W41939   5.357   2.440   0.152  0.1609 -0.5846  0.1401
26809W        W41940   9.547   4.541  10.924  0.1060 -0.2840 -0.1114
26810W        W41941   6.265  15.467  14.036  0.1726  0.2505  0.2402
26811W        W41942   2.564  16.394  12.287 -0.1279  0.0703 -0.0215
26812W        W41943   3.679   5.642   5.482 -0.1288 -0.3241 -0.0282
26813W        W41944  11.137   8.365   5.232 -0.0909 -0.0244  0.1982
26814W        W41945  12.143  12.200   2.068 -0.1677 -0.2925  0.1953
26815W        W41946  17.744  16.851  12.231 -0.0647  0.0397  0.2135
26816W        W41947   6.993  13.711  12.949  0.3654  0.3383 -0.4605
26817W        W41948   7.447   2.164   4.236 -0.0576  0.1541  0.1839
26818W        W41949  16.650  16.990   2.490  0.0474  0.1211 -0.0342
26819W        W41950  15.630  13.276   5.305  0.4338 -0.2647  0.1556
26820W        W41951  15.187   8.685  12.827 -0.0882 -0.3039 -0.4735
26821W        W41952  17.614   1.319  14.939 -0.2306 -0.2362  0.0869
26822W        W41953   5.839  17.793   1.430 -0.3201  0.2634  0.3938
26823W        W41954  14.558  14.807  14.934  0.4326 -0.0135  0.2195
26824W        W41955  13.890   9.775   4.261  0.1321  0.1815  0.1932
26825W        W41956   1.246   9.978  14.447  0.0902  0.0705  0.0502
26826W        W41957   7.876   6.919  12.297 -0.2471 -0.0699 -0.0442
26827W        W41958  16.927   0.689  12.901 -0.0604 -0.1311 -0.0193
26828W        W41959  12.355   0.805   1.492  0.0718 -0.0751  0.5299
26829W        W41960   8.749   7.788   2.741  0.0974  0.1057  0.1174
26830W        W41961  10.528   7.893  12.693  0.2083 -0.2035 -0.1491
26831W        W41962   9.851  14.032   2.805 -0.1978  0.3638 -0.0611
26832W        W41963   1.216   9.042   2.275 -0.2842 -0.1118 -0.0457
26833W        W41964   1.896   2.382  12.853  0.2710  0.2562  0.3030
26834W        W41965   8.106   2.709   0.855  0.0389  0.1286 -0.1690
26835W        W41966   6.161   2.156   3.614 -0.5546 -0.2769 -0.0271
26836W        W41967   5.449   9.170   2.715  0.0511 -0.0736  0.0749
26837W        W41968  17.337  11.214  11.849  0.0326  0.0508 -0.1063
26838W        W41969  15.859  10.528   3.638 -0.0277 -0.5195 -0.0341
26839W        W41970   1.419  14.401  11.902  0.2691  0.2436 -0.1507
26840W        W41971  15.410  13.924  15.794  0.4252 -0.0239 -0.4467
26841W        W41972   1.059  10.198  15.536  0.0454 -0.4171  0.1197
26842W        W41973  16.822   4.674  12.357  0.1717  0.2295 -0.0327
26843W        W41974   4.814  12.825   3.359 -0.1051 -0.1543 -0.1574
26844W        W41975  10.711  15.169   0.030  0.1294 -0.2537 -0.1102
26845W        W41976  12.678   2.826   1.542  0.2389  0.0259  0.1309
26846W        W41977  11.052  13.716  13.109 -0.2997  0.1546 -0.1847
26847W        W41978   6.744  13.934  11.672  0.3636  0.0502 -0.2749
26848W        W41979  17.215   5.072  14.432  0.2061 -0.1228 -0.0646
26849W        W41980  14.193   5.295  15.413 -0.2627 -0.2026 -0.0516
26850W        W41981  15.557  14.132   1.930  0.0906 -0.2385 -0.0944
26851W        W41982  12.130  11.918   1.273 -0.0958  0.2047 -0.3504
26852W        W41983  10.306  16.257   3.329 -0.2504  0.0814  0.1643
26853W        W41984   9.637   8.328   0.574 -0.0292 -0.2507 -0.0114
26854W        W41985  12.300   5.266   6.347  0.2826  0.0480  0.0414
26855W        W41986  10.466  11.702   3.030 -0.1764  0.1846 -0.1558
26856W        W41987   3.260  17.219   6.034 -0.2151  0.0987  0.4304
26857W        W41988  10.000  10.684   4.249 -0.1987  0.1267 -0.0187
26858W        W41989   2.588  14.215  14.052  0.0650  0.0792 -0.0390
26859W        W41990   7.767   3.840  12.986 -0.0180  0.1116 -0.0758
26860W        W41991   6.544   5.374   1.352 -0.1113  0.1323  0.3157
26861W        W41992  12.544   5.295   1.224  0.0209  0.3029  0.0341
26862W        W41993  15.752   8.652   0.650  0.0454  0.1909 -0.0410
26863W        W41994   3.701   6.796   1.062  0.3582  0.1984  0.0570
26864W        W41995   5.572   0.543   4.255 -0.0404 -0.0550 -0.0275
26865W        W41996   9.516   7.649   3.805 -0.0268 -0.0149 -0.1897
26866W        W41997  11.950  15.860   4.835  0.1016  0.0433  0.0182
26867W        W41998  10.436  10.053   2.869  0.0631  0.4961 -0.2728
26868W        W41999  12.247   1.382  16.443 -0.0607 -0.2805  0.2577
26869W        W42000  15.241  10.333  14.987  0.3032 -0.0725  0.3165
26870W        W42001   6.497   9.360  14.345  0.2827 -0.2168 -0.1371
26871W        W42002   5.755   5.252   2.841  0.0757  0.1260  0.3450
26872W        W42003  14.414   0.632   1.295 -0.1152  0.1041  0.1364
26873W        W42004  12.355  14.823   4.799 -0.0047  0.1865 -0.1884
26874W        W42005   7.597  13.856   0.231  0.0499  0.0242 -0.2658
26875W        W42006  11.519  16.243  15.577  0.0531 -0.2537  0.3687
26876W        W42007   5.985  10.981   2.447 -0.0390  0.2045 -0.0090
26877W        W42008   1.013   9.236   0.643  0.1002 -0.1842  0.0314
26878W        W42009  10.119  10.856   2.957 -0.1730 -0.2074 -0.0783
26879W        W42010   6.014   8.448  11.909  0.0008 -0.2016  0.0326
26880W        W42011   1.390  11.161   2.025 -0.3429  0.2981 -0.2356
26881W        W42012   6.546  11.857   1.456 -0.0618  0.2834  0.2286
26882W        W42013   6.597  15.154  11.892  0.0827  0.1869  0.1149
26883W        W42014   9.427   6.178   4.997  0.1120  0.0291  0.1062
26884W        W42015   5.622  16.451  12.700 -0.0514 -0.4124 -0.1045
26885W        W42016  14.619  17.328  15.447 -0.0938 -0.1990 -0.1767
26886W        W42017  11.858   2.631   0.751  0.0391  0.0947  0.0352
26887W        W42018  10.119   0.676  15.167 -0.0759  0.0603  0.0574
26888W        W42019   4.274   0.789   0.423  0.2040  0.2165  0.4403
26889W        W42020  16.726   4.590  15.678 -0.2193 -0.2076 -0.0185
26890W        W42021   0.775   3.292   4.176 -0.1314 -0.1201  0.2698
26891W        W42022  16.864   1.087   0.151  0.0441 -0.4773  0.0481
26892W        W42023   8.472  13.689  15.944 -0.1234 -0.3018 -0.1087
26893W        W42024  13.709   3.411   2.836 -0.3551  0.0448 -0.0675
26894W        W42025   4.413  10.193   2.381 -0.0631 -0.1746 -0.2202
26895W        W42026   1.644   2.206   2.001 -0.3106 -0.0559 -0.0522
26896W        W42027   7.067   5.263  15.847  0.0690 -0.0340 -0.0682
26897W        W42028   6.092   6.897  14.598 -0.1488 -0.0141 -0.1771
26898W        W42029   3.528   4.124   3.216 -0.0360 -0.1077  0.1748
26899W        W42030   9.141  15.315   3.776  0.1648 -0.2337  0.4285
26900W        W42031   3.186   4.303  14.555  0.1108 -0.1884 -0.1472
26901W        W42032   0.267  14.077   0.312  0.2484  0.1968  0.0160
26902W        W42033  15.492   3.303  12.981 -0.0390 -0.3143 -0.2124
26903W        W42034  17.723   5.092   4.195  0.1788  0.2538  0.1409
26904W        W42035  17.553  10.216  13.241 -0.2247  0.2102 -0.2151
26905W        W42036   9.892  10.531   1.606  0.0371 -0.2265  0.3400
26906W        W42037   2.745  15.033   2.317 -0.4133  0.0873 -0.1430
26907W        W42038   3.039   3.347  10.923  0.0816 -0.0687 -0.0713
26908W        W42039   7.706   4.765   1.086  0.1641 -0.1600  0.3402
26909W        W42040   2.976   2.529   3.368  0.0489  0.1872 -0.1294
26910W        W42041   7.049  14.753   0.309 -0.4467 -0.0839 -0.2321
26911W        W42042   2.599  17.629  12.397 -0.1078  0.1533  0.2674
26912W        W42043   1.752   9.044   0.142 -0.0915  0.1002  0.1811
26913W        W42044  10.922  13.411  10.232  0.0970  0.1628  0.1459
26914W        W42045   8.921   3.818  15.277 -0.3021 -0.3291  0.0170
26915W        W42046   8.142  16.453   1.846 -0.2900 -0.1558 -0.0526
26916W        W42047  12.597  12.546   2.559 -0.1108  0.1589 -0.0109
26917W        W42048  11.739  11.596  15.681 -0.1424  0.1108  0.1818
26918W        W42049  14.390  15.738   0.076 -0.3512  0.1024  0.1057
26919W        W42050   7.230  13.646   3.981 -0.2089  0.1427 -0.0688
26920W        W42051  10.892  13.619   5.873  0.1303  0.0512  0.2048
26921W        W42052   8.492   5.715   2.402 -0.2758  0.2852 -0.0493
26922W        W42053   7.741   9.518  15.158  0.1167  0.0931 -0.2087
26923W        W42054  17.098  16.909   2.253  0.2169 -0.1666  0.1123
26924W        W42055  13.076   3.974  14.982  0.1371 -0.1820  0.0461
26925W        W42056   7.008   8.089  15.407 -0.1970 -0.2236 -0.0022
26926W        W42057  17.673   7.529  12.325 -0.0408 -0.0253  0.1514
26927W        W42058   6.145   1.536  11.725  0.1383 -0.0658 -0.1062
26928W        W42059  13.967   3.370   1.391  0.0675  0.3348 -0.1388
26929W        W42060   7.663   2.259  14.006  0.2034 -0.1179 -0.2466
26930W        W42061  13.218   1.288  14.732 -0.3374  0.1110  0.3548
26931W        W42062   6.184  10.047   0.655  0.1252  0.1304  0.0698
26932W        W42063   3.158  12.561  14.220 -0.0005  0.3111  0.0361
26933W        W42064   9.091   6.835  15.232 -0.0856  0.1688  0.2529
26934W        W42065   6.221  17.206  12.472  0.0443  0.2247  0.0105
26935W        W42066   3.351  16.931   3.958  0.1933 -0.1101 -0.0996
26936W        W42067   8.957   7.621  12.075 -0.0934  0.0767  0.1402
26937W        W42068  12.314  10.864  12.203 -0.1878  0.2994 -0.0961
26938W        W42069  13.250  13.168   4.935  0.0077 -0.2565 -0.0682
26939W        W42070  15.461   2.888   1.355  0.1772  0.2972  0.1157
26940W        W42071  13.986   1.045  13.009 -0.0603 -0.1479  0.0361
26941W        W42072  14.610   5.793  13.936 -0.2036  0.0761 -0.3581
26942W        W42073  17.926   7.519   2.454  0.2052  0.1613 -0.0758
26943W        W42074  16.676  13.549   5.211 -0.0138  0.0283  0.1444
26944W        W42075   4.732   6.359   9.938 -0.0542  0.1294  0.1962
26945W        W42076  12.923   9.776  14.926  0.1490  0.2325  0.0130
26946W        W42077   9.144   0.012  15.599  0.2382  0.1853  0.1159
26947W        W42078   1.699  12.580  13.550  0.1310 -0.1377  0.1323
26948W        W42079   1.435   3.284  12.051  0.4414  0.4593  0.0096
26949W        W42080   7.185   6.256   4.935 -0.0326 -0.0176  0.0468
26950W        W42081   1.065  16.349   2.971 -0.1999 -0.2838  0.0347
26951W        W42082  11.965  14.025   1.287 -0.1419  0.1244 -0.0128
26952W        W42083   0.186   9.017  14.504 -0.0577 -0.1099  0.4048
26953W        W42084   0.544  17.092   1.251 -0.1649  0.1683  0.0332
26954W        W42085   4.515  17.063  13.163 -0.0602 -0.3559 -0.1923
26955W        W42086  11.237   3.295   0.832 -0.0934  0.1343 -0.2053
26956W        W42087  10.123  11.805  11.429 -0.4293 -0.1679  0.0924
26957W        W42088  16.993   3.612  11.958  0.0818  0.1301 -0.1661
26958W        W42089   4.912  14.160   1.926  0.0575 -0.0623 -0.2387
26959W        W42090   9.630   0.896  13.515  0.0681  0.0766 -0.1531
26960W        W42091  17.460   9.473   5.158 -0.2027 -0.1341  0.1177
26961W        W42092  15.607  11.781   3.963  0.1661 -0.1238  0.0126
26962W        W42093  11.297  17.536   5.240 -0.1100  0.1067 -0.1499
26963W        W42094  12.210  17.325   1.819 -0.1639  0.3231  0.2067
26964W        W42095   6.808   5.460  10.269 -0.0078 -0.0614 -0.2008
26965W        W42096  14.581  16.137  13.302 -0.0641 -0.1666  0.2006
26966W        W42097   0.613   8.384  13.297 -0.0665  0.1289  0.0785
26967W        W42098   3.315  14.543  12.337  0.1044  0.0013  0.1472
26968W        W42099  15.612  16.333   0.607  0.0511 -0.2482  0.0142
26969W        W42100   6.817  15.074  15.643 -0.2710  0.2431 -0.1111
26970W        W42101   2.164  14.013   3.172 -0.1693 -0.1960  0.0821
26971W        W42102   2.251  10.517  10.678  0.0594 -0.2693 -0.1168
26972W        W42103   2.094   2.365   2.145  0.4148 -0.0996  0.1623
26973W        W42104  11.191  12.985   4.251 -0.2179 -0.0876 -0.2317
26974W        W42105  17.904   4.302   2.301 -0.0174  0.2682 -0.0475
26975W        W42106   3.224   1.627   5.315 -0.0743 -0.0884  0.1631
26976W        W42107  11.838   1.180   4.448 -0.2319 -0.0972  0.0988
26977W        W42108   4.078  12.440   2.815  0.2243  0.3283  0.1559
26978W        W42109  11.202  12.327  12.787 -0.3738  0.1130 -0.0540
26979W        W42110   1.984   1.644  14.163  0.0588  0.2737  0.0160
26980W        W42111   4.291  11.684   4.947  0.2476 -0.1847  0.4609
26981W        W42112   2.495   3.132  16.347 -0.0367 -0.1789  0.0788
26982W        W42113  13.180  15.846   2.415 -0.2863  0.0014  0.2631
26983W        W42114  14.547  10.602  13.453 -0.2352 -0.0034 -0.0615
26984W        W42115   4.147  12.206  14.928 -0.0833  0.2676  0.0502
26985W        W42116  13.859   9.459  11.782 -0.1148 -0.0886  0.3883
26986W        W42117   1.446   4.750  13.751  0.0010 -0.0624 -0.2530
26987W        W42118  14.137  12.842   3.134 -0.2187  0.1536  0.1564
26988W        W42119  15.842   5.241  16.115  0.2129 -0.1572 -0.1361
26989W        W42120  10.271   4.085   3.521 -0.0599  0.2397 -0.1572
26990W        W42121  17.581  17.161  13.188 -0.0025  0.1781 -0.0286
26991W        W42122   3.516   3.108   0.262 -0.3307 -0.1817 -0.3376
26992W        W42123   7.212   4.035  15.902  0.0025  0.0215 -0.0196
26993W        W42124  14.107   0.821  12.251 -0.1157 -0.1490  0.1829
26994W        W42125   1.381   2.602  14.448 -0.2245  0.0995  0.2588
26995W        W42126   4.954   1.959   0.377  0.2226 -0.0168 -0.0797
26996W        W42127  10.675   3.299  12.432 -0.1017 -0.1642 -0.1634
26997W        W42128  14.824   7.177  14.918  0.0723  0.1429  0.1949
26998W        W42129  17.145   1.023  13.564  0.0820 -0.2716  0.2088
26999W        W42130   9.167  13.516   4.199 -0.0115  0.1724  0.2029
27000W        W42131   1.638  11.061  12.483 -0.0524 -0.1647  0.0995
27001W        W42132   9.969   9.674  14.391 -0.1658  0.1413 -0.2535
27002W        W42133  16.407   8.252  13.915  0.2188 -0.2043  0.0114
27003W        W42134   5.423  14.775   5.950  0.0681  0.0636 -0.0141
27004W        W42135   2.414  12.393   4.562 -0.0127  0.0685 -0.1361
27005W        W42136   9.839   6.361   5.235  0.0772 -0.0399  0.0893
27006W        W42137   4.530  11.188  14.700  0.0138  0.0046 -0.1552
27007W        W42138   4.045   6.260   4.718  0.2789  0.2131 -0.1412
27008W        W42139   5.490  16.197  13.178 -0.0073  0.1981  0.2488
27009W        W42140   5.442  11.849   1.679 -0.0860 -0.2578 -0.2019
27010W        W42141   1.534  11.860  11.264  0.0561  0.1908 -0.0689
27011W        W42142   6.388   2.439   3.266 -0.1505 -0.0198 -0.2478
27012W        W42143   7.773  13.662  14.324 -0.2754  0.0342 -0.0776
27013W        W42144  12.754   4.135   2.212  0.2026 -0.1590 -0.0490
27014W        W42145   8.145   4.515  13.137 -0.1229  0.2000  0.0952
27015W        W42146   6.597   5.631  14.509  0.0380 -0.2531 -0.1356
27016W        W42147  16.117  18.082   4.898  0.2062  0.1234  0.1446
27017W        W42148  11.704  10.051   1.483 -0.0836 -0.0494  0.1447
27018W        W42149  14.479  15.029   2.972 -0.0707  0.2638 -0.0489
27019W        W42150  12.490   6.320  16.368  0.0720 -0.2625  0.1108
27020W        W42151  14.065   5.828   6.408 -0.1658 -0.4365  0.0715
27021W        W42152  11.534   6.374  14.219 -0.0991  0.1092 -0.2290
27022W        W42153   5.860   4.802   3.768  0.4202 -0.2157  0.0411
27023W        W42154  11.891   5.631   0.119 -0.1045  0.2140  0.0630
27024W        W42155   5.077   8.515   4.299  0.3076 -0.0139  0.2470
27025W        W42156   0.902  18.010   1.419  0.0143 -0.2114 -0.2122
27026W        W42157   8.864  14.166  15.863  0.2230  0.1635 -0.0880
27027W        W42158  10.085  16.126  15.253  0.1605 -0.2002  0.1518
27028W        W42159   0.204   9.751  12.730 -0.1229 -0.1710 -0.0430
27029W        W42160  10.216  10.437  12.466 -0.3265  0.0764 -0.1658
27030W        W42161   5.459  15.169  11.128 -0.0416 -0.0668  0.3359
27031W        W42162  13.289   6.866  11.269  0.1007 -0.1843  0.0432
27032W        W42163   9.910   1.313  15.437  0.1178  0.0753 -0.0589
27033W        W42164  12.344  13.123  12.805 -0.1243  0.2078  0.0162
27034W        W42165  11.396  11.713  14.373 -0.0302 -0.1993 -0.1849
27035W        W42166  18.081  14.560   2.655 -0.2459 -0.2463 -0.0860
27036W        W42167   5.819   4.678  12.966  0.1114 -0.1020 -0.1257
27037W        W42168  15.590   7.425   0.322 -0.3152 -0.2797 -0.1908
27038W        W42169   1.290   8.329   1.508 -0.1413  0.1718  0.0437
27039W        W42170   2.878  14.984  12.117  0.0260 -0.0577  0.1802
27040W        W42171  12.734  17.539   0.872 -0.0769  0.1322  0.2340
27041W        W42172   3.993  12.516  11.676 -0.1242 -0.0721 -0.0541
27042W        W42173  14.714  15.745   2.643 -0.3288 -0.3054 -0.0520
27043W        W42174   4.853   9.660   1.422  0.1294  0.0413 -0.0244
27044W        W42175  12.166   5.113   3.326 -0.0048  0.1179  0.0078
27045W        W42176   9.011   3.720   1.489  0.2852  0.2046  0.2385
27046W        W42177  14.733   3.029   0.351  0.1619  0.0886 -0.0718
27047W        W42178   0.099  14.323   3.174 -0.1017 -0.2232 -0.2100
27048W        W42179   9.094   0.592   0.147 -0.1773 -0.1356 -0.1860
27049W        W42180   5.083   1.699   6.007 -0.0241 -0.0258  0.1514
27050W        W42181  10.532  17.087   3.449  0.3450 -0.0034 -0.0427
27051W        W42182   9.950   9.314  11.121  0.0674 -0.1683 -0.0035
27052W        W42183  13.565   2.514  14.167  0.0824  0.1144 -0.0855
27053W        W42184   9.457   8.564   4.100  0.0893  0.0255 -0.2558
27054W        W42185  14.029   1.892   1.857 -0.0117 -0.0266  0.0560
27055W        W42186   0.633  17.764  15.843 -0.2497  0.0247 -0.2080
27056W        W42187   8.782   4.385  12.595 -0.0636 -0.0338 -0.0552
27057W        W42188  14.826   6.158  13.618  0.0579 -0.0220  0.1882
27058W        W42189   5.307  15.032   5.178 -0.3173 -0.1097  0.0946
27059W        W42190   4.645  12.475  15.005  0.2996 -0.0551 -0.0592
27060W        W42191   3.847  17.618   3.185 -0.0858  0.2206  0.2127
27061W        W42192  13.556   4.541  16.098 -0.1602 -0.1217 -0.1580
27062W        W42193   6.801   9.673   3.486  0.1081  0.2912  0.0891
27063W        W42194   2.123   6.076   1.351 -0.1532  0.2065 -0.2158
27064W        W42195   6.327  15.603   4.372 -0.1254  0.2681  0.6138
27065W        W42196  16.561  12.857  15.711 -0.1579  0.1896  0.0679
27066W        W42197  17.937  16.937   4.955 -0.0034  0.3192  0.0393
27067W        W42198  13.178  16.070   1.569  0.0897  0.1653  0.2085
27068W        W42199   5.510   2.023   5.871 -0.3781 -0.0808 -0.1031
27069W        W42200   5.398   1.665  14.787 -0.2647 -0.0153  0.2165
27070W        W42201  14.135  16.493   3.614  0.3334 -0.2632 -0.1549
27071W        W42202  12.017   6.709  12.236  0.0122 -0.1444  0.1835
27072W        W42203   5.317   0.740  14.803 -0.1845 -0.1558  0.0395
27073W        W42204   1.730   7.631   1.740 -0.0555 -0.0094 -0.0796
27074W        W42205  12.816   5.684   0.979  0.0593  0.2249  0.0424
27075W        W42206  18.062  17.613  14.924 -0.0646 -0.0295 -0.4506
27076W        W42207   9.346  10.171   4.416 -0.1144 -0.0608 -0.2142
27077W        W42208  12.864   7.259  14.486  0.0880  0.1469 -0.2264
27078W        W42209   4.344   8.604  14.823  0.1907  0.1765  0.0139
27079W        W42210  11.017   5.716  15.256 -0.1165 -0.0348 -0.0895
27080W        W42211   0.838  17.434  15.442 -0.0870  0.2643  0.1663
27081W        W42212  11.181   0.162   4.770  0.0076  0.3397  0.1753
27082W        W42213   1.808   8.655   1.485 -0.0147  0.1814  0.0573
27083W        W42214  17.390   0.548  15.245  0.0846  0.1169 -0.1064
27084W        W42215  16.920  16.949   4.848  0.3062 -0.0455 -0.0558
27085W        W42216   4.496  10.049   2.833 -0.0917  0.1630  0.0901
27086W        W42217  11.170  15.855   3.917 -0.0932 -0.0073  0.1968
27087W        W42218  14.432   9.773   3.056  0.0314  0.3507 -0.0415
27088W        W42219   3.376  12.530  15.933 -0.1468  0.0945  0.0036
27089W        W42220   9.535   1.668   5.545 -0.3074  0.2306  0.2148
27090W        W42221   9.116  10.762   5.472 -0.1039  0.0350  0.0485
27091W        W42222  12.700   0.437   2.948 -0.1098 -0.1545  0.1607
27092W        W42223   8.191   5.338  11.294 -0.3174 -0.2288 -0.4413
27093W        W42224   8.476  14.596  10.838  0.0605 -0.3719 -0.0600
27094W        W42225   0.834   2.398   0.465  0.1711  0.1931 -0.0230
27095W        W42226   8.942   9.703  16.382  0.0345 -0.0115  0.0644
27096W        W42227   1.456   7.455   4.834  0.0280 -0.0903  0.1975
27097W        W42228  10.784   8.024  12.252 -0.3457 -0.2407 -0.1950
27098W        W42229   7.069   0.648   5.534  0.0802 -0.0652  0.1251
27099W        W42230   6.516  10.111  12.219  0.1111 -0.1923 -0.1269
27100W        W42231   4.976  16.212  16.113  0.1273 -0.2630 -0.0635
27101W        W42232   0.475  17.351  14.668 -0.2577  0.0145  0.1659
27102W        W42233   8.263   5.309   1.687  0.0193 -0.2272  0.2237
27103W        W42234   2.365  10.250  11.986  0.2673 -0.1143  0.0274
27104W        W42235  10.208  12.254  14.427  0.1342 -0.5412  0.1408
27105W        W42236   1.687  12.485  15.441 -0.0062  0.2410 -0.2233
27106W        W42237   1.937  13.044   2.005 -0.1820  0.1325  0.0112
27107W        W42238   7.808   9.892   3.364 -0.1251 -0.1524  0.1206
27108W        W42239   3.589  10.718   4.555 -0.0181  0.1363  0.1008
27109W        W42240  15.552   6.676  13.549 -0.0488  0.2091  0.1481
27110W        W42241   9.126   2.072   2.712  0.0621  0.0072  0.1054
27111W        W42242   1.338   7.136  14.355 -0.3276 -0.2205  0.1284
27112W        W42243  12.526  13.059   3.372  0.0975  0.0515 -0.2999
27113W        W42244  11.533  15.321  11.620  0.0611  0.2616  0.3055
27114W        W42245   3.888  11.173  15.007 -0.0673  0.1599  0.1555
27115W        W42246   2.756  17.120  12.487  0.2760 -0.1734  0.1164
27116W        W42247   9.648   7.524  11.512  0.1936 -0.3657  0.2704
27117W        W42248  11.295   7.770   4.848  0.0523 -0.2339 -0.2543
27118W        W42249   7.048   6.662  14.475 -0.0153  0.1441  0.3433
27119W        W42250   0.044   6.742  13.403  0.3036  0.1124  0.1630
27120W        W42251   5.514  17.792   4.465 -0.3421  0.3326  0.1739
27121W        W42252   8.148   2.041   3.632  0.0240  0.0023 -0.2133
27122W        W42253  10.435  10.680  10.977  0.3628 -0.0017  0.1927
27123W        W42254  16.524   5.304   5.638  0.2720  0.0771  0.0241
27124W        W42255   0.160  16.371   3.940  0.1153  0.2037 -0.2021
27125W        W42256   7.744   4.479  11.104 -0.1020  0.2306 -0.3709
27126W        W42257   8.344  14.141  10.944  0.1980  0.2189 -0.0166
27127W        W42258  11.636   2.805   2.843  0.1147 -0.2073 -0.3472
27128W        W42259   8.454  12.275   4.172  0.3481  0.2375  0.1114
27129W        W42260  16.597   5.667   3.287 -0.0216 -0.0579  0.0112
27130W        W42261   2.866   4.944   4.426 -0.2169  0.1706  0.0317
27131W        W42262  11.742   8.702   3.557 -0.0570 -0.0228 -0.2673
27132W        W42263  15.689  17.320   2.507  0.1155 -0.3084  0.1093
27133W        W42264  15.752   1.069   2.789  0.1374 -0.0928 -0.1897
27134W        W42265  11.083  14.155  11.838 -0.0269 -0.0765  0.2342
27135W        W42266   4.626  11.310   4.844 -0.1307  0.0820  0.5462
27136W        W42267   7.912  14.057  10.407 -0.4208 -0.2632 -0.2613
27137W        W42268  15.582   5.545  13.975 -0.0824  0.1161 -0.0125
27138W        W42269   1.132  16.811  13.761  0.2245 -0.1135  0.5117
27139W        W42270  10.738   9.181  11.399 -0.0476  0.1512  0.2000
27140W        W42271   7.243   0.011   4.169  0.1535 -0.1862  0.0612
27141W        W42272   8.727  16.064   5.536  0.0291  0.0197 -0.0494
27142W        W42273  13.915   3.213  13.769 -0.2208  0.0156  0.2351
27143W        W42274   2.861  18.025  14.596 -0.0014  0.3438  0.1267
27144W        W42275   6.444   5.944  14.934 -0.2084 -0.0416  0.1111
27145W        W42276  11.960  12.940  15.763 -0.1444 -0.0377 -0.0657
27146W        W42277  15.961   0.666   2.530 -0.0851 -0.0687 -0.0210
27147W        W42278  11.290  16.796   5.499 -0.0186 -0.3565 -0.1789
27148W        W42279  16.590  10.349  12.772  0.0512 -0.2394 -0.1249
27149W        W42280  14.831  14.467   2.387 -0.3036 -0.4110  0.0958
27150W        W42281   0.208  10.831   0.754 -0.1173  0.0629 -0.2731
27151W        W42282   7.878  17.113   4.339  0.0008  0.1849 -0.0996
27152W        W42283  12.490  13.116  12.240  0.2678 -0.1563 -0.0825
27153W        W42284   5.807  10.597   2.756  0.2807 -0.0823  0.4574
27154W        W42285  13.165   7.307   3.125  0.1802  0.0661  0.1667
27155W        W42286  17.161   5.166   6.051  0.1980 -0.2236 -0.3275
27156W        W42287  14.256   6.087   1.108  0.0732  0.1378  0.3546
27157W        W42288  12.820   1.451  13.839  0.2011  0.1631 -0.0125
27158W        W42289  12.427   1.242   3.728  0.0284  0.0220 -0.0127
27159W        W42290   6.549   1.597  12.156 -0.2011  0.1476  0.0482
27160W        W42291  17.156  12.405   1.799  0.0007  0.1970 -0.1178
27161W        W42292  14.625  13.068   0.923 -0.2597  0.1647  0.0989
27162W        W42293   4.764   0.438   2.652 -0.2489  0.0700  0.1991
27163W        W42294  17.498  14.198   1.897  0.0949 -0.0268  0.0291
27164W        W42295  10.111   8.115   5.856  0.1808 -0.1848  0.0018
27165W        W42296  10.383  11.403  14.475 -0.0203  0.2266 -0.0741
27166W        W42297  16.392   4.600   3.463 -0.1297  0.0018  0.0525
27167W        W42298   4.084   1.623   3.174 -0.1695  0.0132 -0.1317
27168W        W42299   6.903  11.201  11.893 -0.2628  0.0392  0.0081
27169W        W42300  10.511  14.517   5.005  0.1694 -0.0031  0.0819
27170W        W42301  12.395  15.776   4.502  0.2113 -0.1719  0.0681
27171W        W42302  17.807  13.813   1.708 -0.1264 -0.0447 -0.0252
27172W        W42303   9.786  17.734   3.479 -0.0774 -0.0354 -0.1058
27173W        W42304   2.214   1.513  12.518 -0.1827 -0.2640 -0.2521
27174W        W42305  11.537  11.505   5.487  0.0275  0.1265  0.1549
27175W        W42306   0.336  13.523  14.207 -0.1210  0.0341  0.0038
27176W        W42307   6.990  14.080   4.249 -0.1275  0.3383  0.1279
27177W        W42308   5.778  15.061  14.121 -0.0051 -0.1934  0.1285
27178W        W42309  13.966   7.377  11.879  0.1960 -0.0893  0.2019
27179W        W42310  12.466   3.864   0.359  0.1212  0.1820  0.0634
27180W        W42311   0.733   9.756  11.626 -0.0590  0.1805 -0.2678
27181W        W42312   4.635   0.898   5.485 -0.0609 -0.3591  0.2098
27182W        W42313   7.200   3.853   4.847  0.2167  0.2440 -0.1009
27183W        W42314  14.311  15.764   1.670 -0.1919 -0.0492  0.1126
27184W        W42315   0.120  11.289   1.182  0.1835 -0.1220  0.2963
27185W        W42316   1.189  12.333  15.246 -0.0802 -0.2295  0.0201
27186W        W42317   2.069  16.396  12.421 -0.3267  0.4048  0.0146
27187W        W42318  17.179   6.347   4.813 -0.1843 -0.0779  0.1649
27188W        W42319  10.656   0.094  10.917  0.0431 -0.1133 -0.1830
27189W        W42320  13.798   2.660  14.976 -0.1581  0.0901 -0.3262
27190W        W42321  12.664   9.164   0.897 -0.0702  0.0837 -0.2923
27191W        W42322   9.564  14.454   0.510 -0.1086  0.0521 -0.0215
27192W        W42323   4.526  17.772  15.216 -0.2391  0.0180 -0.0389
27193W        W42324   8.722   3.346  13.002  0.0871 -0.1330 -0.2661
27194W        W42325  13.337  17.709   4.526  0.1649 -0.1988 -0.2351
27195W        W42326  13.503  16.553   0.288  0.0152 -0.0236  0.0415
27196W        W42327  17.366   0.413   5.095 -0.0948  0.0497 -0.0647
27197W        W42328  15.436   8.972  11.702 -0.0366 -0.1728  0.0256
27198W        W42329  17.130   1.863   5.224 -0.0741 -0.0842  0.0113
27199W        W42330   7.522   7.517  14.328  0.0803  0.0442  0.0744
27200W        W42331   2.418   0.770  16.355  0.0673  0.0296  0.0968
27201W        W42332   3.584   5.642   3.986  0.2976  0.1726  0.0588
27202W        W42333  15.656  14.562  14.649 -0.1823  0.2594  0.0462
27203W        W42334   8.484  13.673   1.774 -0.3916  0.2486 -0.1367
27204W        W42335   7.960   0.104  14.424  0.1202  0.2299 -0.0215
27205W        W42336   0.280   6.496  12.993 -0.2475  0.1709 -0.1100
27206W        W42337   4.153   5.718  13.282 -0.0543  0.1754 -0.0573
27207W        W42338   0.036   5.075   4.473 -0.0454 -0.2856  0.4514
27208W        W42339   8.284  15.369   4.165 -0.2319  0.1406  0.2768
27209W        W42340  10.776   8.501   4.550  0.0814 -0.0329  0.2205
27210W        W42341   2.217   3.517   2.492 -0.1597 -0.2341 -0.0368
27211W        W42342   3.606   0.495  14.212  0.1090 -0.0625 -0.0074
27212W        W42343   8.842  10.959   3.081  0.1148 -0.2355  0.0087
27213W        W42344  16.147  18.058  11.448  0.3628  0.0989 -0.3089
27214W        W42345   5.523   8.228   4.204 -0.3396  0.3501 -0.0799
27215W        W42346   4.003   0.990  12.993 -0.1666 -0.0620 -0.1168
27216W        W42347   0.189   4.742  10.681  0.3335 -0.0877 -0.1660
27217W        W42348  12.461  11.481  14.585  0.3043 -0.0396 -0.0221
27218W        W42349   5.594  16.967  11.679 -0.2478  0.4711  0.1694
27219W        W42350  12.192   4.984  13.917 -0.0854 -0.3393 -0.0128
27220W        W42351  11.361  17.725  15.849  0.0793  0.0187  0.2060
27221W        W42352   3.740  17.821   5.004  0.1495  0.0481 -0.2202
27222W        W42353   9.646   0.951  15.646 -0.1597  0.0034 -0.1082
27223W        W42354   4.911   1.723  13.611 -0.0544  0.0723  0.0102
27224W        W42355   6.232  16.088  14.051  0.0025 -0.0984 -0.5594
27225W        W42356   3.566   4.621   1.196  0.3440  0.1577 -0.0084
27226W        W42357  10.240   5.506   1.468  0.3332 -0.0229 -0.0154
27227W        W42358   8.440   3.590   3.402  0.0868  0.1835 -0.0502
27228W        W42359  16.685  13.835  15.596  0.0360 -0.2137  0.1378
27229W        W42360  16.960   9.084   4.629  0.1885 -0.2865  0.1885
27230W        W42361  14.891   3.505  11.758  0.1069 -0.3243  0.1552
27231W        W42362   2.416  16.295  11.799  0.0908  0.1444  0.1146
27232W        W42363   6.426  16.276  12.923  0.2455 -0.1427  0.3859
27233W        W42364   6.343   4.630   2.537 -0.0908  0.2766 -0.0578
27234W        W42365  11.114  14.003  14.544  0.0474  0.2557  0.3174
27235W        W42366  14.330   8.514  14.241 -0.1882  0.0065  0.2923
27236W        W42367   3.423  11.307   2.137  0.1857  0.0380 -0.0656
27237W        W42368   8.051   0.268   1.584  0.1452  0.0379  0.3838
27238W        W42369  12.956   6.059  13.583 -0.0465  0.1387  0.0702
27239W        W42370   4.785   4.693   0.030  0.0305 -0.2287  0.4769
27240W        W42371  17.537  16.011   1.115  0.1253  0.4184  0.3353
27241W        W42372   7.561   9.232   4.528  0.2982  0.0642 -0.2547
27242W        W42373   4.241  15.025   4.934 -0.0813 -0.0010  0.0632
27243W        W42374   3.054  16.612  11.984  0.0636 -0.4681  0.2256
27244W        W42375  12.906   3.029   0.520 -0.2959  0.7196 -0.0404
27245W        W42376   5.303   9.532   4.512 -0.0781 -0.1488 -0.0795
27246W        W42377   7.513  15.970  13.593 -0.1323  0.0006  0.0055
27247W        W42378   9.049  13.904  15.346 -0.2359 -0.2231 -0.1043
27248W        W42379   5.877  16.089   1.326  0.0716 -0.2666 -0.1250
27249W        W42380   6.487   3.141  11.998  0.0199  0.4681 -0.1064
27250W        W42381  14.001   3.419   0.757  0.4243 -0.3291 -0.0444
27251W        W42382  15.443   7.463   2.636 -0.3264  0.1123 -0.1900
27252W        W42383   0.942   8.776   4.173  0.1954  0.0820  0.0270
27253W        W42384  14.807   2.441  14.846  0.0995 -0.1950  0.1154
27254W        W42385   5.112  11.502  15.651  0.0499  0.1010  0.1123
27255W        W42386   3.443  10.932  13.718 -0.1149 -0.0147 -0.0072
27256W        W42387  13.317  10.027   1.090  0.0227  0.3956  0.1077
27257W        W42388   4.101  13.180   4.439  0.0596  0.0375  0.1815
27258W        W42389  12.559  11.096  13.728  0.1034  0.0700 -0.0552
27259W        W42390   6.837  15.273   4.893 -0.0179 -0.3683  0.0292
27260W        W42391  13.569   0.841  15.030  0.0204 -0.1827  0.0408
27261W        W42392   9.974   4.454   3.585 -0.2064 -0.2406 -0.1389
27262W        W42393  14.551   1.780   5.213  0.0239 -0.0283  0.0662
27263W        W42394  14.941   1.864  14.965 -0.2174  0.3176 -0.0615
27264W        W42395   5.531   5.988   4.578  0.1372  0.0483 -0.0001
27265W        W42396   0.405   2.964  14.552  0.1460  0.0121 -0.1132
27266W        W42397  17.380  17.806   5.056  0.3283  0.0781  0.0497
27267W        W42398   8.104  15.886  14.422 -0.1075 -0.1704 -0.0227
27268W        W42399   0.589  13.246  14.577  0.0281 -0.0409 -0.2237
27269W        W42400   7.427   4.523  13.521 -0.2976 -0.0813 -0.0925
27270W        W42401   5.376  17.912   1.593 -0.0142  0.2322  0.0962
27271W        W42402   7.713   9.885  15.996  0.1276  0.1345 -0.0320
27272W        W42403   0.679   1.201  13.349  0.1023  0.0768 -0.0010
27273W        W42404  18.075  11.438  13.287  0.0211  0.1209 -0.0713
27274W        W42405  11.683  16.389   1.823 -0.0484 -0.0375  0.1941
27275W        W42406   7.404   2.857  16.440  0.0287  0.0172 -0.2917
27276W        W42407   1.534  10.172  10.055  0.0039 -0.3721  0.1432
27277W        W42408  17.868   6.043   5.037  0.3928  0.1300 -0.0583
27278W        W42409   3.725   4.322   1.558 -0.0505  0.0157  0.1930
27279W        W42410  12.684  16.132   1.482  0.0952 -0.0249  0.1885
27280W        W42411  17.935   9.911  14.120 -0.0645 -0.1003 -0.1775
27281W        W42412   6.701  13.746  14.076 -0.1479 -0.0654  0.1382
27282W        W42413   5.143  14.907  13.368 -0.1558  0.5212  0.2882
27283W        W42414   0.088  14.341  14.241  0.1584  0.0631 -0.1129
27284W        W42415  13.188  15.569   5.056 -0.2581  0.0640  0.0626
27285W        W42416   4.807  12.583  16.124  0.2565  0.1632  0.1685
27286W        W42417  10.788  11.158  12.230 -0.0042 -0.1589 -0.2634
27287W        W42418   3.918  15.022  13.269  0.0952  0.0587  0.1425
27288W        W42419   9.558  15.281  12.997  0.3502 -0.1766  0.3494
27289W        W42420   1.404  14.817  13.673  0.1105 -0.1701 -0.1257
27290W        W42421  16.825   4.722   0.154 -0.4290 -0.2272 -0.0631
27291W        W42422  13.356   1.145  14.271  0.2640 -0.2258  0.1606
27292W        W42423   6.207   0.329  13.093 -0.4094  0.1819 -0.2685
27293W        W42424   8.672  16.425  12.690 -0.0316  0.1655 -0.0964
27294W        W42425   0.770   3.702  15.380 -0.2562 -0.1999 -0.1990
27295W        W42426  10.995  15.325  11.514 -0.0650  0.0386  0.0042
27296W        W42427   1.952   0.657   6.169  0.1563 -0.3334 -0.0904
27297W        W42428   5.156   8.849   1.380 -0.1214  0.2724 -0.0560
27298W        W42429   9.548   6.079  15.302 -0.0323 -0.0092 -0.0701
27299W        W42430   6.949  13.396  15.312 -0.1738 -0.2097 -0.0533
27300W        W42431  11.204   6.007   4.090 -0.0555  0.1203  0.1090
27301W        W42432  11.728  13.275  14.258  0.2307  0.1362 -0.0803
27302W        W42433  13.700  10.762   1.691 -0.1217  0.0542 -0.0263
27303W        W42434  15.800   1.414   4.297 -0.0390 -0.0237  0.1364
27304W        W42435  16.526   8.112   5.828  0.0516  0.1459 -0.4529
27305W        W42436   1.629  13.029   2.634 -0.0731 -0.2440  0.0346
27306W        W42437   9.452   4.499   5.509  0.1777 -0.1494  0.1523
27307W        W42438  11.391   7.229   0.552  0.0284  0.1884 -0.2677
27308W        W42439   2.879   6.730   5.487  0.7093 -0.4177  0.0782
27309W        W42440   0.411   8.868  15.551  0.1559 -0.2819 -0.0984
27310W        W42441   2.306  16.939   0.071 -0.2331  0.3595 -0.1499
27311W        W42442  16.300   5.492  11.532  0.2494  0.3401  0.1280
27312W        W42443  14.949  10.991   2.090  0.2159 -0.1028 -0.0633
27313W        W42444   9.514   5.342   0.922 -0.1527 -0.2723 -0.0794
27314W        W42445   9.802  10.869  13.364  0.2864  0.0202  0.0676
27315W        W42446   0.334   3.531   4.326 -0.3118 -0.0415 -0.2541
27316W        W42447  17.392   6.522  12.729  0.0192  0.0947  0.2389
27317W        W42448   3.859   2.473   2.765 -0.4161  0.1783  0.0935
27318W        W42449   8.887  12.100   4.038 -0.0236 -0.3134  0.2281
27319W        W42450   9.349   5.013   5.520  0.0912  0.3441 -0.2911
27320W        W42451  14.349   6.790   2.471  0.2037 -0.0211  0.1782
27321W        W42452  16.319   1.001   0.010  0.1772  0.0794  0.1397
27322W        W42453   7.597  12.191   5.158 -0.2363  0.0115  0.4116
27323W        W42454  14.395   1.415  11.586  0.2143  0.4071 -0.3019
27324W        W42455   7.512   0.407  14.125  0.1214 -0.3984  0.0397
27325W        W42456   7.021   8.644  11.722  0.1072 -0.1909  0.0748
27326W        W42457   8.181   9.711   3.086  0.0656 -0.2199  0.0677
27327W        W42458  12.510   4.399  11.744  0.1297 -0.0580 -0.0601
27328W        W42459   5.815   6.898  12.440 -0.0121  0.1297  0.4371
27329W        W42460  15.375   9.763   4.007  0.2604  0.0010  0.0648
27330W        W42461  14.996  14.931   2.800 -0.2685 -0.1936 -0.4363
27331W        W42462   9.927   3.618   4.690 -0.1641 -0.2737 -0.4253
27332W        W42463   7.227   6.426  13.181 -0.1979  0.0203  0.2412
27333W        W42464   6.489   4.286   2.910 -0.1784  0.0537  0.0638
27334W        W42465   1.037  13.223   4.860 -0.2070 -0.1555 -0.2927
27335W        W42466   0.263  16.739   3.154  0.2882  0.0327 -0.2285
27336W        W42467  11.083   6.237  14.123  0.0007 -0.0596  0.0535
27337W        W42468   3.381   9.553  12.596  0.0863  0.0150  0.2727
27338W        W42469  15.255   9.075   1.373 -0.1660  0.3034 -0.0131
27339W        W42470   6.900   2.172  13.781 -0.0897  0.0193  0.0725
27340W        W42471  14.074   9.136   5.006 -0.1373  0.2356 -0.1976
27341W        W42472   3.398   0.544   4.978 -0.0512 -0.3617  0.1776
27342W        W42473  14.931  14.041  12.506  0.2712 -0.2138  0.0953
27343W        W42474   0.806  11.468   4.195 -0.1241  0.2735  0.0244
27344W        W42475   1.331   1.760  12.706  0.1485  0.0505  0.2900
27345W        W42476  13.758  15.632   4.683  0.0696  0.1501  0.0552
27346W        W42477   3.663   5.509  14.817 -0.1425 -0.2779  0.0280
27347W        W42478   7.216  11.509  15.369 -0.0182 -0.0378 -0.1472
27348W        W42479  12.092   6.088  16.147 -0.1275  0.0566  0.0391
27349W        W42480  12.070   0.471   5.836  0.0894  0.4181 -0.1585
27350W        W42481  15.576   2.616   0.350 -0.1430 -0.2630 -0.1218
27351W        W42482   8.434  10.400  15.638  0.0562  0.2881  0.0064
27352W        W42483   9.663  14.148   3.308 -0.2976  0.0029 -0.1474
27353W        W42484   0.798  12.491  13.960  0.1743  0.0788  0.2064
27354W        W42485   6.976   4.888  15.058  0.1824  0.3485 -0.0815
27355W        W42486   1.817   6.764   3.425  0.1685  0.1010  0.0115
27356W        W42487   0.342  15.281  14.560 -0.1257  0.1100 -0.2658
27357W        W42488  11.275  14.800   3.370  0.2667  0.2790 -0.0512
27358W        W42489  18.076   4.547   3.965  0.2091 -0.2002  0.0157
27359W        W42490   3.965  15.989   0.311  0.2055 -0.2310 -0.1296
27360W        W42491  13.483  11.931   4.614 -0.0595 -0.4548  0.0868
27361W        W42492   7.654   2.546   2.669 -0.2809 -0.1267 -0.3683
27362W        W42493  14.753  10.391  13.072 -0.1163  0.1548  0.0848
27363W        W42494  14.718   1.139   1.186  0.1382  0.1933 -0.2215
27364W        W42495   2.450  15.916  11.043 -0.1998 -0.0817  0.1155
27365W        W42496  14.366   8.733  15.559  0.0349  0.0357 -0.2985
27366W        W42497   5.301   1.421   5.071  0.1769 -0.0141 -0.1156
27367W        W42498  14.263  12.065  16.354 -0.1096 -0.1139  0.1053
27368W        W42499  14.903  12.641   6.291  0.0908 -0.2645  0.0901
27369W        W42500  10.369   8.746  13.342 -0.0967 -0.1724  0.0398
27370W        W42501   5.257   2.537  13.527 -0.0671  0.3009  0.0325
27371W        W42502   0.262  17.963   0.210  0.1620  0.0460 -0.1711
27372W        W42503   9.455   8.498  10.948  0.1981  0.1814  0.4351
27373W        W42504  10.555   6.347  15.783 -0.0095 -0.2494  0.0778
27374W        W42505  17.269   5.380  12.464 -0.0120  0.1220  0.1788
27375W        W42506   6.642   4.515  12.507  0.1117 -0.3081  0.3041
27376W        W42507   6.459   7.437  14.262 -0.0985  0.0082  0.0473
27377W        W42508   9.018  13.218   6.418  0.3962  0.1717  0.2386
27378W        W42509   3.236   6.382  11.040 -0.1415 -0.2369 -0.0286
27379W        W42510   4.901   8.659  16.350 -0.2476 -0.0004  0.1622
27380W        W42511   0.543  11.388  11.545 -0.3619 -0.0736  0.1667
27381W        W42512   7.065  12.097   0.362 -0.3887 -0.1744  0.1567
27382W        W42513   8.029  10.741   0.351  0.2103 -0.1935 -0.1329
27383W        W42514   1.681   8.352  15.951  0.0106  0.0794  0.0863
27384W        W42515   3.031   3.661  12.356  0.1185  0.0070  0.3955
27385W        W42516  13.678   2.531   5.587 -0.0423 -0.1500  0.3307
27386W        W42517   4.182   7.113  12.685  0.1282 -0.1428  0.1332
27387W        W42518  17.179  10.371   0.376 -0.1752 -0.0665  0.0171
27388W        W42519   5.400  15.313   3.767 -0.2326 -0.0278  0.0629
27389W        W42520   5.497  16.396  13.661  0.1370  0.2060  0.0869
27390W        W42521   0.439   4.848   5.249  0.0112  0.2017 -0.2512
27391W        W42522   7.438   9.597   6.148  0.0239  0.0906 -0.3132
27392W        W42523   3.361  10.263  15.835 -0.0155  0.0809  0.3283
27393W        W42524   1.985   2.649  13.338 -0.0861 -0.0750  0.2196
27394W        W42525   1.539   8.127  12.958 -0.0009  0.1256 -0.0327
27395W        W42526  11.511  17.287  10.934 -0.0915  0.0324 -0.0229
27396W        W42527   6.749   4.123   5.034 -0.0887 -0.0581  0.1651
27397W        W42528   8.775   6.676   3.582 -0.1988  0.0027  0.0400
27398W        W42529   8.882  17.881   3.754  0.1206 -0.0593 -0.1083
27399W        W42530   8.678  15.536   4.666  0.1315  0.2343  0.1306
27400W        W42531   4.467  16.218   0.279 -0.1730  0.1525  0.0066
27401W        W42532   6.707  10.403  14.643  0.0478  0.1655 -0.0688
27402W        W42533  17.708  17.339  12.076  0.0344 -0.0197  0.2756
27403W        W42534  14.140  17.055   0.048  0.1854 -0.1711  0.2746
27404W        W42535  15.721   6.902  15.859  0.2070 -0.3138  0.1227
27405W        W42536  12.553   7.184  12.119  0.0420  0.0869 -0.0426
27406W        W42537  14.276   9.982  14.197  0.1683  0.2122 -0.0785
27407W        W42538  14.002   6.219  14.783 -0.1074  0.3100  0.1709
27408W        W42539   8.272  11.972  11.484 -0.1963  0.2113 -0.1391
27409W        W42540  13.661   7.961   4.855 -0.1041  0.2499  0.3565
27410W        W42541   7.789  10.167  13.909  0.4734  0.1813  0.0085
27411W        W42542  10.142   7.858  15.717  0.0364 -0.5121 -0.1097
27412W        W42543  16.214   6.612   1.849  0.0389  0.1177 -0.1365
27413W        W42544   5.571  13.781   4.946  0.2217  0.1444 -0.5069
27414W        W42545  10.166  11.609  15.744 -0.1348  0.0736 -0.0594
27415W        W42546   3.440  17.961  12.061 -0.2544 -0.0145  0.0978
27416W        W42547   9.540   2.815  11.475 -0.3434  0.1976  0.1979
27417W        W42548   9.235   2.602  11.097 -0.1482  0.0916  0.3658
27418W        W42549   7.399   2.970   2.696 -0.2651 -0.0825 -0.0152
27419W        W42550  14.205  15.655   4.446  0.6576 -0.0011  0.0110
27420W        W42551   3.116   4.244  11.665 -0.1358  0.2271 -0.1961
27421W        W42552   6.026  13.297   0.884  0.2875  0.2605 -0.0553
27422W        W42553   3.778   8.502   5.356  0.0290  0.2625  0.1823
27423W        W42554   9.862  11.206  15.283  0.1119 -0.2478 -0.1798
27424W        W42555   6.236  12.334  13.120  0.1336  0.0541  0.0719
27425W        W42556  13.119  15.798  12.002  0.0247 -0.2132 -0.2722
27426W        W42557  15.462   1.328  15.774  0.0910 -0.1250 -0.0070
27427W        W42558  11.452  17.267   0.349  0.1710  0.1886 -0.0443
27428W        W42559   3.000  12.199  15.195 -0.1700  0.2138  0.3267
27429W        W42560  10.629  16.423  15.811  0.0000 -0.0725 -0.0864
27430W        W42561  16.380   3.604  14.696  0.0677 -0.1193 -0.2670
27431W        W42562   2.145  15.472   4.466  0.1962 -0.3067 -0.1495
27432W        W42563  12.432   5.273  11.811  0.1599 -0.2550 -0.0767
27433W        W42564   7.767  11.902  12.989 -0.2500 -0.0967 -0.3613
27434W        W42565   8.500  16.550  14.207  0.1400  0.0186 -0.1796
27435W        W42566   4.568   1.309  11.084  0.2103 -0.2194  0.1149
27436W        W42567   3.419  11.109  10.418 -0.2314 -0.0775 -0.0638
27437W        W42568  16.925   9.966   4.013  0.2057  0.3458  0.0644
27438W        W42569   1.948  10.894   3.263  0.2395 -0.2944 -0.2058
27439W        W42570   6.150  12.609   1.622  0.2630  0.0756  0.1646
27440W        W42571   3.103  11.688   4.590 -0.2095 -0.0936  0.0657
27441W        W42572   6.639  13.022  15.285 -0.2121 -0.1828  0.0390
27442W        W42573   1.607   2.008  10.904  0.3457 -0.4412 -0.1990
27443W        W42574   7.570   3.514  11.291 -0.1689 -0.2653 -0.0443
27444W        W42575   4.003   3.348  14.301  0.2321  0.0782 -0.1082
27445W        W42576  14.187   3.096  11.346 -0.0356 -0.0774  0.1242
27446W        W42577   9.381  17.129  12.788 -0.2341 -0.0092 -0.0523
27447W        W42578  10.220  15.489  14.463 -0.7103 -0.1038 -0.0805
27448W        W42579   5.792   4.577   0.824  0.2110  0.0821  0.0082
27449W        W42580   7.815   4.957  11.015  0.1065 -0.3526  0.1870
27450W        W42581  14.204  12.810   0.808  0.0292  0.0616  0.0316
27451W        W42582  10.695   5.084  13.368  0.0074 -0.1697 -0.1331
27452W        W42583  17.092  16.089   0.706  0.0702 -0.0077  0.1549
27453W        W42584   3.923  16.509  12.326  0.1599 -0.2179 -0.0665
27454W        W42585   8.168   7.989  12.292 -0.2298 -0.3406  0.2226
27455W        W42586   0.337   6.822  11.863  0.0643 -0.2428 -0.0248
27456W        W42587  11.432  17.134  16.057  0.2095 -0.0624  0.2457
27457W        W42588  14.447   2.399   4.976 -0.0229  0.1843 -0.0778
27458W        W42589   5.177  10.934  13.390 -0.1417  0.2575 -0.1665
27459W        W42590  15.554   7.184  14.336  0.0088  0.1198 -0.1615
27460W        W42591  17.658   6.674  13.549  0.1555 -0.0495  0.1212
27461W        W42592  12.813  12.795  16.066 -0.1816  0.2224 -0.2316
27462W        W42593   5.917   1.079   2.040 -0.3131 -0.0221 -0.2918
27463W        W42594   6.609   5.542   0.315 -0.1379  0.0007 -0.1706
27464W        W42595  10.858   4.536   0.487 -0.0058 -0.0255 -0.1076
27465W        W42596  13.162   0.734   5.138 -0.1145  0.0880 -0.0541
27466W        W42597   4.674  10.538   3.464 -0.1104  0.0079 -0.3874
27467W        W42598   4.225  12.161   1.076  0.1739 -0.2990 -0.0697
27468W        W42599  17.105   7.317   1.198 -0.2215 -0.0061 -0.2553
27469W        W42600  15.101   7.099  15.959 -0.2906 -0.2525  0.0036
27470W        W42601   7.008  13.997   2.069  0.3677 -0.1912 -0.3141
27471W        W42602   5.823   8.907   2.145  0.1615  0.2464  0.1424
27472W        W42603   3.464   6.040   4.630  0.0908  0.0017 -0.0250
27473W        W42604   5.824   6.419  15.856  0.0794 -0.3374  0.1010
27474W        W42605   9.635  11.124   3.292 -0.1936 -0.0545  0.0926
27475W        W42606  16.487  10.987   5.220 -0.2050  0.2593  0.0820
27476W        W42607   7.549   0.824   5.619 -0.0113  0.1065 -0.1165
27477W        W42608  12.971  10.272  11.007  0.0784 -0.0878  0.2236
27478W        W42609   0.334   1.537   2.503 -0.2260 -0.1967 -0.1097
27479W        W42610   1.736  16.604  12.982 -0.1664 -0.1919 -0.3008
27480W        W42611   4.439  11.696   3.090 -0.0235  0.0907  0.1645
27481W        W42612   7.169  17.096  14.405  0.0814  0.0934 -0.0370
27482W        W42613   4.670   3.954  10.967 -0.0401 -0.4670 -0.1121
27483W        W42614   9.243  11.977  16.348  0.0569 -0.0345 -0.0321
27484W        W42615   6.317   0.883  14.079  0.1792 -0.2127  0.1148
27485W        W42616   2.543  17.984   3.203 -0.0509  0.0497  0.4323
27486W        W42617  12.437  17.762   2.682  0.6487 -0.3427  0.0557
27487W        W42618   3.237  18.017   2.578  0.2020  0.1361 -0.1333
27488W        W42619  17.372  15.080   2.339 -0.0720  0.0840 -0.1174
27489W        W42620  14.306   0.007  13.233  0.0451 -0.1634  0.0209
27490W        W42621   3.804  17.598  14.104  0.4595 -0.1747  0.1825
27491W        W42622  14.926   5.909  15.976  0.1521  0.0825 -0.1526
27492W        W42623   1.047  12.831  13.313  0.0973 -0.1474  0.2408
27493W        W42624   5.316  10.731   0.238  0.0277 -0.0172 -0.0426
27494W        W42625   2.332   5.005  10.732  0.0745  0.0525 -0.0529
27495W        W42626   7.460   7.650  12.303  0.0913  0.3392 -0.0069
27496W        W42627   4.033  10.461  14.396  0.2931 -0.0885 -0.0787
27497W        W42628   5.837  16.969  12.828  0.1803  0.2986 -0.0946
27498W        W42629  13.182  16.638   3.522 -0.3408  0.2111 -0.1751
27499W        W42630  17.946   7.255   2.901  0.0402 -0.1385 -0.2974
27500W        W42631  14.557  13.947  12.897  0.1308 -0.3989  0.0179
27501W        W42632   5.796   4.184  12.337 -0.0679 -0.0053  0.1300
27502W        W42633  13.673   9.344  16.408  0.0948 -0.2800 -0.0023
27503W        W42634  10.540  10.841   4.552  0.3213  0.0969 -0.0333
27504W        W42635  10.453   1.202   4.449  0.0836 -0.0116  0.1047
27505W        W42636  13.802  13.283  11.859 -0.0411 -0.1858  0.0347
27506W        W42637   2.412   9.400  12.102 -0.2737  0.1909  0.1024
27507W        W42638  15.145  13.432   0.236  0.0021  0.0742 -0.2480
27508W        W42639  13.071   0.639  12.456 -0.1790 -0.0550 -0.1026
27509W        W42640   2.261   8.510  15.414 -0.2851  0.0125 -0.3909
27510W        W42641  14.221   9.031  14.041  0.1582  0.0563  0.0841
27511W        W42642  14.357   5.243   5.780 -0.2196 -0.0562  0.0814
27512W        W42643  12.969   9.614  11.408 -0.0062 -0.1076  0.0770
27513W        W42644   3.634   2.011  14.325  0.0038  0.0002 -0.2314
27514W        W42645  17.376   2.412  15.641 -0.3504  0.4960 -0.2508
27515W        W42646  17.384   0.666  11.537 -0.1489  0.0395  0.1907
27516W        W42647  14.122   5.030   5.229  0.0577  0.1846  0.1200
27517W        W42648  10.440   9.918  12.573 -0.2394  0.1907 -0.3221
27518W        W42649   0.270   1.236  12.118  0.0309  0.0244  0.1119
27519W        W42650  12.587  11.246   3.150  0.1848 -0.0301  0.1211
27520W        W42651   5.360  14.106   3.598 -0.0589 -0.0924 -0.0818
27521W        W42652   8.081   8.293  15.267  0.1339  0.2560 -0.3215
27522W        W42653   1.949   1.358   4.730  0.0739  0.2398 -0.0040
27523W        W42654  14.263   4.535  14.869 -0.1737 -0.0722 -0.2869
27524W        W42655   7.172  10.664   3.425 -0.2427  0.3437  0.0695
27525W        W42656   9.316  11.955  10.821  0.2693  0.1379  0.1644
27526W        W42657  14.643   6.221   4.863  0.0798 -0.0911 -0.0619
27527W        W42658   2.172   5.361   2.933 -0.0260  0.1120  0.0450
27528W        W42659   0.842   0.841   2.532  0.0318  0.1765  0.0424
27529W        W42660  15.805   7.809   2.589 -0.0977 -0.0476 -0.0016
27530W        W42661   2.992   9.577  11.327  0.3248  0.0190 -0.0238
27531W        W42662   4.548  11.859   3.555 -0.3577  0.0098 -0.0714
27532W        W42663   3.927   1.226  15.013  0.2304  0.0365 -0.2654
27533W        W42664   3.573   2.451  14.605 -0.1188  0.2133 -0.1325
27534W        W42665  12.113  15.402  15.491  0.0119 -0.1223  0.0926
27535W        W42666   0.252   3.923  14.067 -0.0346 -0.0723  0.3121
27536W        W42667   4.303  13.595   4.222 -0.4619  0.2012  0.0529
27537W        W42668  13.984   5.727  12.674 -0.1732 -0.1748  0.1125
27538W        W42669   6.175  14.688  15.838 -0.1344  0.0701  0.0988
27539W        W42670  13.316   1.251   6.000  0.1905 -0.1887 -0.2482
27540W        W42671   2.344   3.818   3.494 -0.2327 -0.2521  0.2200
27541W        W42672  14.915   6.427   5.274 -0.2054 -0.0747 -0.0145
27542W        W42673   2.355  16.818  12.537  0.1197  0.2327  0.0251
27543W        W42674  16.786   4.169   0.059  0.2882 -0.1420  0.2177
27544W        W42675  14.607   8.602  15.084 -0.0201  0.0431 -0.0831
27545W        W42676   4.055  14.046   2.118  0.2232 -0.1579  0.0463
27546W        W42677   3.332   1.480   3.658  0.0824 -0.0704 -0.0094
27547W        W42678  17.344  13.311  15.502  0.0049 -0.0670 -0.1403
27548W        W42679   5.481   2.951   0.182  0.1097 -0.0291 -0.2348
27549W        W42680  12.744   5.419   5.129 -0.0488  0.1020  0.0150
27550W        W42681  14.079   5.956   3.552 -0.0137  0.0476  0.0896
27551W        W42682   8.669  13.130  15.156  0.0245 -0.0669 -0.1484
27552W        W42683   6.795   8.337   1.278  0.3725 -0.0419 -0.1372
27553W        W42684  16.263  11.136   4.068  0.1830  0.0938  0.1431
27554W        W42685   7.734   4.334   9.558 -0.0764 -0.1252  0.0484
27555W        W42686   0.219  11.656  16.224  0.0794  0.0314 -0.1219
27556W        W42687  14.953   2.065  11.538  0.1797  0.0813 -0.2074
27557W        W42688   9.787   7.371  12.401  0.3636 -0.1346 -0.1852
27558W        W42689   3.264   1.394   5.786 -0.0518  0.3131  0.2448
27559W        W42690  10.782  10.836  15.595  0.0596 -0.1993  0.0970
27560W        W42691   5.131   5.979  14.505  0.2394 -0.0171 -0.2723
27561W        W42692   0.958  11.259   3.742  0.2400  0.1546  0.0392
27562W        W42693   3.023   1.749   2.121 -0.1010 -0.1900  0.0489
27563W        W42694   2.803  17.828   3.651 -0.1825 -0.0798  0.0814
27564W        W42695  16.900  13.806   5.565  0.0431  0.2587 -0.0520
27565W        W42696   8.868   5.636  14.545 -0.0689  0.2492  0.1572
27566W        W42697   6.644   8.790  12.065 -0.1811 -0.1737 -0.1517
27567W        W42698   2.895   3.137   4.423 -0.1555 -0.0930  0.1056
27568W        W42699   1.010   1.959  13.054  0.0482 -0.1863 -0.0289
27569W        W42700   7.092   1.027  13.901 -0.0171 -0.0138 -0.0241
27570W        W42701  16.138  13.571   4.715  0.1890 -0.4004 -0.0750
27571W        W42702  14.434  13.420  13.786  0.0760 -0.0197 -0.0738
27572W        W42703  15.327   0.264   1.727 -0.2012 -0.6899 -0.0791
27573W        W42704   5.834  13.353   4.962  0.3102  0.3477  0.1746
27574W        W42705   4.811   7.394   4.667 -0.2819 -0.2466  0.0683
27575W        W42706  15.293   9.885   3.280 -0.0655  0.2959 -0.1198
27576W        W42707   2.333   0.933  15.691 -0.2040 -0.3055 -0.0022
27577W        W42708  16.358  16.951  15.302  0.2340  0.2434 -0.1976
27578W        W42709   0.203   7.452  14.900  0.2660 -0.1117  0.1704
27579W        W42710   0.217  12.647  14.139  0.0534 -0.0503  0.1463
27580W        W42711  13.391   7.846   2.775 -0.0336  0.0183  0.1477
27581W        W42712  11.774  17.850  13.588  0.2605  0.1216 -0.0036
27582W        W42713   3.432   3.550  12.068  0.3477  0.0127 -0.2060
27583W        W42714  11.177   6.801   2.026  0.1181 -0.0661  0.1749
27584W        W42715  17.162   4.071   2.092  0.1883 -0.0039  0.0570
27585W        W42716  15.889   9.551  14.730  0.0060 -0.4704 -0.1460
27586W        W42717  16.587  15.587  13.415  0.0558  0.0794  0.0786
27587W        W42718  16.886   0.456   4.750  0.0581  0.0793 -0.0111
27588W        W42719  15.129  11.350   3.027  0.0553  0.0087 -0.0240
27589W        W42720   2.293  10.512  14.572  0.0257  0.0205 -0.1500
27590W        W42721  14.536   6.313   1.796  0.1030  0.0501 -0.3613
27591W        W42722  14.789   5.332  10.567  0.0888 -0.1559  0.1926
27592W        W42723  12.591  16.591   0.121  0.0044 -0.1172 -0.2106
27593W        W42724  15.542  17.693  10.338 -0.1513  0.2364  0.1091
27594W        W42725  16.510   1.761  13.936  0.2554 -0.2162 -0.0129
27595W        W42726  15.124  16.049  13.666 -0.1323 -0.0054 -0.1330
27596W        W42727  10.365  15.072  10.148 -0.0610 -0.0636  0.0243
27597W        W42728   4.324   1.090   1.276 -0.0077  0.0880 -0.0946
27598W        W42729   2.476   8.301  16.406  0.0679  0.0614  0.0797
27599W        W42730  11.016  16.024   4.791 -0.2356 -0.0006  0.0963
27600W        W42731   0.872   3.756  13.382 -0.0773  0.1231 -0.0444
27601W        W42732   6.656   0.167  14.344 -0.2275 -0.2573  0.0328
27602W        W42733  11.158  13.334  14.224  0.2036 -0.1963  0.0418
27603W        W42734  14.035   7.820   1.808  0.0161 -0.2501 -0.3612
27604W        W42735   6.446   6.260   1.003 -0.1347 -0.0928  0.1864
27605W        W42736  14.272   1.815  13.356 -0.1547  0.1599  0.2641
27606W        W42737  12.284   2.191  14.270  0.0065 -0.2740 -0.3099
27607W        W42738   9.826   3.836  16.174  0.0287  0.1939 -0.0028
27608W        W42739   1.456   5.672  11.671  0.1147  0.2053  0.3900
27609W        W42740  12.685   9.435   0.421 -0.1374  0.2305  0.0223
27610W        W42741   3.325  14.349  13.382 -0.1091 -0.5029  0.1531
27611W        W42742   3.146   9.350  14.607  0.3665  0.3494 -0.0268
27612W        W42743  17.604   6.632  15.909 -0.3159 -0.1522  0.1131
27613W        W42744  14.000   7.190  13.177  0.2098  0.0918  0.0283
27614W        W42745  10.997   7.295   1.233 -0.1485 -0.0629 -0.1390
27615W        W42746   7.851  11.074   5.305  0.0658 -0.0510 -0.2439
27616W        W42747  16.383  17.489  12.266 -0.0005 -0.3004  0.0632
27617W        W42748  15.634   7.414   1.312  0.0149 -0.1369 -0.3266
27618W        W42749   9.782   8.869   1.065  0.0451 -0.0839  0.3486
27619W        W42750  10.399  16.195  14.010 -0.2517  0.0405 -0.3334
27620W        W42751  10.464   8.222   1.037 -0.0289 -0.1333  0.1370
27621W        W42752  11.925   2.797  12.495  0.1726 -0.1428 -0.0672
27622W        W42753   1.488  18.098   4.862  0.1221 -0.0956  0.0997
27623W        W42754   0.966  17.608  16.135 -0.1492 -0.4167 -0.0483
27624W        W42755   9.940   9.191  12.395  0.2166  0.0884 -0.1175
27625W        W42756   3.245   3.042   4.875 -0.0910 -0.2392  0.0598
27626W        W42757  16.027  17.554   4.741  0.1249  0.0150  0.4089
27627W        W42758  10.819   1.825   1.571  0.1802 -0.0983  0.0618
27628W        W42759   7.832  15.236   5.195 -0.0946 -0.3046  0.1226
27629W        W42760   1.130   4.060  12.499  0.0235  0.4375 -0.0874
27630W        W42761   7.299  14.244   2.349 -0.0959  0.0795  0.3401
27631W        W42762   9.628   5.189  11.517  0.0610  0.2620 -0.0214
27632W        W42763   3.565   6.757   1.785 -0.0911 -0.2242 -0.0927
27633W        W42764  16.077   8.080  14.892  0.1715  0.0523  0.0896
27634W        W42765   4.439   2.851   3.266 -0.2389 -0.1141  0.0094
27635W        W42766   8.646   5.936   4.214 -0.0721  0.1370 -0.0594
27636W        W42767   8.287   0.709  10.825  0.1360  0.1943  0.2322
27637W        W42768   4.187   5.481  12.255  0.1562 -0.1492  0.0616
27638W        W42769   5.523   2.730  11.784  0.1055  0.2467 -0.4079
27639W        W42770   0.856   7.329  14.222 -0.0247 -0.0027 -0.0350
27640W        W42771  11.354  12.916  16.393 -0.0473  0.0749  0.2215
27641W        W42772   8.035   6.729  13.363  0.2580 -0.0430  0.1385
27642W        W42773  17.955  17.902   0.610 -0.0504 -0.1783  0.2821
27643W        W42774   0.606   5.570  12.835 -0.0904  0.1509  0.1886
27644W        W42775  10.443   2.369   4.078  0.2358 -0.0830 -0.1516
27645W        W42776  15.399   0.950   1.009 -0.0815 -0.0660  0.0747
27646W        W42777  15.067  15.459  15.586  0.1150  0.1495  0.2090
27647W        W42778   7.088  16.109   3.984  0.2103 -0.2574  0.0652
27648W        W42779  14.746  11.603  15.690 -0.0505 -0.0757 -0.0705
27649W        W42780  13.495   1.617  11.158 -0.0808 -0.2600 -0.0478
27650W        W42781  15.343  13.721   0.658 -0.1574 -0.0551  0.0881
27651W        W42782   7.374  13.459  15.629  0.3001  0.1123 -0.2827
27652W        W42783   5.451  13.540  16.082 -0.4498  0.1547  0.1452
27653W        W42784   3.454   7.568   5.296 -0.1576  0.1788 -0.1514
27654W        W42785  12.655  16.913  12.951  0.3585 -0.1766  0.0128
27655W        W42786   2.943  14.495  12.031 -0.1459  0.1518  0.0370
27656W        W42787   3.146   0.844  12.542 -0.1466  0.1632 -0.2123
27657W        W42788  11.495   6.887   4.587  0.0394  0.1278  0.5001
27658W        W42789  11.752  13.884  13.841  0.4824  0.1018 -0.0034
27659W        W42790   4.012   5.060   1.106  0.1243  0.1242 -0.0612
27660W        W42791  12.811   4.142   0.158  0.0584  0.1273 -0.1939
27661W        W42792   1.456  13.805   2.422 -0.3310  0.2019 -0.0820
27662W        W42793  13.943  11.083  13.854  0.0102 -0.1272 -0.0442
27663W        W42794   8.462   0.875   1.983  0.2434 -0.0734  0.1533
27664W        W42795  16.604   6.268  11.690 -0.6716 -0.0940  0.1951
27665W        W42796  16.125  10.451   4.539  0.2395  0.0536  0.1111
27666W        W42797   2.018   5.431  10.748  0.1002 -0.1915  0.0796
27667W        W42798   2.094   8.192   4.870 -0.4662 -0.2092 -0.0106
27668W        W42799   5.769  15.265   3.425  0.0750 -0.2741  0.0490
27669W        W42800   6.951   8.915   5.155  0.2993 -0.0678 -0.2325
27670W        W42801   8.839  13.435  15.521 -0.0282  0.0407  0.0163
27671W        W42802   4.252   4.340   0.157  0.1677  0.1374 -0.2234
27672W        W42803   0.559  17.830   1.929  0.0743 -0.1274  0.4710
27673W        W42804   8.278   7.617   2.683 -0.0398 -0.1045  0.1009
27674W        W42805   8.329  14.034  11.562 -0.2258  0.0115  0.0605
27675W        W42806   5.335  14.412  16.350  0.1655  0.0877 -0.2381
27676W        W42807  12.205   9.664  14.022  0.2396 -0.4175  0.3021
27677W        W42808  13.153   9.444   5.340 -0.2975  0.3753 -0.2915
27678W        W42809  12.848   6.361   3.172  0.2117  0.1683  0.0286
27679W        W42810  17.639   7.161   0.926  0.2163  0.4733 -0.0676
27680W        W42811  10.099   7.735   4.107 -0.5605 -0.1854 -0.5393
27681W        W42812   0.091   4.413   0.329  0.0316 -0.1657  0.0690
27682W        W42813  12.434   2.798  14.422 -0.2866  0.3244  0.3710
27683W        W42814   8.710  17.569   1.005 -0.0917 -0.1351  0.1084
27684W        W42815   1.344  11.945   2.004  0.0647  0.0087 -0.3157
27685W        W42816   9.601  10.148   0.103 -0.3432  0.2076 -0.2196
27686W        W42817   7.778  15.400   3.994  0.0969  0.0657 -0.1876
27687W        W42818  13.143   7.584   3.658  0.2489  0.1385 -0.0513
27688W        W42819   4.854  17.971  11.546 -0.0234  0.0893 -0.2141
27689W        W42820  12.263   8.907   4.526 -0.2397  0.0741  0.1522
27690W        W42821  10.131   0.008   3.549  0.3086  0.2847 -0.2763
27691W        W42822  15.526   0.491  12.507  0.2908  0.0704  0.0029
27692W        W42823  16.030   0.664  12.448  0.0391  0.2380  0.1604
27693W        W42824   0.779   8.712  11.527  0.2247  0.1767 -0.1273
27694W        W42825  16.182  12.486  14.377 -0.0165 -0.0599  0.2727
27695W        W42826   0.488   5.369   2.921  0.0172  0.0672  0.1532
27696W        W42827   8.274   1.279  12.191 -0.0708 -0.0952  0.4378
27697W        W42828  13.418   4.904   4.938  0.1046  0.6221  0.1229
27698W        W42829   1.986   6.664   2.983 -0.4555 -0.0222 -0.0271
27699W        W42830  11.717  16.480   3.807  0.2240  0.3753  0.2409
27700W        W42831  14.069   1.031  15.116  0.0029  0.1115  0.0467
27701W        W42832  16.345   0.127   0.497 -0.0690 -0.0724  0.3317
27702W        W42833   2.790   2.526  15.376 -0.0409  0.0846 -0.1892
27703W        W42834  16.621  16.199   2.904 -0.2229  0.1057  0.1821
27704W        W42835  11.001   4.088  14.346 -0.0292  0.0823 -0.1946
27705W        W42836   2.759  10.702   2.103  0.1986 -0.0146 -0.1602
27706W        W42837  11.193   9.574  11.278  0.3538  0.2950  0.0763
27707W        W42838  17.980  10.969   2.884  0.4697  0.1381  0.0813
27708W        W42839   8.116   1.445   4.111 -0.1329  0.0226  0.0653
27709W        W42840  16.781  10.751   3.586  0.1211  0.0088  0.1638
27710W        W42841  12.524  17.551  13.753 -0.0580 -0.0990 -0.2060
27711W        W42842   8.360   0.689   2.935  0.3296 -0.0352 -0.1206
27712W        W42843  13.666  14.063  13.474 -0.1034 -0.0334  0.2145
27713W        W42844  16.477   3.914   1.757  0.0473  0.0761  0.2070
27714W        W42845   6.381   5.790   3.421 -0.0100  0.2560  0.0175
27715W        W42846   1.582   3.240  12.571  0.0793 -0.0120 -0.0665
27716W        W42847   8.842   6.849  10.543 -0.0542 -0.1653 -0.0723
27717W        W42848   6.572  14.718   0.066 -0.0525 -0.1961  0.1618
27718W        W42849   3.860  17.780  11.978  0.0345 -0.0161  0.1025
27719W        W42850   0.907   5.878  14.832  0.1737  0.3209  0.0665
27720W        W42851   9.784   2.698   2.385 -0.2534  0.1611  0.2876
27721W        W42852   4.663  14.601  14.698  0.1628 -0.1081  0.1924
27722W        W42853  16.814   9.839   0.202  0.1209 -0.0529 -0.1770
27723W        W42854   1.853   3.502  13.045 -0.0197  0.0781 -0.3703
27724W        W42855  11.072   1.879   4.432  0.1135  0.0376 -0.1376
27725W        W42856  13.766   4.371  12.244  0.0106  0.0178 -0.1126
27726W        W42857  14.932  14.863   3.968 -0.0860  0.2427 -0.1593
27727W        W42858   2.264   7.250  10.339  0.0200 -0.0820 -0.0392
27728W        W42859   6.482   6.949  11.032  0.1231 -0.2682  0.1557
27729W        W42860   3.890   3.838  13.183 -0.3269  0.2677  0.0133
27730W        W42861  11.486  12.452   3.538 -0.1923  0.3979  0.1527
27731W        W42862  12.152  17.252  12.978 -0.0484  0.1286  0.1785
27732W        W42863   7.432   9.473  15.931  0.0648 -0.1059  0.0361
27733W        W42864  14.452   1.448  11.050  0.2875  0.1718  0.1725
27734W        W42865   7.800  15.909  13.139 -0.1172 -0.0210 -0.0755
27735W        W42866  16.592  16.385   1.104 -0.0998 -0.5264  0.3535
27736W        W42867   1.331  12.084  16.200  0.0414 -0.0033  0.1232
27737W        W42868  12.132   5.685  13.188 -0.0375  0.4535  0.4931
27738W        W42869   1.898  16.308   3.664 -0.1240  0.0773  0.1009
27739W        W42870   4.554   4.835  10.615  0.1378  0.1651  0.4719
27740W        W42871   8.546  11.088   4.872  0.1757  0.1008 -0.0039
27741W        W42872   7.843   0.178  12.349  0.1119  0.2976  0.1023
27742W        W42873  10.297  10.297  15.368  0.1377 -0.0793 -0.0581
27743W        W42874   7.454  13.113   4.734 -0.1195 -0.0580  0.0378
27744W        W42875   6.877   6.690   2.026 -0.4992 -0.1517 -0.0329
27745W        W42876   4.789  10.012  14.267  0.2734 -0.1202 -0.0096
27746W        W42877  11.012   2.410  11.657  0.1252  0.0963  0.2008
27747W        W42878   2.633  17.957  12.856 -0.2271 -0.0830  0.0486
27748W        W42879   6.786  10.203   2.105  0.2028 -0.1862 -0.4570
27749W        W42880   9.832  17.903  14.817 -0.1651  0.3600 -0.0475
27750W        W42881   7.839  15.649  10.275  0.2732  0.1806  0.1467
27751W        W42882  12.401  18.013   1.798 -0.0908 -0.3062  0.1195
27752W        W42883   9.863  13.288  14.656  0.2688  0.1509 -0.2046
27753W        W42884  13.744   0.033   3.108 -0.0727  0.0337  0.0393
27754W        W42885  11.786   4.077   5.082 -0.0112 -0.2827 -0.0730
27755W        W42886  12.971   8.693  15.700  0.0149  0.1044 -0.1224
27756W        W42887   0.331   0.736  13.301  0.0963  0.0546 -0.3454
27757W        W42888   8.935   7.012  14.352  0.2863  0.1207  0.0680
27758W        W42889   4.621   5.958   5.444  0.0813  0.3858 -0.1286
27759W        W42890  13.303   6.757   5.517  0.2207 -0.1661 -0.0895
27760W        W42891   7.165  11.047   1.649  0.0884  0.4234  0.1302
27761W        W42892  12.141  12.178   4.130  0.0943  0.1442  0.3989
27762W        W42893  12.397   6.508   1.255  0.0170 -0.1344 -0.1812
27763W        W42894   4.573   2.067  13.746  0.3410 -0.1011  0.1614
27764W        W42895   2.010   0.337  15.021 -0.0712 -0.3073  0.0848
27765W        W42896  11.944   3.759  16.377  0.1260 -0.0026  0.0880
27766W        W42897  10.906  15.890   1.497  0.0459  0.1606 -0.1447
27767W        W42898   1.208   9.369  15.452  0.2738  0.2628  0.1317
27768W        W42899  10.362   3.997  14.882  0.0298 -0.0540 -0.1145
27769W        W42900   3.630   9.897  12.328  0.0240 -0.2181 -0.2749
27770W        W42901  14.149   4.042   2.361 -0.0358 -0.0074  0.1344
27771W        W42902  14.237  14.331  15.821 -0.1199  0.3263 -0.1615
27772W        W42903   4.212   6.799  13.091  0.0475 -0.0320 -0.2055
27773W        W42904   8.951   1.884   1.754  0.2368  0.2910 -0.1293
27774W        W42905   3.753  14.869  12.265 -0.1371  0.2025 -0.1642
27775W        W42906  10.577  18.043   3.783  0.3099  0.2877  0.1256
27776W        W42907   2.516  14.847   3.985  0.1510  0.2916 -0.1869
27777W        W42908   8.025   4.715  10.652  0.0295  0.1298  0.2427
27778W        W42909  14.999  15.811  14.080 -0.0492  0.1493  0.0025
27779W        W42910   3.460   6.886  13.873 -0.1262  0.3756  0.1155
27780W        W42911  13.031   5.388   3.649  0.2635 -0.1645  0.2427
27781W        W42912   3.205   4.840  14.564 -0.0731 -0.0544 -0.1920
27782W        W42913   9.734   9.665  11.377 -0.0973  0.2173  0.1921
27783W        W42914   8.667  13.459   0.255  0.1384  0.1017 -0.0793
27784W        W42915  16.179   0.892  13.587 -0.0244 -0.2978  0.0579
27785W        W42916  14.790   7.985   0.357 -0.0125  0.2079 -0.1186
27786W        W42917   7.420   7.235   0.944  0.1919 -0.3638 -0.1802
27787W        W42918   9.870  13.972   0.675 -0.2122 -0.2200 -0.2631
27788W        W42919   6.282   9.509   1.770 -0.1839  0.2009  0.1138
27789W        W42920   4.537  15.173   2.268 -0.1915 -0.0120  0.2977
27790W        W42921   6.814   2.936   3.225 -0.1469  0.0334  0.1946
27791W        W42922   2.950   2.777   5.192 -0.0653 -0.0411  0.0763
27792W        W42923  12.854   4.312  10.228  0.0422  0.0675 -0.0371
27793W        W42924   3.832  12.074   2.513 -0.3514 -0.0783 -0.1195
27794W        W42925   8.906   1.061   0.104  0.1984  0.3346  0.0074
27795W        W42926   8.213   4.268   4.889 -0.3266  0.0039  0.1087
27796W        W42927   2.346   7.455   5.300 -0.0036 -0.0491 -0.1890
27797W        W42928  10.979  12.346  11.382  0.2411  0.1709 -0.4503
27798W        W42929   1.120   0.240   4.566 -0.1741 -0.2790 -0.1775
27799W        W42930  15.786   0.727   0.808  0.0004  0.0228 -0.0196
27800W        W42931  15.567  11.809  13.287 -0.2029 -0.1641  0.5884
27801W        W42932  12.064   2.220  15.683  0.0493  0.1493  0.0872
27802W        W42933  15.446  17.874  13.487  0.3467  0.0046  0.0563
27803W        W42934   9.365  17.986   1.167 -0.2685  0.2735 -0.2081
27804W        W42935  12.686  10.648   1.088 -0.0303 -0.2331  0.0811
27805W        W42936   7.306   2.684   4.642  0.0943  0.3208 -0.0004
27806W        W42937  13.691  15.798  14.593 -0.0632 -0.0392 -0.0315
27807W        W42938   8.321  16.109  15.533 -0.0084 -0.0106 -0.1253
27808W        W42939   5.467   4.657  14.218  0.1638  0.3385  0.0046
27809W        W42940  17.697   6.749  16.448 -0.0564 -0.0944  0.0942
27810W        W42941   2.236  17.775   5.363 -0.1000  0.1721  0.2867
27811W        W42942   0.565  12.047  13.857 -0.0900 -0.3661 -0.0813
27812W        W42943   4.177   8.864  15.655 -0.2528 -0.0090 -0.3672
27813W        W42944  12.730   3.165  11.913 -0.0339 -0.2054 -0.2834
27814W        W42945   3.905   3.127   6.192  0.0790 -0.3261 -0.2399
27815W        W42946  11.379  15.234  15.845 -0.2422  0.1436 -0.0710
27816W        W42947  16.403  11.177  12.358  0.0365  0.0465  0.0931
27817W        W42948   5.615   5.930   0.703 -0.0985 -0.1477 -0.3961
27818W        W42949  12.251   8.921   5.047 -0.0551  0.0437  0.0044
27819W        W42950  11.000  12.826   4.700 -0.1474 -0.3573 -0.1726
27820W        W42951   2.012   7.256  16.175  0.3043 -0.0487 -0.1078
27821W        W42952   3.499   2.751   5.168  0.0119  0.0246  0.0537
27822W        W42953   2.259   9.449  15.332 -0.1545 -0.0568 -0.0857
27823W        W42954   0.616  11.993   4.630 -0.1650 -0.1716 -0.0596
27824W        W42955  12.895   1.606  13.390 -0.2727 -0.2141 -0.0191
27825W        W42956  17.323   8.648   4.664 -0.2916 -0.2039 -0.1703
27826W        W42957   1.585  16.019   4.798 -0.1173  0.1772  0.0701
27827W        W42958  13.423   5.441   1.625 -0.0577 -0.0299 -0.2558
27828W        W42959  13.273   4.396  13.738 -0.1805 -0.3856 -0.1327
27829W        W42960  15.760   8.570  15.221  0.0001 -0.0222 -0.1302
27830W        W42961   7.894   6.693   3.319 -0.2639 -0.0034 -0.1953
27831W        W42962   0.980   9.032  10.635  0.2057  0.1839 -0.0009
27832W        W42963   8.982  11.041  14.501  0.0882  0.2289  0.0142
27833W        W42964  16.680  12.787  10.727  0.3541 -0.1886 -0.2950
27834W        W42965  13.626   2.170  14.547  0.0533 -0.0380 -0.0585
27835W        W42966   6.231  13.498  15.051  0.0274 -0.2450 -0.3776
27836W        W42967   0.124   9.738   4.367 -0.0242  0.0614 -0.1107
27837W        W42968  17.840  17.487   1.486  0.1124 -0.4298 -0.2189
27838W        W42969  15.588  17.182  12.943 -0.0472  0.6194  0.4099
27839W        W42970  10.099   6.958   0.389 -0.2855 -0.1145  0.0205
27840W        W42971   4.957   1.809   3.782  0.1255 -0.2013  0.1454
27841W        W42972   5.722   4.580  14.678  0.2251 -0.1012 -0.0233
27842W        W42973  16.004   1.000  15.264 -0.0908 -0.0449  0.1336
27843W        W42974   9.771   6.486  14.082  0.1220  0.2070 -0.0726
27844W        W42975  13.919  14.156   1.479  0.1586 -0.2725  0.0678
27845W        W42976   4.007  15.992   2.010 -0.1065  0.1291  0.0709
27846W        W42977   6.021   6.752   2.602  0.0592  0.0583  0.3199
27847W        W42978  14.953   4.688   6.069 -0.1634  0.0164 -0.1461
27848W        W42979   8.930   8.066   6.365  0.2103 -0.0628  0.1118
27849W        W42980   2.614   5.798   3.868 -0.0325 -0.0852 -0.2551
27850W        W42981  11.645   8.484  14.068 -0.0757 -0.0250 -0.0034
27851W        W42982   2.936   2.751  12.066  0.1280  0.5109 -0.0810
27852W        W42983   6.203  10.012   2.166  0.3011 -0.1052  0.2152
27853W        W42984   7.439   1.939   5.167  0.0144 -0.0018 -0.1597
27854W        W42985   4.045   1.028   1.747 -0.0060 -0.0090  0.0611
27855W        W42986   4.358  13.245  14.605 -0.2340 -0.0006 -0.0599
27856W        W42987   9.763   0.780   0.194  0.1198  0.1344 -0.2912
27857W        W42988   8.076  11.354   1.833  0.1683 -0.1358 -0.2581
27858W        W42989   3.312   5.036   2.971  0.0994 -0.0624 -0.1664
27859W        W42990  14.629   4.417  15.352  0.1401 -0.0048 -0.3077
27860W        W42991   4.216  17.589   4.859  0.1473  0.0245  0.3292
27861W        W42992   6.437   4.812   4.402  0.0612  0.0136  0.2784
27862W        W42993   8.301   9.821   2.545 -0.0017 -0.1644 -0.1449
27863W        W42994   0.030   9.611   0.411 -0.2582 -0.2117  0.4462
27864W        W42995  11.206   2.456  15.947 -0.0621  0.3479  0.1975
27865W        W42996  15.464   4.712   1.465 -0.1581 -0.0553  0.3220
27866W        W42997  13.649   2.970   3.959  0.2542 -0.0252 -0.0195
27867W        W42998  10.734  13.358   4.976  0.0291  0.0165 -0.4150
27868W        W42999   0.735   0.330   2.382 -0.1888  0.1148  0.0524
27869W        W43000  12.847  14.727   2.682 -0.1330 -0.0184 -0.1523
27870W        W43001   0.492  14.333  11.189  0.1214  0.2480  0.1044
27871W        W43002   9.013  16.684  13.451  0.2507 -0.0747  0.1421
27872W        W43003  10.914  13.190   0.626  0.1047 -0.1693  0.3279
27873W        W43004   9.049   5.403   3.902  0.0341 -0.0035  0.2403
27874W        W43005   0.335   3.074   4.628  0.4278  0.0002  0.0398
27875W        W43006  15.514  13.916   4.156 -0.1149 -0.3118  0.1610
27876W        W43007   6.743   4.080  12.279 -0.2279 -0.1517  0.1385
27877W        W43008   7.867   8.708  15.080  0.0270  0.2168  0.1062
27878W        W43009  17.221  14.350   3.694 -0.2605 -0.1944 -0.3177
27879W        W43010  11.397   1.422   4.282 -0.0483  0.1579  0.0663
27880W        W43011   2.528   6.146  12.508  0.1504  0.1395 -0.2957
27881W        W43012   7.429  10.484   4.403  0.0254 -0.1222  0.0454
27882W        W43013  13.780  15.395  11.297  0.2033  0.3978 -0.4127
27883W        W43014  11.701  18.083   0.091  0.1183  0.0443  0.2229
27884W        W43015  14.641   0.934   2.847 -0.3666 -0.1269  0.0164
27885W        W43016   0.428   8.175   4.835 -0.1185 -0.1505 -0.0056
27886W        W43017   7.109   7.073   4.414 -0.0580 -0.0308  0.2534
27887W        W43018   5.277   3.513  16.074 -0.0012 -0.0437  0.0568
27888W        W43019   4.882   6.307   5.172  0.1062 -0.0961 -0.1780
27889W        W43020   1.470   4.048  11.862  0.3165  0.1846  0.0607
27890W        W43021  14.528   8.882  11.211  0.1981  0.1973 -0.1662
27891W        W43022  16.486  13.156   3.374 -0.1218  0.0127  0.1954
27892W        W43023   8.716   8.737   3.145  0.0700 -0.4352  0.1573
27893W        W43024   8.715   6.814   2.482 -0.0898  0.0393 -0.0145
27894W        W43025   0.845   3.083   4.612  0.1727  0.0568 -0.3524
27895W        W43026  12.118  13.512   6.451 -0.0935  0.3222 -0.0017
27896W        W43027  13.169  12.275  11.026 -0.0028 -0.1654 -0.2637
27897W        W43028   4.166   9.678  10.786 -0.3833 -0.1790 -0.0231
27898W        W43029   0.777  18.027  11.603  0.0128 -0.0889 -0.0181
27899W        W43030  10.524  16.703   3.010  0.0221 -0.2698 -0.1451
27900W        W43031  17.690  12.466  15.465  0.0616 -0.2458  0.0511
27901W        W43032  17.049   5.919   3.426 -0.0085  0.2106 -0.0700
27902W        W43033   0.479  13.946   5.098  0.0123  0.1783 -0.0957
27903W        W43034  15.002  16.427  13.313 -0.2076  0.0534  0.1907
27904W        W43035   5.094   6.700  15.130 -0.0903  0.0727  0.1191
27905W        W43036   6.751   3.211  15.549 -0.0217 -0.0460  0.1531
27906W        W43037  17.418  14.519   5.915  0.0059 -0.2276  0.1070
27907W        W43038   2.809   1.798   0.558 -0.0918 -0.0360 -0.0376
27908W        W43039   8.666  18.048   0.585 -0.1436 -0.0358  0.2896
27909W        W43040  16.667   3.889   0.597  0.1663 -0.4213  0.0860
27910W        W43041   0.459  15.478  15.655  0.0319 -0.0485 -0.0957
27911W        W43042   2.976  15.092   1.645 -0.1148  0.3710 -0.0057
27912W        W43043  12.119   0.557   4.691  0.0222 -0.1216  0.2225
27913W        W43044   5.978   6.006  16.053 -0.1486  0.1650 -0.3239
27914W        W43045  14.677   4.496   3.311  0.0958 -0.1239  0.2121
27915W        W43046  11.022   2.887  12.467 -0.1705 -0.0911  0.2187
27916W        W43047  14.673  13.120   5.406 -0.0365  0.3145  0.2792
27917W        W43048   1.745  11.990  15.196 -0.0284 -0.0826 -0.0203
27918W        W43049  11.704   8.567   1.960  0.0674 -0.4294  0.1347
27919W        W43050   6.529   2.681   2.793  0.3024 -0.2192  0.0063
27920W        W43051   7.532   4.756   0.597  0.0309  0.1151  0.1778
27921W        W43052  16.822   5.458  15.569  0.0698  0.2928 -0.0974
27922W        W43053  14.850   6.546  15.904  0.1042 -0.0552 -0.3737
27923W        W43054   3.988   2.075   2.519  0.2651 -0.0690  0.1509
27924W        W43055   3.415   8.828   0.646 -0.0297 -0.2407  0.0989
27925W        W43056  10.601   9.836   0.684  0.0030 -0.2099  0.3292
27926W        W43057   1.704  16.678   2.695 -0.0418 -0.1149 -0.0516
27927W        W43058   4.081   7.553  14.340 -0.1613 -0.2064  0.0293
27928W        W43059  14.031   4.343  16.183  0.3085  0.2511 -0.0200
27929W        W43060   9.730  17.610  11.742 -0.0881  0.1111  0.0516
27930W        W43061   0.941  10.197   9.932 -0.0033  0.0603 -0.1358
27931W        W43062  16.608  10.445   2.619  0.0372  0.0377  0.0166
27932W        W43063   4.530   6.442   1.316 -0.0853 -0.0653 -0.0286
27933W        W43064   4.410  15.695   6.194  0.0164 -0.0336 -0.0968
27934W        W43065  14.373  11.034   3.598 -0.1140 -0.2223 -0.1571
27935W        W43066  15.501  14.158  14.440  0.1266  0.2996 -0.0776
27936W        W43067  16.224   8.663   3.894  0.1233  0.4240  0.1655
27937W        W43068  12.259   1.700  15.072 -0.0154 -0.2905  0.2491
27938W        W43069   7.764  11.054   4.414  0.3021  0.0206  0.1134
27939W        W43070  17.855  10.335   4.920 -0.0348 -0.2745  0.2053
27940W        W43071   7.622   1.460   2.047 -0.1786  0.0749 -0.2596
27941W        W43072  14.042  15.769   0.574 -0.2385 -0.0889 -0.0763
27942W        W43073  15.091   2.406   2.558  0.0516 -0.5016  0.1132
27943W        W43074   1.096  14.741  15.228  0.1236 -0.0571 -0.2571
27944W        W43075  12.113   0.186  11.054 -0.3916 -0.1557  0.0798
27945W        W43076   2.324  11.902  12.299  0.1160  0.3032  0.0962
27946W        W43077   4.739  10.143  16.425 -0.0970  0.2948 -0.0548
27947W        W43078  10.206  12.632   2.901  0.0379  0.1388  0.1526
27948W        W43079  14.776   1.058   0.217  0.0393 -0.1447  0.3675
27949W        W43080  10.155   5.310  11.657  0.0256  0.0356 -0.1288
27950W        W43081  17.110   1.712  13.134 -0.1893 -0.2072  0.0545
27951W        W43082   8.102  13.152  11.946 -0.1803 -0.0716  0.1623
27952W        W43083   0.050  17.263   4.196  0.0349 -0.1404 -0.1741
27953W        W43084   2.249  14.246   5.461  0.2910  0.1980  0.1347
27954W        W43085  15.564  15.736   2.187 -0.2538  0.3135 -0.0498
27955W        W43086   0.220   0.404  12.133  0.3388  0.1100  0.1470
27956W        W43087  11.492  12.912   5.515 -0.2187 -0.0677 -0.0591
27957W        W43088   2.348   0.460   4.820 -0.0249 -0.1305  0.2021
27958W        W43089   4.915   5.121   2.283  0.0529  0.4515  0.1674
27959W        W43090   1.396   7.854  11.947 -0.1002  0.1219 -0.0114
27960W        W43091  13.609   7.011  15.672 -0.1604 -0.2112  0.0207
27961W        W43092   8.510   9.450   4.328  0.1223 -0.1833 -0.0415
27962W        W43093   1.701  12.076   2.429 -0.0722 -0.3788  0.2639
27963W        W43094  17.613  14.661   3.707 -0.0939 -0.1058 -0.1292
27964W        W43095   1.693  15.216   4.448  0.1596 -0.1532 -0.0537
27965W        W43096  13.257  10.291  13.706  0.0879 -0.5126 -0.1053
27966W        W43097   4.178  15.438   5.322 -0.0452 -0.2391 -0.0902
27967W        W43098  17.857   1.023  15.920  0.0627 -0.1117  0.3335
27968W        W43099   4.395  16.076   5.880 -0.1397 -0.2108  0.1210
27969W        W43100   7.760  10.958  11.561  0.1495  0.0806 -0.2058
27970W        W43101  15.533   5.331   5.673 -0.0953  0.1449 -0.0261
27971W        W43102  13.837   9.187  14.910  0.0095  0.2184  0.1039
27972W        W43103  13.963   9.052  13.193 -0.0109  0.1760 -0.0590
27973W        W43104   0.625   7.572  15.651 -0.2468  0.0008 -0.0254
27974W        W43105   3.894  11.372  14.513 -0.2690 -0.0386 -0.2680
27975W        W43106  13.424  16.594  13.318 -0.0705 -0.0752  0.0631
27976W        W43107  11.506  17.973   0.788 -0.0192  0.2950  0.0139
27977W        W43108   8.245   6.854   5.277  0.1551  0.3317  0.0212
27978W        W43109   3.115   0.252   0.145  0.0930  0.0247  0.0398
27979W        W43110  14.117   3.936   5.296  0.1961 -0.3710  0.1077
27980W        W43111   0.633  11.924   5.102 -0.0233  0.2244 -0.0783
27981W        W43112  11.449  15.236  13.999 -0.0536  0.1443 -0.1826
27982W        W43113  16.782  10.173   1.869  0.0714  0.1118 -0.2077
27983W        W43114  11.381  17.511  13.565  0.3492 -0.3901  0.1696
27984W        W43115  13.913   9.776   0.543 -0.3716  0.2051  0.0769
27985W        W43116  16.222  13.688  10.615 -0.1268 -0.0309  0.1800
27986W        W43117   6.490  10.944   4.944  0.4216 -0.3987  0.1585
27987W        W43118   4.914   0.860  14.053  0.0211  0.0324  0.0180
27988W        W43119   1.833   1.614  12.973  0.1618  0.0807 -0.1390
27989W        W43120  15.728  10.204   3.993 -0.3970 -0.1624  0.1018
27990W        W43121  16.064  16.423   0.467 -0.2963  0.5568  0.1183
27991W        W43122   0.684  16.608   5.757 -0.0367 -0.2279  0.0952
27992W        W43123   9.675  12.585  15.031 -0.1228 -0.3865 -0.1400
27993W        W43124  10.017  10.199   5.065 -0.1032 -0.0656 -0.1067
27994W        W43125   1.002   8.341   2.784 -0.1971  0.1084  0.3280
27995W        W43126   4.904   6.809  11.180  0.0911  0.0685  0.3275
27996W        W43127  10.008   8.771  14.095  0.2689  0.2933 -0.0299
27997W        W43128  13.941   2.763   2.867  0.0863 -0.1605 -0.1678
27998W        W43129   0.011  12.573  11.434 -0.1868  0.1203 -0.1535
27999W        W43130  16.479   4.408  15.242  0.0502  0.0472  0.0090
28000W        W43131  17.132  16.611  12.885  0.0839  0.0107 -0.0118
28001W        W43132   0.060  15.615  12.475  0.0397 -0.1726  0.0301
28002W        W43133  10.215   8.463  10.394 -0.4340  0.4036 -0.1205
28003W        W43134  14.889  17.375   3.289 -0.0124 -0.0731  0.0419
28004W        W43135   4.476  11.813  11.514  0.2335  0.1631  0.1531
28005W        W43136   2.022   9.714  14.898 -0.1331  0.0549  0.0610
28006W        W43137   1.357   8.973  12.703 -0.1924  0.0013 -0.1304
28007W        W43138   6.318   2.955   4.122 -0.0232  0.2003  0.2428
28008W        W43139   0.769   0.719  13.554 -0.0840  0.1265 -0.0101
28009W        W43140  12.901   2.717  11.994 -0.2883 -0.1473 -0.0410
28010W        W43141   8.002   7.112  10.619 -0.0495  0.4732 -0.0885
28011W        W43142   5.000   6.074  13.125  0.3149 -0.0982 -0.0410
28012W        W43143  10.428   0.824   1.860  0.1199  0.2794  0.2801
28013W        W43144  15.695  14.506   2.842 -0.2953  0.2486  0.0485
28014W        W43145   3.074  16.338   1.790  0.1040  0.1567  0.1601
28015W        W43146   2.613  17.377   1.864  0.1354  0.0799 -0.3532
28016W        W43147   9.655  11.100  12.948  0.1175 -0.1680 -0.0497
28017W        W43148   2.897  15.012  13.962 -0.0577 -0.2733 -0.4946
28018W        W43149   6.636   0.498   1.181 -0.0374  0.0708 -0.1589
28019W        W43150  17.144  17.834   3.775  0.1362 -0.2811 -0.2237
28020W        W43151  16.649   9.028  15.238 -0.1573  0.2134  0.3889
28021W        W43152   4.978   8.726  11.281  0.1044 -0.0311  0.2209
28022W        W43153   7.922  17.216   0.711  0.1938 -0.3801 -0.0074
28023W        W43154   1.242   1.016   5.528 -0.3028 -0.0223 -0.1859
28024W        W43155   6.949   8.490   5.595 -0.1536 -0.1502  0.0196
28025W        W43156   8.931  12.408  14.181  0.0322  0.1616  0.2116
28026W        W43157  12.105  17.658   0.086  0.0299  0.2405  0.1381
28027W        W43158   7.651   1.264   2.539 -0.1461  0.0800 -0.0998
28028W        W43159  15.774   7.970   0.227  0.0018  0.1196  0.0572
28029W        W43160  10.222  11.898   5.199 -0.1491 -0.3584 -0.1828
28030W        W43161   9.524  13.346  11.959  0.1561 -0.0470  0.0310
28031W        W43162  15.424   2.013  11.587  0.1027 -0.2758  0.1160
28032W        W43163   4.376   9.567   4.293 -0.2358  0.0846  0.1127
28033W        W43164  10.173  17.233  13.788  0.1952  0.0419  0.1545
28034W        W43165   5.832   1.637   0.614  0.0052 -0.1617 -0.2345
28035W        W43166  12.408   7.530   1.706 -0.0248  0.0340 -0.1978
28036W        W43167   2.342  14.053  14.781  0.1872  0.2788  0.0824
28037W        W43168  15.094  15.378   2.034  0.1085 -0.1634 -0.0091
28038W        W43169   6.227  15.812   2.657  0.1331 -0.1308 -0.1074
28039W        W43170  15.014   3.898   0.206  0.3455  0.1610  0.1539
28040W        W43171   2.735  17.343  11.984 -0.0146  0.2271 -0.0421
28041W        W43172  13.055   1.345  16.204 -0.0695  0.2637  0.1899
28042W        W43173   0.056  16.525  12.046 -0.1020 -0.5068  0.0470
28043W        W43174   2.915  11.360  14.846  0.0470 -0.0438 -0.0776
28044W        W43175   0.500   6.596  16.120  0.2155 -0.2445 -0.1628
28045W        W43176   8.388   9.889   1.129  0.2799  0.2136  0.2018
28046W        W43177  12.064   8.857   2.098 -0.2039 -0.0409 -0.3561
28047W        W43178  14.075  11.797   3.019  0.0375  0.2422  0.1607
28048W        W43179  16.776   0.160   1.193 -0.4791  0.2275 -0.1819
28049W        W43180   2.184  15.995  12.629  0.1105  0.0055 -0.1904
28050W        W43181   3.234   7.794   0.394  0.4060  0.1450  0.3166
28051W        W43182   6.880   8.491   4.615  0.0086 -0.2605  0.0300
28052W        W43183   6.491   3.291   5.391 -0.2140  0.5598  0.0725
28053W        W43184   7.849   1.362   1.268  0.1859 -0.2877 -0.2201
28054W        W43185  16.809   8.429   5.513 -0.0330  0.2987 -0.3900
28055W        W43186  15.515  16.137  15.940  0.1123 -0.0604 -0.3715
28056W        W43187   9.890   0.775   1.180  0.0344  0.3001 -0.1520
28057W        W43188  17.362   7.210   4.492 -0.1677  0.2001 -0.1790
28058W        W43189  14.516   3.187  10.951 -0.1205  0.1867 -0.1580
28059W        W43190   0.683  16.468   4.004  0.0548  0.2509  0.2220
28060W        W43191  15.093   5.167   2.093 -0.5027 -0.0422  0.0982
28061W        W43192   1.451   0.896   6.475 -0.0761  0.7255  0.1689
28062W        W43193  15.987  15.990   2.130  0.2173 -0.0385 -0.1855
28063W        W43194  14.024  16.073   4.701 -0.0878  0.1729  0.1170
28064W        W43195  15.457  13.388  13.777 -0.0795 -0.1518 -0.3102
28065W        W43196  16.263   8.377  11.699 -0.1551 -0.2390  0.1040
28066W        W43197   4.438  17.870   3.971  0.1156  0.2058  0.0679
28067W        W43198  14.246   6.174  12.425  0.0417 -0.0828 -0.1587
28068W        W43199   7.825   0.148   4.054  0.2015  0.1116 -0.0590
28069W        W43200  13.710   3.084  15.992 -0.0797  0.2590  0.1229
28070W        W43201  16.232  13.861  12.879  0.0484 -0.1602 -0.0433
28071W        W43202   8.154  16.248   4.090 -0.0219  0.1866 -0.0283
28072W        W43203   1.467   0.083   1.844 -0.0835  0.2451  0.1391
28073W        W43204  16.280  12.149   6.413  0.0604 -0.0898  0.2246
28074W        W43205  16.133  18.005  12.272  0.2534 -0.1941  0.2976
28075W        W43206  16.317   4.572  14.662 -0.2213  0.0910 -0.1259
28076W        W43207   6.204  10.055   1.167 -0.0320  0.2159  0.4248
28077W        W43208   5.907   3.297   2.328 -0.0841  0.0816  0.0264
28078W        W43209  13.498   3.046  13.938 -0.1158  0.0839 -0.1105
28079W        W43210  13.517  13.131   3.830 -0.0809  0.0411  0.0726
28080W        W43211   4.126   5.634   2.138 -0.3894 -0.2858 -0.0549
28081W        W43212   6.808   8.796  14.413  0.0647  0.0081  0.0636
28082W        W43213   4.365  13.333  16.330 -0.0102  0.2278  0.2939
28083W        W43214  15.528   5.422   2.225 -0.1059 -0.0073  0.0934
28084W        W43215  12.501   8.923   5.468  0.0592  0.1199  0.1733
28085W        W43216  12.825   9.168  11.991 -0.0351 -0.2618 -0.1586
28086W        W43217   3.734  17.408  16.161 -0.0969  0.1710  0.2460
28087W        W43218   8.980   8.488  14.512  0.0220  0.0766  0.1036
28088W        W43219   2.047   3.834  15.411  0.1128 -0.4131  0.2309
28089W        W43220   7.480   3.990  12.608 -0.2370  0.2659  0.1035
28090W        W43221   3.916  17.896  10.445 -0.1867 -0.0308  0.2333
28091W        W43222  12.867  16.440  13.141  0.0122 -0.0303  0.0016
28092W        W43223   9.608   9.248   3.036  0.2134  0.2231  0.0560
28093W        W43224  12.458  13.336  11.205  0.1712 -0.0179  0.1167
28094W        W43225   8.257  10.799   3.860  0.0530 -0.0463  0.1199
28095W        W43226  10.352  15.244   5.577 -0.0980 -0.1991  0.1636
28096W        W43227   0.495   9.352  11.957 -0.1906 -0.0004  0.0824
28097W        W43228   7.258  15.616  11.215  0.0959  0.2016 -0.1013
28098W        W43229  14.091  15.110  11.615 -0.0432  0.0153 -0.2432
28099W        W43230  10.849   2.633  12.095  0.1399  0.2058  0.0730
28100W        W43231  17.539  11.452  11.408 -0.0125  0.1848  0.1979
28101W        W43232  11.380   2.198   2.094 -0.1603  0.1541  0.2270
28102W        W43233  18.031   4.419   6.329  0.0388 -0.0394 -0.1613
28103W        W43234  10.952   9.343   3.426  0.4023 -0.3514 -0.0447
28104W        W43235  15.684   0.431  14.420 -0.1301 -0.0948  0.2143
28105W        W43236  10.541   5.659  12.473  0.1861  0.1198  0.0690
28106W        W43237   8.325  17.844   0.892  0.0093  0.0158  0.3886
28107W        W43238  14.538   7.629  11.273 -0.0607  0.1358 -0.2237
28108W        W43239  12.761   8.936   4.329 -0.2251  0.0040  0.0742
28109W        W43240  11.416  15.245  12.357  0.0658 -0.5003 -0.1162
28110W        W43241  10.364  11.219  15.437  0.0560 -0.0239  0.2560
28111W        W43242  18.069   0.709  13.619 -0.1293 -0.3119  0.0135
28112W        W43243   7.557   5.025  13.618  0.1753  0.2037  0.0059
28113W        W43244  10.017   1.224   3.072  0.1263  0.1918 -0.2050
28114W        W43245  16.266  14.079  16.364  0.1383  0.1432 -0.1733
28115W        W43246  10.201   4.878   2.396 -0.2692  0.1676  0.0690
28116W        W43247  10.810   7.751  10.816  0.0558 -0.3998  0.0914
28117W        W43248   8.291  10.512  12.579  0.0969 -0.0685  0.4710
28118W        W43249  13.755   5.343   1.239  0.0136  0.1438  0.3336
28119W        W43250   3.969   0.980   0.746  0.1316 -0.0718 -0.2701
28120W        W43251   7.908   8.041  11.103 -0.0792  0.2341 -0.4369
28121W        W43252   1.803  12.021  11.799 -0.0453  0.1699 -0.1913
28122W        W43253  15.051  17.817  12.647  0.0237  0.2591  0.0684
28123W        W43254   9.185  12.579   1.473 -0.1515 -0.1082 -0.1084
28124W        W43255  16.617  15.265  11.445 -0.1394 -0.0710 -0.5464
28125W        W43256   6.468  10.482   4.518  0.4687  0.3888 -0.1175
28126W        W43257   3.295  10.545  14.658  0.0194 -0.2469  0.0287
28127W        W43258   1.585   0.441  12.529  0.0995  0.0764 -0.1945
28128W        W43259  11.482   8.059  15.316  0.1212  0.1863  0.1412
28129W        W43260   0.549   9.674   4.602 -0.0724  0.0041 -0.0006
28130W        W43261  10.991   9.007   1.335  0.0549  0.0470  0.1551
28131W        W43262  13.626  17.415   0.534  0.0951 -0.2091  0.2303
28132W        W43263   7.749  10.290   1.821 -0.1148 -0.3353  0.5720
28133W        W43264   7.625   9.189   1.207 -0.0737  0.1155  0.2751
28134W        W43265  13.995   2.424   1.674  0.1196 -0.1947  0.0204
28135W        W43266   3.066   3.732  13.805  0.1192 -0.0237 -0.0318
28136W        W43267   9.073   0.236   4.497  0.3408  0.0409 -0.2668
28137W        W43268  12.475   8.837  15.486 -0.0201 -0.0656 -0.0863
28138W        W43269  17.112  14.773  14.478  0.0650  0.1449  0.0326
28139W        W43270  16.708  15.793   0.904 -0.1444  0.1843  0.2357
28140W        W43271  12.137   3.166  12.733 -0.0960  0.0589  0.1463
28141W        W43272   8.121   2.685   4.856 -0.2919 -0.1338 -0.0154
28142W        W43273   7.179   4.649   1.774 -0.0879  0.0530  0.1965
28143W        W43274   2.218   3.637   0.199 -0.1397 -0.0349  0.3442
28144W        W43275  14.104   4.230   0.439  0.2276 -0.1944  0.0033
28145W        W43276  10.515   0.202   2.872  0.0242 -0.0935  0.2496
28146W        W43277   3.979   8.300  11.081 -0.1541  0.1766 -0.4329
28147W        W43278   4.934   5.828  12.687 -0.1476 -0.2473  0.2229
28148W        W43279   0.838  10.736  12.706  0.2596 -0.3221  0.0763
28149W        W43280   4.180  14.545  12.816 -0.0028  0.1673  0.3482
28150W        W43281  12.425  17.217   0.517  0.1674  0.0873 -0.1631
28151W        W43282  11.868   7.255   0.705  0.0858 -0.1532  0.0572
28152W        W43283  15.981  13.914  14.411  0.2242 -0.0491  0.0137
28153W        W43284  15.645   6.029   4.307 -0.1917 -0.2237 -0.0529
28154W        W43285  17.182  14.166  11.988  0.0538 -0.0275 -0.1635
28155W        W43286   4.684   3.348   0.771 -0.0802 -0.1270 -0.2128
28156W        W43287   8.631  11.467  10.544 -0.2425  0.3268  0.0193
28157W        W43288  15.698  15.810  16.321  0.0991 -0.1361 -0.0308
28158W        W43289  14.091   7.100   2.110 -0.1746  0.0287 -0.0188
28159W        W43290  13.265   2.081   0.621 -0.1768 -0.0790 -0.3409
28160W        W43291   6.165  11.695   0.489  0.0881  0.2012  0.0262
28161W        W43292   8.277   1.069   2.563 -0.0977  0.3441  0.2893
28162W        W43293   0.795  16.204  15.065 -0.1183  0.0726  0.0984
28163W        W43294  11.663   5.165  12.479 -0.2311  0.0972  0.2196
28164W        W43295   3.690  15.341   5.317  0.1245 -0.2242 -0.0759
28165W        W43296   6.220  15.032   5.650 -0.0488  0.2301  0.0045
28166W        W43297  17.433   5.790   5.035  0.1305 -0.5259  0.0220
28167W        W43298  17.434   4.693   4.935  0.0044  0.0480  0.0277
28168W        W43299  14.534  15.606  10.839 -0.2017  0.2942  0.0346
28169W        W43300   3.738   5.009   4.830 -0.3230 -0.0107  0.0983
28170W        W43301   1.994  17.895   2.085  0.0348 -0.0279 -0.1167
28171W        W43302   1.009  10.017   2.903 -0.2866  0.0810 -0.0554
28172W        W43303  12.943  16.884  15.895  0.2404  0.2287  0.2825
28173W        W43304  14.149   2.477  13.159 -0.0440 -0.2496  0.1743
28174W        W43305  16.813  12.912  12.243 -0.1542  0.0118 -0.0747
28175W        W43306  14.054   8.860  10.948 -0.2484 -0.0073 -0.2932
28176W        W43307   1.609   0.133  15.268  0.0558 -0.1584 -0.1930
28177W        W43308  11.839  14.923   4.757 -0.0830  0.3293 -0.1943
28178W        W43309   0.371   4.842   0.615  0.0018  0.3375 -0.0458
28179W        W43310   8.678   4.269  15.042 -0.4028 -0.0147 -0.0127
28180W        W43311  14.820   4.176  11.556  0.0184  0.1623 -0.1755
28181W        W43312   1.054   5.713  16.181 -0.0141  0.0694  0.2156
28182W        W43313   6.427   1.452   1.305  0.0335  0.5859 -0.0275
28183W        W43314  12.098   7.855   5.392 -0.1588  0.3415 -0.0885
28184W        W43315   3.891   8.055   4.019 -0.1297 -0.1200  0.0533
28185W        W43316   5.629   7.103   1.934 -0.2396  0.2614  0.2569
28186W        W43317   8.919  12.166  11.768 -0.1069  0.3384  0.1166
28187W        W43318   0.366   7.492  14.136  0.2615 -0.0368  0.3484
28188W        W43319   2.870   8.405   1.703 -0.0623 -0.1083 -0.3466
28189W        W43320  17.029  14.992  12.677 -0.3102 -0.2002  0.1856
28190W        W43321  13.352  17.210   4.850 -0.0245 -0.2838 -0.1987
28191W        W43322   7.968   5.350  13.428 -0.1785 -0.2700  0.1268
28192W        W43323  10.949  16.747  15.995  0.0612 -0.1981  0.2443
28193W        W43324   5.049  17.100   2.188 -0.0066  0.3860  0.0291
28194W        W43325   0.127   9.432   3.989  0.1415 -0.2727 -0.0788
28195W        W43326   3.697  13.832   1.456 -0.3279 -0.2133 -0.2169
28196W        W43327   1.603   9.245   1.928  0.0704 -0.1859  0.1941
28197W        W43328   3.994   5.114  14.547 -0.2896 -0.1690  0.0297
28198W        W43329  15.274   4.714  14.597  0.0021  0.3449  0.1974
28199W        W43330  17.963  11.096   5.407  0.1207 -0.0132 -0.1904
28200W        W43331   0.346  14.934  14.115 -0.1535 -0.1194  0.1846
28201W        W43332  13.510   8.075  16.365  0.3129  0.1016 -0.2258
28202W        W43333   7.217  11.837  13.931  0.0203 -0.0761  0.0633
28203W        W43334  11.577   0.449   4.525 -0.0229 -0.0662 -0.1849
28204W        W43335   9.843  13.758   5.409  0.1814 -0.1341 -0.0786
28205W        W43336  11.575   0.118  10.816 -0.2091 -0.1165 -0.2557
28206W        W43337  16.004  12.656   4.504  0.4277  0.0114 -0.5043
28207W        W43338   9.992  10.708  13.870 -0.0421  0.0872 -0.0085
28208W        W43339   8.785  10.826  11.398 -0.0017 -0.1593  0.0973
28209W        W43340   0.067  12.399  15.687 -0.2418  0.1218  0.2006
28210W        W43341  12.258   7.782  14.936 -0.1922  0.0669  0.2489
28211W        W43342  13.019  12.075   1.752 -0.0203 -0.0919 -0.0137
28212W        W43343   0.235   2.394  16.112  0.0738  0.3977  0.2218
28213W        W43344  16.941   5.210  14.814  0.2283 -0.1059 -0.0171
28214W        W43345   4.767  12.284  11.334 -0.1149 -0.0001 -0.0226
28215W        W43346  10.719  10.347  12.464  0.0324  0.4100  0.0485
28216W        W43347   6.846  13.484   2.504  0.0463  0.0848  0.1483
28217W        W43348   5.478   5.858   5.541  0.3061  0.0127  0.2176
28218W        W43349   6.155   6.286  14.536 -0.1131 -0.1041 -0.0216
28219W        W43350  10.028  13.586  11.615 -0.3050  0.1724  0.1282
28220W        W43351   8.907   7.236  12.858  0.4611 -0.1132 -0.2468
28221W        W43352  14.459  16.125   4.397  0.1855  0.0218 -0.0061
28222W        W43353   2.592   4.595   1.859  0.0299 -0.0755  0.2861
28223W        W43354  10.783  10.324   3.146 -0.1446 -0.0758  0.1371
28224W        W43355   7.951  12.975   4.500 -0.0399  0.3816 -0.0468
28225W        W43356   8.838  11.150   1.484  0.0255 -0.0256 -0.2054
28226W        W43357  12.568   7.787   2.907  0.0555  0.1360  0.1792
28227W        W43358  10.906   8.773  11.141  0.2274  0.0115 -0.3222
28228W        W43359   2.100  11.082  12.621  0.0275  0.1275  0.1393
28229W        W43360   1.977  10.313  11.544 -0.2404 -0.2096  0.3705
28230W        W43361   7.126   8.735   3.271  0.1341  0.1815 -0.3437
28231W        W43362   1.712   7.783  13.873  0.1962  0.0849  0.2357
28232W        W43363   4.213   7.115   2.984  0.1968  0.1245  0.0070
28233W        W43364  12.381   1.677  11.342 -0.2341 -0.0208 -0.0337
28234W        W43365   0.268   0.922  16.082 -0.2838 -0.2629 -0.1742
28235W        W43366  10.801   4.230  15.702 -0.1261 -0.0853  0.0192
28236W        W43367   6.943  14.686  13.737  0.0144 -0.0761 -0.3616
28237W        W43368  14.965   0.741   5.339  0.1299 -0.4275  0.1740
28238W        W43369  11.965   3.163  15.282 -0.2494  0.1588 -0.0843
28239W        W43370  17.171   3.254  12.527 -0.0163  0.1425  0.0028
28240W        W43371  13.642   1.554   4.375 -0.4902  0.2083 -0.0645
28241W        W43372  11.378   5.209  12.041 -0.1878 -0.1889  0.1191
28242W        W43373   3.798  12.496   3.184 -0.1565  0.0996 -0.0294
28243W        W43374  17.766   6.460   5.672 -0.0024  0.1751  0.2129
28244W        W43375  14.069  14.507   5.412  0.2364  0.0804  0.0050
28245W        W43376  16.391  14.332  11.333  0.0100 -0.1138  0.2034
28246W        W43377   9.873  14.562   4.140  0.2903  0.1158  0.0861
28247W        W43378  11.724   9.937  12.879 -0.0491 -0.2305 -0.1839
28248W        W43379  11.373  15.723  14.089 -0.0072 -0.0724  0.4331
28249W        W43380   1.588   9.995  11.089  0.0603 -0.0982  0.2571
28250W        W43381  13.861  17.744  14.262  0.1612 -0.3431  0.0818
28251W        W43382   4.463  12.129   2.749  0.1965  0.0088 -0.1592
28252W        W43383  14.519   7.649  13.154 -0.2867  0.1987 -0.1684
28253W        W43384  11.819  15.536  13.739  0.2584  0.1092  0.0287
28254W        W43385   7.589  10.851  15.938  0.0082  0.1238  0.0429
28255W        W43386   8.169  16.694   3.141 -0.0519  0.2340 -0.1839
28256W        W43387   9.863  13.497   0.649 -0.0203  0.1478 -0.1761
28257W        W43388  18.062   1.414   4.140  0.0005 -0.2447 -0.1108
28258W        W43389  14.905   3.609  12.326 -0.1273 -0.3556  0.0066
28259W        W43390   8.954   9.223   2.225  0.1940 -0.2240 -0.0675
28260W        W43391  12.828   0.747   1.623 -0.2257  0.0259 -0.2301
28261W        W43392   2.012   2.057  13.305 -0.0087 -0.2346  0.1652
28262W        W43393  14.659  14.103   5.989  0.1674  0.3594 -0.0730
28263W        W43394  16.100   7.675   1.050  0.0810 -0.0514  0.0852
28264W        W43395  12.890   6.655  15.197 -0.1282  0.0687  0.0455
28265W        W43396  11.188  11.112   5.416  0.0570 -0.2672 -0.0385
28266W        W43397  12.535  16.457  14.468 -0.3077  0.3266 -0.0809
28267W        W43398   7.980   3.632  12.599 -0.1216  0.0473 -0.1294
28268W        W43399  14.635   4.806   0.894  0.2999  0.0955 -0.0636
28269W        W43400  13.033   8.516   6.344 -0.0076  0.2857 -0.3989
28270W        W43401  15.270  17.175   2.965 -0.2046  0.3420  0.2700
28271W        W43402  10.438   7.898  11.286 -0.0421 -0.2014 -0.0842
28272W        W43403  15.925   7.313   4.708  0.0954 -0.2600  0.1902
28273W        W43404   4.128  10.656   2.352 -0.0743 -0.2264  0.1369
28274W        W43405  10.547  13.508   3.829  0.2375 -0.1809  0.4598
28275W        W43406   0.969   1.754  14.633 -0.0090  0.0938  0.4394
28276W        W43407   8.920  16.714   6.226 -0.1256  0.3548  0.2101
28277W        W43408  11.228  13.197  11.388 -0.0719 -0.3837 -0.0185
28278W        W43409  15.616  14.981   0.829 -0.2383  0.0551 -0.4364
28279W        W43410   4.209   5.287  15.935 -0.1160 -0.1320 -0.0235
28280W        W43411   3.028   0.968  15.053  0.1261  0.0672 -0.1140
28281W        W43412   4.462  14.193  13.553 -0.0822 -0.0365 -0.2783
28282W        W43413   1.849  12.873   6.009  0.1120  0.1679 -0.1405
28283W        W43414  15.483   9.314  14.108  0.0587 -0.0482 -0.1922
28284W        W43415  15.475  10.174   5.681 -0.0630 -0.0646 -0.0226
28285W        W43416  10.810   0.062  15.760  0.2658 -0.1027  0.1635
28286W        W43417  13.687   6.606  15.973  0.1640  0.0489 -0.1348
28287W        W43418   1.657   0.976   0.397 -0.1058  0.2884 -0.2394
28288W        W43419  15.824  12.196  13.532  0.0341 -0.4517 -0.2181
28289W        W43420  11.416  11.045   0.576 -0.0232 -0.2207  0.0799
28290W        W43421  12.659   4.003  13.500 -0.2539  0.0493 -0.2733
28291W        W43422   3.006   6.294  12.847 -0.1302  0.2879  0.0594
28292W        W43423   5.243   6.439   4.836  0.0356  0.2580 -0.2702
28293W        W43424  10.273   7.545   4.561  0.4257  0.0617 -0.0556
28294W        W43425   8.717   5.403   1.295 -0.1323  0.1816  0.0046
28295W        W43426  14.569   4.399  16.406  0.3341  0.1396  0.0725
28296W        W43427   5.343   8.078  11.786  0.1636  0.1619  0.0062
28297W        W43428   9.774   2.613   1.484 -0.1905  0.0333 -0.1373
28298W        W43429  10.858  17.318  14.378 -0.2746 -0.0712  0.3150
28299W        W43430  16.959  13.416  13.229  0.0173 -0.0406  0.0437
28300W        W43431   1.114   8.598  14.545  0.2927  0.0285 -0.2425
28301W        W43432  15.790  14.386  13.506  0.1415 -0.2030  0.0450
28302W        W43433   6.256   7.991   0.447 -0.1701 -0.2287  0.0941
28303W        W43434   3.806  17.026  12.436 -0.1876 -0.0204 -0.0365
28304W        W43435  13.483   2.048   2.457 -0.0629 -0.3552  0.1707
28305W        W43436   5.985   7.183   3.323  0.2660 -0.1600 -0.0739
28306W        W43437   2.864   7.707   2.510 -0.0989 -0.1811  0.1831
28307W        W43438   3.653  13.461  15.999 -0.3423  0.1390 -0.0516
28308W        W43439   8.977  11.657   1.571 -0.4700  0.3329 -0.0908
28309W        W43440   9.584   2.003   3.014 -0.2862 -0.0366  0.0110
28310W        W43441   3.495   1.935  14.886 -0.0969  0.1060 -0.1642
28311W        W43442  12.246   2.678  15.070 -0.0378 -0.2637  0.1982
28312W        W43443   4.325   5.269  13.171  0.0409  0.1557 -0.1239
28313W        W43444   8.316  11.277  14.814  0.1166 -0.1088 -0.0548
28314W        W43445   9.797  17.611   3.028  0.0064 -0.0885  0.3212
28315W        W43446   6.654   2.601  14.492 -0.0532 -0.0392  0.0534
28316W        W43447  14.464   4.608   5.964  0.0697 -0.2048  0.0887
28317W        W43448  14.872   5.282  12.037 -0.0016 -0.0623  0.2346
28318W        W43449   5.271  15.014   0.987 -0.1585  0.1133 -0.4999
28319W        W43450  11.260   7.597   9.788 -0.1766  0.0701  0.0932
28320W        W43451  13.012   4.668  15.238  0.1201  0.2021  0.0372
28321W        W43452   4.475   3.311  15.948  0.1564 -0.0391  0.2741
28322W        W43453   1.677  13.162   5.511 -0.0958  0.0936 -0.3019
28323W        W43454  10.740  15.659   3.933 -0.1778 -0.1655  0.1850
28324W        W43455   6.788   8.361   2.094  0.1560 -0.0517 -0.0375
28325W        W43456   9.128   3.495   2.797 -0.0333  0.2208 -0.1487
28326W        W43457   9.477   7.784  14.221 -0.2813 -0.2572 -0.0873
28327W        W43458  10.028  11.083  15.831  0.0159 -0.0005 -0.1476
28328W        W43459   9.140  12.269  10.502 -0.2631 -0.0788  0.3959
28329W        W43460   4.687   4.730  14.956 -0.1686 -0.1058 -0.1368
28330W        W43461  14.459   2.425  15.525  0.3154  0.0178  0.0484
28331W        W43462   8.552   0.013   2.230  0.3820  0.0189 -0.2498
28332W        W43463  13.960  10.096   2.713  0.0112 -0.2647 -0.0432
28333W        W43464   2.607   8.304  10.897 -0.1341  0.0941 -0.0022
28334W        W43465   5.495   5.939   2.102  0.1821 -0.4143 -0.1525
28335W        W43466  14.762   3.893  15.062  0.1960  0.0964 -0.0707
28336W        W43467  12.686   1.053   5.362 -0.0056  0.3162 -0.1064
28337W        W43468  15.695   0.261   2.731 -0.1638 -0.2798  0.1493
28338W        W43469   8.039  16.819  12.435 -0.1515  0.0209  0.0009
28339W        W43470   1.363  12.346  13.253  0.2868 -0.1504 -0.0640
28340W        W43471  10.256  15.982   4.048 -0.3941 -0.1961  0.1769
28341W        W43472  15.269  17.208  14.692 -0.1481  0.1613 -0.0861
28342W        W43473   4.864   7.992  11.953 -0.0383  0.0414  0.1360
28343W        W43474   1.451  11.093   2.590 -0.2121  0.2273  0.0977
28344W        W43475  14.970   1.539   3.916  0.0345 -0.0174 -0.2540
28345W        W43476   7.353   6.218   4.395 -0.0263 -0.0482 -0.2337
28346W        W43477   1.998   6.705  12.964  0.0828 -0.0735 -0.2317
28347W        W43478  17.846  14.628  16.052  0.1500 -0.0393  0.2531
28348W        W43479  13.204   2.657   4.214  0.0685  0.0215  0.0363
28349W        W43480  12.497  17.427   4.153 -0.0708  0.0453  0.2251
28350W        W43481   1.294   2.481   0.733  0.5688  0.0264  0.0014
28351W        W43482  11.170   4.297  13.077 -0.2537  0.1954  0.1168
28352W        W43483  12.381   5.222  13.055 -0.0745  0.0915  0.1523
28353W        W43484  14.374   0.400  13.548  0.0447  0.0597  0.1975
28354W        W43485   0.019   8.226  14.378 -0.0216  0.0077  0.0695
28355W        W43486  12.126   5.669  11.800 -0.1087  0.0559  0.0464
28356W        W43487   1.107   9.955  10.328 -0.2401 -0.1496 -0.1120
28357W        W43488  16.519   0.124   3.212 -0.0676  0.0757  0.1495
28358W        W43489  17.378   4.350   5.636 -0.2883 -0.0779  0.0718
28359W        W43490   2.180  14.691  13.754  0.0404  0.3031 -0.1618
28360W        W43491   3.828   8.927   4.402 -0.0736  0.1319  0.2717
28361W        W43492   8.909  13.854   2.138  0.1633 -0.1584 -0.1485
28362W        W43493   6.626  15.479  14.629  0.0602 -0.0079  0.0101
28363W        W43494   7.299  12.007   3.798  0.1482 -0.1739  0.0541
28364W        W43495  12.771  15.090  15.072  0.1653 -0.0737  0.0373
28365W        W43496  14.518  12.002  15.966 -0.1491 -0.1064 -0.0907
28366W        W43497   2.883  17.544   6.138  0.1606  0.0797 -0.1018
28367W        W43498   7.836  14.714   5.675 -0.2474 -0.1347  0.0756
28368W        W43499  10.097  16.068   4.999  0.1091 -0.2959 -0.1868
28369W        W43500   6.531   9.991   5.035 -0.0100  0.1983  0.0947
28370W        W43501   3.427   0.081  12.479 -0.2174 -0.2839  0.0591
28371W        W43502   8.228   7.446  16.160  0.0239  0.2046  0.1950
28372W        W43503  14.793   3.687  16.144  0.0852 -0.1592 -0.0939
28373W        W43504   6.149  14.866   4.259  0.2843 -0.0329 -0.1832
28374W        W43505   1.224   2.741   4.831  0.1449 -0.0525  0.0619
28375W        W43506  13.635  10.165  11.547  0.2247  0.1262  0.1836
28376W        W43507   9.728  16.015  15.579 -0.1172 -0.0708 -0.1711
28377W        W43508  10.810  17.876  11.739 -0.1553  0.2476  0.0509
28378W        W43509   0.457  11.121   0.417 -0.1120 -0.1142  0.2949
28379W        W43510   4.878  17.404  13.378 -0.1024 -0.0087 -0.2521
28380W        W43511  18.074  15.763   6.289 -0.1045  0.0282 -0.3276
28381W        W43512   0.736   2.949  14.185 -0.1278 -0.1741  0.1428
28382W        W43513   6.896   1.957  12.068 -0.2204 -0.0573  0.2620
28383W        W43514  16.653   7.927   2.649 -0.0326 -0.0290 -0.1232
28384W        W43515  10.734  16.713   5.459 -0.2024  0.1582  0.0348
28385W        W43516   0.812   2.199   3.098  0.1733  0.2286 -0.1432
28386W        W43517  11.213   4.897   3.635  0.0842 -0.2476 -0.1905
28387W        W43518   4.404   2.299  11.049  0.0763 -0.1871  0.3113
28388W        W43519   7.626  12.524   1.860 -0.2030 -0.2802 -0.1014
28389W        W43520   7.718  16.508  12.231 -0.0131  0.1488  0.1127
28390W        W43521  14.214  12.978   1.401  0.0731  0.0835  0.4232
28391W        W43522   2.090  17.246  16.238 -0.0840 -0.0124  0.2182
28392W        W43523   2.992  14.924   4.201 -0.0224  0.2636  0.1559
28393W        W43524   3.293  12.574  13.720  0.0718 -0.0357  0.0269
28394W        W43525   7.536  10.755   5.580 -0.1559 -0.3483  0.0906
28395W        W43526  12.498  13.714   1.759  0.2546  0.1489  0.1861
28396W        W43527   3.843   7.372   3.827  0.0024 -0.0183  0.1263
28397W        W43528   7.669   4.593  16.291 -0.2232 -0.4106 -0.1694
28398W        W43529  15.029   6.736  11.100  0.0204  0.0457 -0.1369
28399W        W43530   9.986   5.376   3.556  0.0366 -0.0478 -0.3005
28400W        W43531   8.253   4.336  15.727 -0.1481 -0.2760 -0.2109
28401W        W43532  16.468  11.769   4.638  0.0450  0.1279 -0.1085
28402W        W43533  14.265  10.182   0.018 -0.0036  0.2549  0.1548
28403W        W43534  10.243  11.286   5.884 -0.0377 -0.1898  0.1958
28404W        W43535  17.222   3.647  13.443 -0.0744  0.0974 -0.0784
28405W        W43536  16.660  12.737  16.206 -0.0071 -0.1751 -0.4423
28406W        W43537  14.561   4.994   3.502 -0.0526 -0.0091 -0.0400
28407W        W43538  16.410   9.201  14.175 -0.0833  0.0695  0.0471
28408W        W43539   0.354   7.090   0.435 -0.2601 -0.0538 -0.1741
28409W        W43540  14.297   0.315   1.698  0.1654  0.3008  0.0886
28410W        W43541  17.119   9.670   5.511  0.2229  0.2143 -0.0202
28411W        W43542  12.778   1.940   3.093  0.2336 -0.1292 -0.1706
28412W        W43543   1.138   0.796   3.405  0.0574  0.1397 -0.0855
28413W        W43544  12.462  10.508   0.522 -0.2563 -0.0722  0.4431
28414W        W43545  11.485   0.619  15.313  0.0441  0.0776  0.0041
28415W        W43546  10.233  12.756   0.900 -0.0860 -0.1964  0.0162
28416W        W43547  16.229   9.702   6.574  0.1282  0.2088 -0.2543
28417W        W43548   1.853   5.952  14.597  0.1464 -0.1031 -0.0263
28418W        W43549  11.086   3.845  16.039 -0.2633  0.0259  0.1880
28419W        W43550  17.175   1.643   3.527 -0.1238  0.0424  0.3542
28420W        W43551   5.075  16.993  11.844  0.1096 -0.1540 -0.2746
28421W        W43552  17.963   0.633   5.132  0.1804  0.3113  0.1175
28422W        W43553   5.339  14.401   2.098  0.1607 -0.0519  0.1375
28423W        W43554   8.539  17.762  10.818  0.3353  0.1994  0.0979
28424W        W43555  14.818  14.361   1.477  0.3594  0.1273  0.2592
28425W        W43556   6.022   4.534   1.377  0.0406 -0.0111  0.0866
28426W        W43557   3.893   3.338  12.159 -0.0488 -0.0502 -0.1704
28427W        W43558  13.789   1.778   3.618 -0.3897 -0.3210  0.0364
28428W        W43559  14.125   8.217   3.576 -0.0015 -0.4916 -0.1420
28429W        W43560  12.426  12.782  13.190 -0.1456  0.2513 -0.2967
28430W        W43561   6.122  10.492  11.646  0.1700  0.2360 -0.0356
28431W        W43562   7.847   6.996   2.128 -0.0459  0.1260  0.0749
28432W        W43563  12.787  16.589   1.300  0.1895 -0.1792  0.1356
28433W        W43564  11.656  12.401  13.201  0.0713 -0.2021 -0.1597
28434W        W43565   7.815   6.013  11.169  0.3022 -0.1586 -0.2313
28435W        W43566   1.149   8.101  14.667  0.0329 -0.0315  0.1907
28436W        W43567   3.854   0.459   2.594  0.2507  0.1675 -0.0911
28437W        W43568  17.272   5.347  13.688  0.0747  0.1370  0.2792
28438W        W43569   8.454  13.669  13.181  0.0472 -0.2804 -0.2436
28439W        W43570   4.610   3.507  16.434  0.1655 -0.0625  0.0056
28440W        W43571  15.929  12.826  12.028 -0.1864  0.1094  0.2147
28441W        W43572   1.531  10.396   0.415  0.1041 -0.1077 -0.4637
28442W        W43573   6.214   3.516   3.192  0.3710  0.1650 -0.0409
28443W        W43574   5.950   9.288  16.435 -0.0183  0.1023  0.2357
28444W        W43575   4.739   7.675   3.956 -0.3966  0.2029 -0.1168
28445W        W43576  15.071  16.324  14.312 -0.1515 -0.2989  0.0457
28446W        W43577   5.605   4.371  15.163  0.3911  0.0048 -0.0637
28447W        W43578   4.548  16.524  16.342  0.1499  0.2640 -0.0506
28448W        W43579   1.124  12.883   4.247  0.0182 -0.0233  0.3800
28449W        W43580   9.809  17.004  13.519  0.1344  0.0494  0.1085
28450W        W43581  11.108   0.226  12.513  0.0263 -0.1287 -0.0785
28451W        W43582   5.765   1.453  15.068 -0.0426  0.0777  0.1335
28452W        W43583   1.955  12.920  13.339 -0.1880 -0.0678  0.2325
28453W        W43584  13.223   3.150  12.899  0.0880  0.0939 -0.2330
28454W        W43585   3.632   5.586  13.389 -0.1595  0.0776 -0.2677
28455W        W43586   0.071   6.037  16.091  0.0504 -0.0743 -0.1400
28456W        W43587   4.208  15.016   3.876 -0.2226  0.1539 -0.1390
28457W        W43588   3.863   5.681   2.614  0.0757 -0.2038  0.1485
28458W        W43589   3.593  16.540   2.579  0.1106  0.1156 -0.0885
28459W        W43590  15.948   2.060   3.301  0.1110  0.0344 -0.1006
28460W        W43591   4.707  15.537  12.543  0.1410 -0.1998 -0.3682
28461W        W43592  13.582   5.473  15.333  0.0354  0.2279  0.2217
28462W        W43593  10.736   7.902  13.250 -0.0319  0.0309  0.0878
28463W        W43594  15.479  10.611  14.208  0.0450 -0.0598 -0.1069
28464W        W43595   5.358  12.841   0.554  0.1334  0.0218 -0.1407
28465W        W43596   1.145  15.500   3.180  0.1216 -0.0223  0.3386
28466W        W43597  17.620   7.869  15.316 -0.0908 -0.5161  0.0130
28467W        W43598  10.698  16.447   0.793  0.0858 -0.1634  0.1251
28468W        W43599   3.223  16.735   4.847 -0.1329 -0.1229 -0.0401
28469W        W43600   4.756  17.461  16.086  0.0245  0.2727  0.0078
28470W        W43601  17.083   5.715   1.884 -0.0902  0.0857  0.0915
28471W        W43602  11.993  11.012  13.053 -0.1065  0.1812 -0.1581
28472W        W43603  10.306  15.900  11.688 -0.1971  0.0724  0.0774
28473W        W43604  10.838  14.615   1.196 -0.1396 -0.0107 -0.2571
28474W        W43605   8.336   4.052   3.604  0.2190 -0.0673  0.1394
28475W        W43606   6.923   1.576  12.580 -0.0926 -0.0908 -0.0158
28476W        W43607   1.453  13.189   4.562 -0.0881 -0.0931 -0.0360
28477W        W43608  10.036   9.783  15.326  0.2420  0.3131 -0.0348
28478W        W43609   1.671  17.521   1.841 -0.0108  0.0978 -0.0359
28479W        W43610  16.255  11.496  15.484 -0.1297 -0.2701 -0.1529
28480W        W43611  12.016  15.335  11.304  0.4087 -0.0312  0.0024
28481W        W43612   3.535   0.947  15.150 -0.4151  0.0295 -0.0801
28482W        W43613   0.893   7.843  11.964 -0.0637 -0.2049  0.1970
28483W        W43614   3.772  16.650  13.310  0.2340  0.2815 -0.2113
28484W        W43615  10.787  16.600   3.935 -0.1285 -0.3054  0.1353
28485W        W43616   4.518  11.416   2.646  0.1127 -0.1196  0.0713
28486W        W43617  14.444   4.842  15.607 -0.0357 -0.1063 -0.0154
28487W        W43618  12.721   6.782  16.377  0.2773 -0.1400  0.0365
28488W        W43619   2.899   6.276   3.898 -0.0240  0.2375 -0.2879
28489W        W43620  13.822   8.981   3.196  0.0906 -0.0948 -0.0721
28490W        W43621   0.148  12.293  13.246  0.0671 -0.3076  0.2056
28491W        W43622   8.967   4.735  12.916 -0.3790  0.0972  0.1369
28492W        W43623  10.374   2.745   0.393 -0.2472 -0.0134 -0.1193
28493W        W43624   6.571  16.217   3.778 -0.1502 -0.0148 -0.1342
28494W        W43625   6.616  15.452  13.064 -0.0908 -0.2347  0.3289
28495W        W43626  13.919  10.427  12.039  0.0846  0.0105  0.0369
28496W        W43627  12.765   9.146  11.244 -0.0033  0.0976  0.0661
28497W        W43628   9.286  10.847  12.670  0.0257 -0.0446  0.1352
28498W        W43629   7.174  10.709  11.376 -0.0401 -0.2256  0.1582
28499W        W43630   9.193   2.902   2.128 -0.0992  0.2240 -0.0562
28500W        W43631   1.941  14.821  16.432 -0.0744  0.2319  0.0439
28501W        W43632  10.727   5.521  14.034 -0.1126  0.1462 -0.0336
28502W        W43633  11.708   9.207  11.303 -0.2279  0.0831 -0.0573
28503W        W43634   0.122   3.304   3.686  0.0185 -0.1244 -0.0558
28504W        W43635   3.982   0.531  13.157 -0.3077  0.1334  0.2487
28505W        W43636   7.423   9.189  12.397  0.2873  0.1434  0.0104
28506W        W43637  12.173   9.658  15.360  0.1800 -0.1602 -0.0336
28507W        W43638   4.592   4.500   0.472  0.1904  0.0991  0.1107
28508W        W43639   3.602   7.703  14.193 -0.1971 -0.0373  0.3629
28509W        W43640   7.281   3.134  13.089 -0.1448 -0.0992  0.0508
28510W        W43641  17.505  16.047  12.290  0.1255  0.0014 -0.0851
28511W        W43642  17.032   7.133  13.960 -0.1236  0.1314 -0.1025
28512W        W43643   8.786   7.553   3.623  0.2080 -0.1447 -0.1853
28513W        W43644  11.668  15.074  15.435  0.0717  0.0028 -0.1561
28514W        W43645  10.495  17.293  14.881  0.3473 -0.2930 -0.2423
28515W        W43646  11.645  16.749   5.117  0.1164  0.0199  0.1726
28516W        W43647   8.418  10.657   0.722  0.3280  0.1113  0.1615
28517W        W43648  17.515  13.041   0.613  0.0691  0.0145 -0.0921
28518W        W43649  18.038  14.374   2.155 -0.1825  0.3669  0.1726
28519W        W43650   8.542   6.420   2.801  0.1685 -0.2434 -0.0724
28520W        W43651  12.629  14.119   3.482 -0.1305  0.0330 -0.2050
28521W        W43652   5.373   4.021   3.272  0.1374  0.0815  0.0705
28522W        W43653   7.348  16.534   3.118  0.1145 -0.0286  0.0844
28523W        W43654   1.062  10.669  13.239 -0.1108 -0.2544  0.0096
28524W        W43655   4.638  12.985  14.209  0.2982 -0.1740 -0.0116
28525W        W43656  16.185   1.583  12.874  0.0880  0.2023 -0.2503
28526W        W43657  14.100   1.879   4.998  0.2366 -0.2141 -0.0103
28527W        W43658  15.760  16.427   2.874  0.0718 -0.1847  0.0650
28528W        W43659   2.286  14.568   3.658  0.0520  0.1132  0.2242
28529W        W43660  10.253  17.518   1.805  0.0024 -0.0150 -0.1200
28530W        W43661  11.193   1.680  12.080  0.0755 -0.1975 -0.0297
28531W        W43662   3.592  16.330  14.481  0.0078  0.0557  0.1608
28532W        W43663  13.267   3.536   1.288  0.2892 -0.1547  0.0774
28533W        W43664   0.956   9.055  14.277 -0.0504  0.1358  0.0771
28534W        W43665  10.968   7.501   3.672 -0.1888 -0.1990 -0.0308
28535W        W43666   8.599   5.285   0.517 -0.2652 -0.1665 -0.2154
28536W        W43667   7.877   4.216  11.643 -0.1224 -0.1877  0.0348
28537W        W43668  12.928   0.065  14.253 -0.2033  0.0455 -0.0853
28538W        W43669   9.578  10.587   5.737 -0.0552  0.2852 -0.1784
28539W        W43670  11.266  14.711  11.363  0.0068  0.0330  0.1669
28540W        W43671  11.252   5.366   1.473  0.1516  0.1973 -0.1389
28541W        W43672  11.112  16.594  14.704 -0.0487 -0.1450  0.0094
28542W        W43673   9.021  10.667   1.406 -0.0923 -0.0686 -0.1650
28543W        W43674  15.096  10.844  15.016 -0.1038  0.0554  0.0943
28544W        W43675  13.134   4.138  11.264  0.0645  0.0257  0.1132
28545W        W43676   3.100   1.747  12.332 -0.1751 -0.0994 -0.1778
28546W        W43677   3.885  13.494  16.433 -0.1029 -0.1868  0.0328
28547W        W43678  13.225   2.818  15.001  0.2855  0.1000  0.1984
28548W        W43679  12.959   5.234   2.356 -0.1215 -0.1420 -0.0980
28549W        W43680  15.863   0.074   1.138  0.0624 -0.3689  0.2555
28550W        W43681  10.823   0.077   2.057 -0.3523 -0.2249  0.0198
28551W        W43682   6.517  17.529   2.049 -0.0574 -0.0045 -0.2683
28552W        W43683   0.116   0.502  15.067  0.0224 -0.1620  0.1642
28553W        W43684  13.349  14.768  14.055 -0.0511  0.0468  0.2203
28554W        W43685  13.135   5.502   0.549  0.1365 -0.0328  0.1881
28555W        W43686   4.107   5.904  11.985 -0.4093  0.0971  0.1524
28556W        W43687   2.783  17.853   5.433 -0.1160  0.1120  0.0436
28557W        W43688   3.067   3.716  15.156 -0.1044 -0.2986  0.3668
28558W        W43689  12.702  15.180   1.891  0.1261  0.1574  0.1511
28559W        W43690   8.968  16.236   4.030 -0.2065 -0.0789  0.4097
28560W        W43691   5.383  12.610   2.833  0.1313 -0.0017  0.1138
28561W        W43692   2.064  17.660  14.832  0.1240  0.1218 -0.1335
28562W        W43693   4.873  17.280   5.338  0.1058 -0.0079  0.1480
28563W        W43694   2.425  17.717  14.445 -0.2338 -0.0448 -0.1700
28564W        W43695   8.191   8.237   0.010  0.1282 -0.2484 -0.1620
28565W        W43696   6.050   1.804  12.145  0.0037  0.2843  0.0801
28566W        W43697  11.266   9.824  16.454  0.0809 -0.0843  0.1086
28567W        W43698   8.310  15.762   4.973  0.1250 -0.5719 -0.1909
28568W        W43699   8.468  16.393   5.855 -0.0211 -0.0056 -0.0762
28569W        W43700   5.401  16.879   2.460  0.0528 -0.1665  0.0053
28570W        W43701   0.203   6.359   0.003  0.2664 -0.0406  0.2253
28571W        W43702   3.700  12.998   0.006 -0.2411  0.1267 -0.0838
28572W        W43703  15.945  10.966   0.966 -0.0737  0.1442  0.0107
28573W        W43704   5.587  13.576  13.199 -0.0829 -0.0595  0.2759
28574W        W43705   8.024  13.723  14.772  0.1443 -0.0287  0.0649
28575W        W43706   0.556  10.956   3.798  0.2697  0.1665  0.0277
28576W        W43707  12.138  10.779  16.220  0.0195 -0.0762  0.1291
28577W        W43708   9.625  10.406  12.349 -0.1321 -0.1578 -0.3027
28578W        W43709   2.199  15.875   2.261 -0.1773 -0.1022  0.2285
28579W        W43710   9.685  12.919  16.184  0.1006  0.1679 -0.0133
28580W        W43711  11.523  11.407  15.227 -0.0493  0.0477  0.1171
28581W        W43712  10.981   5.636   0.359 -0.5670 -0.1087  0.1766
28582W        W43713   8.855   1.788   4.150 -0.0565 -0.0623 -0.2824
28583W        W43714  17.917   9.201   0.680 -0.0051 -0.0555  0.0763
28584W        W43715  15.273  13.024  11.388 -0.1121 -0.1797 -0.0156
28585W        W43716  17.428  14.574  15.185  0.0533 -0.3516 -0.0835
28586W        W43717  10.973   1.875  11.538  0.2241  0.0919  0.3049
28587W        W43718   0.324   7.510   3.587  0.2378  0.0710 -0.1900
28588W        W43719  17.738  14.723   3.019 -0.0112  0.1794  0.0384
28589W        W43720   1.425  16.747   5.152  0.0589  0.1823 -0.1089
28590W        W43721   7.151  12.461  11.877 -0.1206 -0.0438  0.4181
28591W        W43722   5.843   0.763   2.486 -0.0839 -0.0039 -0.0381
28592W        W43723   1.027   6.773   1.571 -0.2930  0.1079 -0.1316
28593W        W43724  12.266   5.329   1.673 -0.4156 -0.1387  0.3675
28594W        W43725  13.720   5.143  12.861  0.0201 -0.2744  0.2788
28595W        W43726  12.463  10.648  13.917  0.2648 -0.0861 -0.0627
28596W        W43727   2.127   1.375  14.913 -0.1331 -0.2170  0.1826
28597W        W43728   1.050  10.563  11.224 -0.2932  0.1235  0.0292
28598W        W43729   1.082  14.177   2.147 -0.1546  0.2551  0.1348
28599W        W43730   8.290  16.224  13.352  0.1541 -0.2388  0.1392
28600W        W43731  14.025  10.568   6.334 -0.0794  0.0513  0.2337
28601W        W43732  11.314   6.820   6.459  0.0367 -0.0227  0.0074
28602W        W43733  15.617   2.105  16.220  0.1148 -0.2149  0.1289
28603W        W43734   9.064  14.439  15.488  0.0104 -0.0694  0.1919
28604W        W43735   3.236  15.375   5.600  0.1221 -0.3100 -0.0794
28605W        W43736  17.143   1.490   2.664  0.0243 -0.0947 -0.0445
28606W        W43737   7.469   6.953   1.374 -0.0147  0.2035 -0.3321
28607W        W43738   0.531   6.557  15.327 -0.0147  0.0125  0.0797
28608W        W43739   1.422   3.794   3.226  0.0739 -0.1940 -0.0855
28609W        W43740  11.589   3.401  11.838  0.1340 -0.0208 -0.1365
28610W        W43741   3.850   2.755  16.387  0.0476  0.0047  0.0211
28611W        W43742   1.664  17.604   0.470 -0.1568  0.1675  0.0367
28612W        W43743   7.266  12.504   3.712  0.0589  0.0547 -0.1055
28613W        W43744   8.457  15.235   1.052  0.1648 -0.0807  0.0275
28614W        W43745  12.304   0.745   1.979  0.0313  0.0152  0.1084
28615W        W43746   5.440   2.289   5.396  0.0052 -0.0770 -0.0915
28616W        W43747   1.325   7.138   3.418 -0.0474 -0.0787 -0.0820
28617W        W43748  15.148  12.582   4.909 -0.1721  0.1949  0.0786
28618W        W43749  14.947  13.451   0.734  0.2967  0.0141  0.0209
28619W        W43750   4.764   9.894   0.921 -0.3873  0.1597  0.1649
28620W        W43751  12.779   4.232   1.676 -0.2512 -0.1263  0.2126
28621W        W43752  11.238  10.363   3.432 -0.2352  0.2745 -0.0001
28622W        W43753  17.126   2.068  14.440  0.0991 -0.1561  0.2385
28623W        W43754  16.253   1.125   1.547  0.2396 -0.0072 -0.0239
28624W        W43755   8.183   2.487  14.714  0.2655  0.1433 -0.3200
28625W        W43756   1.803   7.918  12.592  0.1621 -0.2567  0.1610
28626W        W43757   2.963   7.989  13.295 -0.1315  0.2962  0.2546
28627W        W43758   5.774   5.038  14.340 -0.1792 -0.0725  0.1750
28628W        W43759   7.443   9.643   4.295 -0.0015  0.0237 -0.0660
28629W        W43760  17.360  16.488   1.045  0.0807  0.0776 -0.0323
28630W        W43761  12.993  15.660  15.370 -0.1551  0.0727 -0.0294
28631W        W43762   5.005   2.554  11.572 -0.3719  0.0343  0.0472
28632W        W43763   7.884   2.700   1.299  0.2671 -0.0233  0.3428
28633W        W43764  16.455   7.970   0.753  0.0167  0.1576 -0.1557
28634W        W43765  11.866   1.940   3.804 -0.0927  0.0400  0.1495
28635W        W43766  10.094   3.802   2.294  0.0111 -0.0178  0.3134
28636W        W43767   1.356   9.289  14.489 -0.1068 -0.2980 -0.0025
28637W        W43768   7.621  11.011  13.284 -0.0937  0.1808  0.1109
28638W        W43769   1.879   2.903  14.411 -0.1120 -0.0928  0.0298
28639W        W43770  17.534   6.513   1.157 -0.0378  0.1091  0.2871
28640W        W43771  14.052  10.009  15.434  0.0678 -0.3406  0.0167
28641W        W43772   5.914   2.720  15.416 -0.0973  0.1171  0.0069
28642W        W43773  17.892  15.716   5.211 -0.0593  0.1803  0.1694
28643W        W43774   7.661  12.269  12.740 -0.0150 -0.0350  0.0559
28644W        W43775   7.931  13.323   3.346 -0.0471 -0.1160 -0.0935
28645W        W43776   1.158  17.202  13.169 -0.1066  0.1624  0.2884
28646W        W43777   6.317   2.104  11.874 -0.1086  0.2289  0.1545
28647W        W43778   8.076  17.549  10.891  0.2849  0.2009 -0.2059
28648W        W43779  10.330   5.956  13.398 -0.3131  0.1395  0.4540
28649W        W43780   3.573  17.618   5.880 -0.0164 -0.0252 -0.2712
28650W        W43781  13.621  14.458   3.994  0.3962 -0.2706 -0.1092
28651W        W43782   5.040  12.361  14.518  0.0161 -0.0354  0.0817
28652W        W43783   0.720   4.709   1.024  0.0806 -0.2967 -0.1032
28653W        W43784  14.317   4.706   2.281 -0.1581  0.0734 -0.0735
28654W        W43785   4.038   1.382   4.790 -0.1397 -0.1898 -0.2959
28655W        W43786  18.063   0.436   5.586 -0.0324 -0.0259  0.5126
28656W        W43787   9.861   6.489   1.498 -0.4636  0.0773  0.2531
28657W        W43788   8.793   3.873   0.153  0.1115  0.3136  0.0464
28658W        W43789   2.331   5.688  15.709 -0.1026  0.1454  0.1598
28659W        W43790   3.734   7.410  14.891  0.3622  0.1762 -0.0448
28660W        W43791  16.651   0.258  13.701  0.0833  0.2920  0.0651
28661W        W43792  16.402   0.084  15.329 -0.0824  0.2039  0.3051
28662W        W43793   5.413  11.064   3.918  0.1096 -0.1867  0.2472
28663W        W43794   1.637   9.277  10.696 -0.3254  0.1771 -0.0942
28664W        W43795   4.694  15.681   5.713  0.0083  0.1958  0.0345
28665W        W43796   4.808  10.028  12.931 -0.0744 -0.2094  0.1107
28666W        W43797  11.408   9.643  12.181 -0.2782  0.0605 -0.0879
28667W        W43798  15.635   9.972  12.927  0.0558  0.1909 -0.0104
28668W        W43799  14.519   4.241  14.342 -0.3503 -0.1099  0.1275
28669W        W43800   0.247  13.674  12.747  0.4883 -0.2186 -0.0111
28670W        W43801   6.546   3.595  15.088  0.2590 -0.0587 -0.2309
28671W        W43802  13.647  16.525   0.784  0.0355 -0.0206 -0.3187
28672W        W43803   5.835   7.737   0.537 -0.1143 -0.2266 -0.2492
28673W        W43804   3.744  17.892   3.589 -0.0241  0.3612 -0.4174
28674W        W43805   3.629   0.278  16.378 -0.1686  0.0742  0.0856
28675W        W43806  16.477   7.356   0.746 -0.6283 -0.1380 -0.2673
28676W        W43807   0.931   9.494   4.904 -0.2148 -0.0031 -0.2042
28677W        W43808   7.599  12.579  16.131 -0.0602 -0.0867  0.1075
28678W        W43809  13.452   2.129   1.705  0.2380  0.1823  0.2774
28679W        W43810  17.639   3.707  16.308 -0.1306 -0.0359  0.0677
28680W        W43811   1.125  13.266  12.988  0.1424 -0.0248 -0.2059
28681W        W43812  14.988  11.996  10.896 -0.1059 -0.0976 -0.0354
28682W        W43813  11.174   2.951   3.119 -0.0156  0.4831  0.1689
28683W        W43814   9.988  14.932   3.143  0.3043 -0.0625  0.0763
28684W        W43815   9.004  11.161  15.896 -0.4387  0.3498 -0.0498
28685W        W43816   3.161   8.064  15.396  0.2126 -0.1610  0.0560
28686W        W43817  15.258   1.395   6.147 -0.0564  0.2293 -0.1059
28687W        W43818  13.369   5.419   3.242  0.4994  0.4831 -0.2012
28688W        W43819   9.132  10.101  16.195 -0.0449 -0.2147  0.0759
28689W        W43820   3.932  11.263  16.177 -0.3320 -0.1587  0.1190
28690W        W43821   8.398   4.225   3.123  0.0181 -0.0649 -0.0236
28691W        W43822  10.247  15.100   0.780  0.1621  0.1550 -0.0763
28692W        W43823   8.071  14.748  13.144 -0.0736  0.0820 -0.0733
28693W        W43824   6.092  17.043  11.580  0.1707 -0.3728 -0.0997
28694W        W43825   9.616  12.302   0.222  0.0179  0.2109  0.1403
28695W        W43826  11.907   1.988  14.765 -0.0423  0.0221 -0.2207
28696W        W43827  15.847   5.699   1.811 -0.0138 -0.1170  0.2140
28697W        W43828  10.072  10.372   0.183 -0.2144  0.2764  0.1574
28698W        W43829   1.930   0.072  10.938 -0.4514  0.0752  0.1879
28699W        W43830   5.348  14.846  12.203 -0.0035 -0.0260  0.1750
28700W        W43831   4.394   8.665   2.667 -0.1226 -0.1729 -0.3894
28701W        W43832  13.219  17.616   0.718  0.2397  0.0605  0.2532
28702W        W43833  15.292  12.939   0.181  0.2845  0.1462 -0.3328
28703W        W43834   6.408  15.866  16.333  0.0494  0.4099 -0.1479
28704W        W43835   2.732   6.863   2.006 -0.3143  0.0525 -0.2466
28705W        W43836  14.328   0.595  15.175  0.0250 -0.4402  0.1121
28706W        W43837  12.288   8.612   1.747  0.2253 -0.0477  0.0236
28707W        W43838   3.076   1.860  13.410  0.1385 -0.1414 -0.1732
28708W        W43839  16.528  10.349   5.112 -0.3531  0.0422  0.0262
28709W        W43840   1.106   7.363   3.024  0.1931  0.3289  0.0528
28710W        W43841   7.482   4.495   5.297  0.0796 -0.1591  0.1006
28711W        W43842  14.272  16.511  13.127  0.1542 -0.0672  0.2245
28712W        W43843   4.615  12.115   4.012  0.0747 -0.0685 -0.2850
28713W        W43844   2.867  11.179  10.598  0.0565 -0.2106 -0.1425
28714W        W43845   5.166   9.611  11.492  0.0966  0.0571  0.3690
28715W        W43846  13.809  16.711  14.100 -0.2760 -0.1481 -0.0108
28716W        W43847   7.269  15.080  12.348  0.0906 -0.0702 -0.0061
28717W        W43848   4.449  12.599   3.078 -0.1312  0.1835 -0.0938
28718W        W43849   9.770  13.499   5.821 -0.2357  0.1380  0.4129
28719W        W43850   2.038  17.981   6.199 -0.0684 -0.6153 -0.0737
28720W        W43851  17.006   1.600  16.457 -0.1994  0.1266  0.2663
28721W        W43852   6.048  12.469   3.510  0.0310  0.3552 -0.3521
28722W        W43853  15.509  10.563  13.660  0.1485 -0.0202  0.0427
28723W        W43854   8.298   7.933  13.923  0.3745  0.1138 -0.1172
28724W        W43855  16.334   0.316   1.450  0.1739 -0.0764  0.0859
28725W        W43856   6.799  11.252  15.066 -0.1171 -0.0181  0.0663
28726W        W43857   5.087  11.940  11.207  0.2617 -0.4589  0.2754
28727W        W43858  14.916  14.333   3.749  0.1474  0.1329  0.2096
28728W        W43859   1.986   3.703   1.939 -0.0192 -0.2416  0.0409
28729W        W43860  13.483   0.550  14.596 -0.1703 -0.0277  0.0721
28730W        W43861  14.014   7.912   0.627  0.0305 -0.0782 -0.0434
28731W        W43862   2.936   6.084   6.100  0.1818  0.0976  0.1881
28732W        W43863   3.488  14.385  14.436 -0.1106  0.1425  0.1867
28733W        W43864   6.599  13.960  16.385 -0.1217 -0.1373  0.1419
28734W        W43865   5.018  13.209   1.438 -0.0241  0.2253 -0.3022
28735W        W43866   4.555   4.105  12.388 -0.1562 -0.1044 -0.0330
28736W        W43867  10.390   3.036   2.804 -0.0005  0.1274 -0.2364
28737W        W43868  14.241  13.344   4.059 -0.3844 -0.3511  0.0716
28738W        W43869  16.692  13.171   0.914  0.2157 -0.1877 -0.0903
28739W        W43870   6.484   7.437  13.779  0.1238 -0.1049  0.2772
28740W        W43871   9.247   8.546  11.759  0.2418  0.0751  0.2421
28741W        W43872  14.373   1.942   1.096 -0.0610 -0.0914 -0.0877
28742W        W43873  13.041  17.470  15.835  0.0561  0.3976  0.3269
28743W        W43874   9.366  13.522  11.383 -0.3343  0.0749 -0.0435
28744W        W43875   1.050  12.637  12.264  0.0779  0.2471  0.2412
28745W        W43876  17.862   1.458  12.068 -0.0529  0.3490 -0.0092
28746W        W43877   1.314   3.911   3.834 -0.0842 -0.0086  0.1548
28747W        W43878  16.467   5.185  14.693 -0.0734 -0.0547  0.4315
28748W        W43879   5.472   0.560  16.178 -0.1493 -0.0112  0.0066
28749W        W43880   2.641   8.613   0.304 -0.1088 -0.4148  0.0312
28750W        W43881   8.253   7.531  13.573  0.3365  0.1229 -0.1519
28751W        W43882   7.253  13.843  14.326  0.1291  0.0135  0.0444
28752W        W43883   6.005  13.688  13.488 -0.2234 -0.4060  0.3149
28753W        W43884   7.093  17.875   1.475  0.3164  0.2910  0.2590
28754W        W43885   7.733   9.596  13.621  0.0239  0.1301 -0.0482
28755W        W43886   0.334   9.857   2.219 -0.0353 -0.2596 -0.2914
28756W        W43887  16.091   1.505   1.232 -0.3068  0.2397 -0.1861
28757W        W43888  11.563  12.751   4.855  0.3327 -0.1506 -0.1323
28758W        W43889   9.336  14.302  15.026 -0.0989 -0.0410 -0.2256
28759W        W43890   5.427   6.284   5.296 -0.0651 -0.0602 -0.3876
28760W        W43891  10.262   6.170   1.892 -0.0321  0.1188 -0.3125
28761W        W43892   3.300  13.771   3.643 -0.1001  0.0532  0.0261
28762W        W43893  17.685  15.213   1.528  0.2786  0.4005  0.1061
28763W        W43894   9.140  15.278  15.510  0.2457 -0.0970 -0.2396
28764W        W43895  16.105  12.807  15.441 -0.1601 -0.1220 -0.0245
28765W        W43896   6.529  13.789   2.149  0.1722 -0.1451 -0.0794
28766W        W43897   5.730   1.364   3.981  0.1610 -0.0186 -0.1092
28767W        W43898   5.530  16.270  14.344 -0.0104 -0.2278 -0.2230
28768W        W43899  10.343  10.713  13.372  0.2234  0.0058 -0.1132
28769W        W43900  12.788  12.291  15.030 -0.0087  0.3913 -0.0741
28770W        W43901  11.490  12.433  13.737 -0.0442  0.0639  0.0467
28771W        W43902  14.883  17.837  15.348 -0.2075 -0.0303 -0.1102
28772W        W43903  16.453   6.047  14.162 -0.1003  0.1874 -0.2217
28773W        W43904  10.770  14.134   1.299 -0.1805 -0.2560 -0.3326
28774W        W43905   6.382   9.465  11.560 -0.1632  0.1628 -0.1847
28775W        W43906  13.132   7.819   3.166 -0.2020  0.1706 -0.0343
28776W        W43907   0.708   8.995   2.056  0.1071  0.3275 -0.5213
28777W        W43908   5.911   6.422   5.541  0.0838 -0.1254 -0.2507
28778W        W43909  11.169   0.007  15.256  0.0657 -0.0011 -0.0381
28779W        W43910  10.119  10.960   2.038  0.0895 -0.3399  0.0701
28780W        W43911   3.695   5.983   1.205 -0.1853 -0.2171 -0.0909
28781W        W43912   2.261  11.697  15.299 -0.1249 -0.0832 -0.2391
28782W        W43913  10.097  10.733   1.198  0.1543 -0.0650  0.0759
28783W        W43914   9.790   9.416   2.475 -0.0010  0.0276 -0.0316
28784W        W43915  14.015  11.729   2.078  0.0175  0.0420 -0.0083
28785W        W43916   2.581  13.065  15.606  0.2121  0.1635  0.0093
28786W        W43917  12.280   9.576   0.234 -0.2820  0.1700 -0.1820
28787W        W43918   3.021   5.078  13.142 -0.0671 -0.0446 -0.1522
28788W        W43919   1.967   9.654   2.695  0.0157 -0.2722 -0.0801
28789W        W43920   3.956  14.163   3.015 -0.1146 -0.1378 -0.4371
28790W        W43921   6.219   2.559  13.132 -0.0585  0.0663 -0.1234
28791W        W43922  12.006   0.107   4.539 -0.2462 -0.3868 -0.0233
28792W        W43923   5.534   2.777   1.741  0.1611 -0.3906 -0.0213
28793W        W43924   8.047   7.699   3.187  0.1400  0.1047 -0.0053
28794W        W43925   7.022   5.920   3.596  0.0847  0.1621 -0.0643
28795W        W43926   4.664  16.108   6.423 -0.2648  0.2456  0.1110
28796W        W43927   9.848  16.373   4.175  0.0020  0.1275  0.0704
28797W        W43928   7.831  11.752   0.195  0.1630 -0.1688 -0.2025
28798W        W43929   2.049   4.792  11.826 -0.0368  0.0480 -0.1063
28799W        W43930   0.867   6.397   3.149  0.0287  0.0342  0.1093
28800W        W43931   4.779  15.280  15.277 -0.2927  0.2338  0.1555
28801W        W43932  12.954   2.166  13.365 -0.1389 -0.0744 -0.2438
28802W        W43933  10.222   9.499  12.738  0.0029 -0.2625  0.3820
28803W        W43934  12.013  11.820  12.550 -0.2009  0.2789  0.0968
28804W        W43935   3.223  10.372  11.016  0.2262  0.2042  0.0618
28805W        W43936  12.763  17.997   1.158  0.1222 -0.0333 -0.1247
28806W        W43937  14.122  14.098  12.712  0.2016  0.0412 -0.0819
28807W        W43938   2.267  10.009   2.787 -0.0441 -0.1300  0.2161
28808W        W43939   2.683  14.194   0.184 -0.1731  0.1185 -0.2609
28809W        W43940   0.748  17.503   0.940  0.0334 -0.1045  0.0504
28810W        W43941  13.066   9.743  10.886  0.1624  0.0046 -0.0992
28811W        W43942   1.259  14.703   0.944 -0.0940  0.2887 -0.3181
28812W        W43943   6.756  16.859   5.017  0.0113 -0.0648 -0.0340
28813W        W43944  13.705   8.653   5.062  0.1327  0.1066  0.1611
28814W        W43945   8.651  12.801   2.607  0.1638 -0.1816 -0.1270
28815W        W43946   8.512   2.390   4.850 -0.3405  0.0878 -0.2256
28816W        W43947  14.046   9.723   0.034 -0.3152 -0.0660 -0.0447
28817W        W43948  11.231   6.470   3.835 -0.1420 -0.2442 -0.0930
28818W        W43949  14.455  17.263  13.307  0.1854  0.0023  0.2438
28819W        W43950   6.433  11.448  14.812 -0.0940  0.1860 -0.0544
28820W        W43951  13.743   6.354   4.697  0.1851 -0.2044 -0.0341
28821W        W43952   9.140   3.619   1.004 -0.1488  0.1013 -0.0690
28822W        W43953   0.217  11.831   4.152 -0.1052  0.2500  0.4357
28823W        W43954   2.343   5.871  14.409 -0.0061 -0.3550 -0.3005
28824W        W43955   7.565   9.721  11.318 -0.0705 -0.0197 -0.0402
28825W        W43956  12.794  15.010   0.535 -0.1487 -0.0614 -0.1210
28826W        W43957  15.030  10.872   3.024 -0.0742 -0.0871 -0.2687
28827W        W43958   7.215  17.336  10.867  0.1077  0.3239  0.0500
28828W        W43959  12.613  14.181  15.884  0.0264 -0.0264 -0.2424
28829W        W43960   1.649   2.650  11.496  0.1120 -0.2378  0.2797
28830W        W43961  17.267  12.844  12.590 -0.0461  0.1387 -0.3368
28831W        W43962   8.635   2.951   4.900 -0.0255 -0.0163 -0.3915
28832W        W43963   5.207  15.809  12.285  0.1123  0.1048 -0.1378
28833W        W43964  13.220  12.134  14.836 -0.1014  0.1066 -0.0895
28834W        W43965   7.300   0.371  15.672  0.1707  0.0022  0.2757
28835W        W43966   8.047   3.880  11.295 -0.0680  0.0767 -0.4389
28836W        W43967  15.390   4.036   2.876 -0.0573 -0.0258 -0.2104
28837W        W43968  15.238  14.478   2.662 -0.2026 -0.1467 -0.0273
28838W        W43969  17.436   4.456   2.631  0.2605  0.2383  0.0366
28839W        W43970  16.305  15.094   5.288 -0.0427 -0.1033  0.0353
28840W        W43971   2.403   7.651  12.525 -0.2116  0.2510 -0.0377
28841W        W43972  17.109   9.223  13.176 -0.0919  0.0766  0.0664
28842W        W43973  14.222  14.496   6.257 -0.0967  0.1361  0.1152
28843W        W43974   0.793   7.307   4.800 -0.1015 -0.1299  0.1054
28844W        W43975  13.719   4.217   0.109 -0.0299 -0.1329 -0.0740
28845W        W43976   9.908   6.479   2.809 -0.1778 -0.2292 -0.0178
28846W        W43977  15.469  15.260   1.221  0.2397 -0.3384 -0.3566
28847W        W43978   0.215  11.264  15.879 -0.0831  0.1312 -0.1802
28848W        W43979   1.893   2.934  12.964 -0.0508  0.1377  0.2895
28849W        W43980  15.904   7.557   2.066  0.1325 -0.1018 -0.0510
28850W        W43981  10.321   2.662   3.185  0.0217 -0.1725 -0.0789
28851W        W43982  11.567   7.330   1.176 -0.0730  0.0691  0.1036
28852W        W43983  13.659   2.491  12.133  0.1217  0.1746  0.2514
28853W        W43984   3.169  11.683  15.111 -0.3076 -0.0118 -0.0043
28854W        W43985  11.679  16.051  14.299  0.0978 -0.0034  0.3934
28855W        W43986   5.883   2.273   6.070  0.0561  0.2160  0.0017
28856W        W43987  17.382   0.228   5.973 -0.2902 -0.1777 -0.0912
28857W        W43988  11.821   5.000  12.998 -0.2592  0.0914  0.0331
28858W        W43989  11.627   2.858   0.367 -0.0289 -0.1007 -0.0015
28859W        W43990  17.248   8.620   4.116 -0.1209  0.3256 -0.0125
28860W        W43991   2.621  14.009  16.211 -0.0071 -0.2270  0.1762
28861W        W43992  16.120  15.447  11.508  0.0877 -0.0026 -0.0342
28862W        W43993   0.554   4.996  15.390  0.2334 -0.2882  0.0745
28863W        W43994   7.785  16.281  15.418 -0.3104 -0.2024 -0.0883
28864W        W43995  18.072   4.235   1.391  0.0606 -0.5532 -0.0169
28865W        W43996   1.768   4.802  16.237 -0.1772 -0.2176  0.0927
28866W        W43997   2.810   1.981  15.689 -0.1115  0.0241 -0.2065
28867W        W43998   2.586   5.629   4.433 -0.2447 -0.1204 -0.2731
28868W        W43999   5.120   9.723  12.227 -0.0051  0.1111  0.0569
28869W        W44000   2.995  17.544  11.574  0.0238 -0.1147 -0.0210
28870W        W44001   1.871   1.701  16.194 -0.2230  0.0356 -0.0964
28871W        W44002  17.846   2.514  16.013  0.2616  0.1428  0.0042
28872W        W44003   0.863  15.312   6.008 -0.0156 -0.2787  0.0797
28873W        W44004  17.951  16.063  12.241 -0.1717  0.0909 -0.1639
28874W        W44005   1.473  13.431  15.570  0.0644 -0.2228 -0.2530
28875W        W44006   8.237   5.908  11.352  0.1659  0.0115  0.1286
28876W        W44007  14.117  12.779   6.090  0.2613  0.2953  0.1060
28877W        W44008   9.437  15.572   5.917 -0.2309 -0.0849  0.2986
28878W        W44009   5.563  15.024  11.624 -0.1717  0.2202 -0.2340
28879W        W44010  12.027   5.271  11.523  0.1505  0.0501  0.1822
28880W        W44011  13.155   2.491  13.779  0.0246  0.1753 -0.1107
28881W        W44012  16.508  11.434   3.102  0.1499  0.1955  0.0589
28882W        W44013  14.713   7.432   1.078  0.0433  0.1180  0.0498
28883W        W44014  12.531  14.128   0.458  0.0050  0.1620  0.0440
28884W        W44015   5.454   1.363  10.941  0.0855 -0.0307 -0.1240
28885W        W44016   0.947  12.255   4.902 -0.2461 -0.1474  0.0157
28886W        W44017   6.664  14.984  14.670  0.0179 -0.0930  0.2139
28887W        W44018  11.930   1.119  13.894 -0.0744 -0.2299  0.2966
28888W        W44019  10.813  17.777   0.015  0.0994  0.0239  0.1039
28889W        W44020  12.453  15.571   0.486  0.0481  0.2025  0.0124
28890W        W44021  15.953   1.789   0.865  0.1747  0.0960 -0.0241
28891W        W44022  10.558   3.072  11.086 -0.0117 -0.0326  0.1149
28892W        W44023   9.285   5.336   4.402 -0.2045  0.2256 -0.0793
28893W        W44024  15.472   1.570   4.681  0.1729 -0.3048  0.4634
28894W        W44025  14.329  16.117   2.886 -0.0524 -0.2953 -0.1861
28895W        W44026   0.415   7.661   5.666 -0.1465 -0.1084 -0.2485
28896W        W44027  11.044   5.351   4.741  0.3935 -0.0492 -0.0908
28897W        W44028   4.186  17.446   1.900 -0.0266  0.3115 -0.1304
28898W        W44029  13.027  16.861   5.251  0.0587  0.1697  0.0251
28899W        W44030   0.230  17.596  12.686 -0.0805  0.0929 -0.1127
28900W        W44031  11.628   5.982   4.308 -0.2301  0.0297  0.1120
28901W        W44032   5.149   2.293  10.693  0.1456  0.1348  0.0724
28902W        W44033  11.385  12.210   6.257  0.1430 -0.1677  0.2490
28903W        W44034  12.846  16.531  14.906  0.4639  0.0986 -0.0712
28904W        W44035   9.593   2.796  13.158 -0.2086  0.1207 -0.3109
28905W        W44036   1.104   6.345   3.745  0.1808  0.1794 -0.1273
28906W        W44037   4.817  15.371   1.820  0.1260  0.1316 -0.2747
28907W        W44038  11.827  13.438   3.572  0.3552  0.1995 -0.0834
28908W        W44039   0.111   5.341   0.669  0.1632 -0.0523 -0.2528
28909W        W44040   3.555   8.129  15.103 -0.3335 -0.0860 -0.0974
28910W        W44041   9.551  11.084   4.732  0.1616 -0.0508  0.3473
28911W        W44042  11.528  12.352   0.432 -0.2019 -0.2442  0.1582
28912W        W44043   3.232  13.163  15.672 -0.3015 -0.3068 -0.1182
28913W        W44044   4.061  10.312   2.692 -0.1505 -0.3000 -0.1044
28914W        W44045   2.099   2.911   0.747  0.0037 -0.2000 -0.4669
28915W        W44046  15.042  10.508   1.603 -0.0983 -0.0113  0.0795
28916W        W44047   7.857  13.410   0.185  0.0228  0.1747  0.1563
28917W        W44048   7.002   4.818  12.599 -0.0508  0.0859  0.1768
28918W        W44049   0.681   0.967   5.661  0.1525 -0.0753 -0.2972
28919W        W44050  11.404  11.611  11.739  0.1683 -0.0976  0.2530
28920W        W44051  16.506  13.770  14.635  0.2477 -0.0797  0.1499
28921W        W44052  11.762  14.440   1.600  0.5311  0.0172  0.1746
28922W        W44053   2.072   9.409   9.922  0.1377  0.1651 -0.0488
28923W        W44054   5.524  13.558  12.657 -0.1019  0.1011  0.1561
28924W        W44055   4.930   7.038  12.041  0.1529 -0.0883  0.1544
28925W        W44056  15.867   7.449  12.126  0.0886  0.3669 -0.1836
28926W        W44057  17.946  13.329  11.937 -0.2255  0.0697 -0.1279
28927W        W44058  10.954   3.500   3.616 -0.2253 -0.4813 -0.0505
28928W        W44059   5.536   7.821  10.891  0.1399 -0.0311  0.3226
28929W        W44060   1.659   0.804   3.653 -0.2150  0.2710  0.1303
28930W        W44061  14.385  15.332  16.194  0.2268 -0.1112  0.2992
28931W        W44062   5.509   4.231   2.035 -0.0349  0.0240 -0.1044
28932W        W44063   7.819   1.122  12.078  0.1129  0.0526 -0.0528
28933W        W44064   6.863  11.171  10.958  0.2424 -0.0857 -0.0414
28934W        W44065  13.403   5.110   0.428  0.1410  0.2290  0.3449
28935W        W44066  15.897   8.724   2.146  0.0987 -0.0277 -0.0959
28936W        W44067   4.257  16.884  12.260  0.0772 -0.0686  0.1132
28937W        W44068   2.401  14.447   1.137  0.1936  0.0652  0.2201
28938W        W44069   4.050   6.892   1.939 -0.2009  0.2281 -0.1444
28939W        W44070  12.577   6.868   2.848 -0.0134 -0.2863 -0.1446
28940W        W44071   5.289   4.853   5.437 -0.0697  0.0586  0.0593
28941W        W44072   3.163  10.745   4.379 -0.1050 -0.5679  0.2593
28942W        W44073  17.932  15.861   0.805 -0.0339  0.0649 -0.3015
28943W        W44074  13.071   9.697   4.415  0.1921 -0.1230 -0.1113
28944W        W44075   8.866  10.395   0.029  0.0033 -0.1870  0.0403
28945W        W44076  10.954   0.530  15.500  0.0168  0.2901 -0.0293
28946W        W44077   6.802   3.441   2.525  0.0747  0.0191 -0.3002
28947W        W44078   9.961  15.160  13.360  0.0125 -0.0622  0.2315
28948W        W44079   0.519  13.552  15.946  0.0708  0.0292  0.2005
28949W        W44080   5.175  11.538   6.058  0.0747  0.3349 -0.0121
28950W        W44081   2.750   0.938   2.011 -0.1905  0.1313  0.2339
28951W        W44082  14.961  12.576  13.797 -0.0490  0.3399 -0.0228
28952W        W44083  17.997  17.255  14.594  0.1949 -0.1251  0.0253
28953W        W44084  10.097   4.668  10.962 -0.0346  0.1188 -0.1976
28954W        W44085  13.954   6.120  11.351 -0.0517  0.0101 -0.1291
28955W        W44086  10.950  11.033  16.026  0.0286  0.2831  0.1538
28956W        W44087   6.938   7.113   3.954  0.2147  0.1899 -0.2062
28957W        W44088   4.360   7.393   3.788 -0.1506 -0.2017 -0.2419
28958W        W44089   3.487  16.970   2.966 -0.1152 -0.0872  0.1772
28959W        W44090  15.716  12.149   4.280  0.2459 -0.0380 -0.0627
28960W        W44091  16.158  16.389  12.137 -0.1219  0.0387  0.1232
28961W        W44092  13.776  13.966   5.758  0.1892 -0.1256  0.0515
28962W        W44093  17.320  15.800   0.056 -0.2439 -0.2057 -0.0388
28963W        W44094   0.183  17.432   0.357 -0.1700 -0.1096  0.1325
28964W        W44095   7.330   8.446  11.280  0.2948  0.0044 -0.0154
28965W        W44096   7.966   4.485  14.511 -0.1459 -0.0974  0.2567
28966W        W44097   0.875  15.015  12.413  0.2407  0.5189 -0.1815
28967W        W44098   4.367   1.495  15.752  0.0389 -0.0592 -0.2619
28968W        W44099  16.702  17.710  10.938  0.2311  0.1420 -0.1652
28969W        W44100   5.902  14.304   3.726  0.0647 -0.0919  0.4132
28970W        W44101  13.877   8.955   2.161  0.3441 -0.1494 -0.1662
28971W        W44102   3.495  17.179   1.398  0.1698  0.4591  0.0645
28972W        W44103   7.086  11.023   3.747  0.2468  0.2603 -0.2699
28973W        W44104   5.503  12.814   5.869 -0.0454 -0.0736  0.1394
28974W        W44105   5.536   1.504   0.012 -0.3075 -0.1826  0.1143
28975W        W44106   2.595   4.298  12.976  0.0351  0.5051 -0.0087
28976W        W44107   6.975   2.984  11.223 -0.1878  0.1345 -0.1630
28977W        W44108   6.756  10.570   3.160 -0.0886 -0.2197 -0.1445
28978W        W44109   7.805   1.596   2.929  0.1902  0.1760 -0.0414
28979W        W44110  14.903   5.277   0.754  0.1007  0.0290  0.1427
28980W        W44111  12.829  13.074  13.696 -0.1876 -0.0282 -0.1820
28981W        W44112   9.608   5.967   2.759 -0.0327 -0.0856  0.0652
28982W        W44113   1.768   7.264   3.597 -0.2225  0.3006  0.2275
28983W        W44114   6.580   9.733  14.005  0.0299  0.1041  0.2492
28984W        W44115   2.656   2.943   3.056  0.0102 -0.1772  0.0245
28985W        W44116   9.850   6.641  11.060  0.1235  0.1705  0.4758
28986W        W44117   7.858  17.913  12.012 -0.1961 -0.1587  0.0261
28987W        W44118   5.391   1.043  12.504 -0.0606  0.1812 -0.3285
28988W        W44119  16.053   0.449   4.054  0.0979 -0.3306  0.1688
28989W        W44120  15.876   6.284  11.608  0.1920  0.0839 -0.0741
28990W        W44121   3.120  15.283  12.915  0.1951 -0.0572  0.1514
28991W        W44122  17.325   8.112  13.221 -0.2643 -0.0024  0.0207
28992W        W44123  17.145  13.726  12.382  0.4214  0.1533  0.0236
28993W        W44124  13.822  13.337  11.259  0.2794 -0.1128 -0.2258
28994W        W44125  17.386  15.233  13.702  0.1789 -0.1341 -0.0650
28995W        W44126   4.867   4.178   4.557  0.0196  0.0915 -0.0186
28996W        W44127  13.938   6.257  15.642  0.0547 -0.3421 -0.0244
28997W        W44128   2.556  11.094  11.340 -0.0563  0.2527 -0.0210
28998W        W44129   0.977   3.647   5.212 -0.3301 -0.0143  0.1226
28999W        W44130  14.331  15.718   1.081 -0.0892  0.3970  0.1457
29000W        W44131   9.134   9.452   3.909 -0.4233 -0.2046 -0.0729
29001W        W44132  15.919   1.203  13.240  0.0121  0.2849  0.2257
29002W        W44133  11.311   5.432  14.455  0.1075  0.0578  0.1538
29003W        W44134  16.437  18.088  12.751 -0.0978  0.0516  0.1545
29004W        W44135   8.780   7.518  13.445 -0.0241  0.0164  0.1339
29005W        W44136   1.326   0.887   2.389 -0.3692  0.2962  0.0174
29006W        W44137   3.310  11.310   5.206  0.0186 -0.0323  0.2171
29007W        W44138   8.597   0.021  11.307  0.3328  0.0296  0.0301
29008W        W44139  10.529  17.270   0.387 -0.0405 -0.0420  0.1021
29009W        W44140  15.999   0.493   4.946  0.0083 -0.1500 -0.0390
29010W        W44141  13.532   6.298   1.740  0.0157 -0.1098  0.2691
29011W        W44142  12.794   7.169   3.478 -0.0917 -0.0559  0.1357
29012W        W44143   4.387   3.688  15.451  0.2750 -0.2176 -0.1892
29013W        W44144   4.267  12.912  11.892 -0.0544  0.1004 -0.1927
29014W        W44145  18.097   4.157   4.284  0.1057 -0.2418  0.1779
29015W        W44146  13.205  10.730   1.824  0.2007  0.0775 -0.0908
29016W        W44147   7.506  14.637  13.986 -0.1188 -0.2929  0.0721
29017W        W44148  17.103   2.343   0.696  0.3051  0.0958  0.2747
29018W        W44149   3.210  16.645  16.451  0.2567  0.1222 -0.0549
29019W        W44150  12.245   0.989   5.035  0.0498 -0.0241  0.3366
29020W        W44151   1.158   0.855   3.909 -0.1943 -0.0428  0.1055
29021W        W44152  15.779   1.954   5.423  0.0978  0.0683  0.1858
29022W        W44153   4.307   5.881  12.811  0.0095  0.0010 -0.0022
29023W        W44154   1.476   1.344  11.872 -0.2452  0.0391  0.0942
29024W        W44155  12.510  11.351   5.271  0.3802 -0.0368 -0.0222
29025W        W44156  10.517   8.983  15.563  0.0770  0.0254 -0.2696
29026W        W44157  13.698   6.334   2.710 -0.4826 -0.3526 -0.1265
29027W        W44158   7.906  14.591   3.476 -0.0467  0.0177  0.1952
29028W        W44159   7.974  17.598   5.709 -0.0305 -0.0292  0.1267
29029W        W44160   9.299  10.170   2.112  0.2464  0.0745  0.0992
29030W        W44161   8.412   7.025   2.099 -0.3736  0.1722  0.1374
29031W        W44162   8.793  12.170   5.920  0.3722  0.2810 -0.0081
29032W        W44163   8.769   8.336  15.645 -0.3059 -0.4838  0.0504
29033W        W44164   9.992   0.332  16.199 -0.0380 -0.1828  0.0504
29034W        W44165   7.459  10.412  15.845  0.0013  0.1324  0.1738
29035W        W44166  16.175  14.865  14.847 -0.0405 -0.2146  0.1863
29036W        W44167   8.670  17.614   4.072 -0.0117 -0.1978  0.1084
29037W        W44168  17.682  16.318   1.914 -0.1867  0.0209 -0.1226
29038W        W44169   1.783  14.783  11.472  0.1205  0.1016 -0.0566
29039W        W44170   9.077  13.322   5.944  0.3542  0.0366 -0.0963
29040W        W44171   7.819   0.539  12.749  0.3515 -0.0045 -0.2418
29041W        W44172   2.273   5.276  11.770 -0.0174 -0.1510 -0.2861
29042W        W44173   4.584   1.964  14.718 -0.1110 -0.0172 -0.0442
29043W        W44174  16.936   4.076   4.705  0.1371 -0.1900  0.1531
29044W        W44175   8.571   6.713   0.091  0.2269  0.1273  0.1150
29045W        W44176  12.442   5.305   2.986  0.1796  0.0375  0.0670
29046W        W44177   2.945  15.349   4.662 -0.1999  0.1607  0.0773
29047W        W44178  15.027  14.305  14.617 -0.0900 -0.1642  0.0087
29048W        W44179   7.634  12.910  12.498 -0.0674  0.2470  0.0272
29049W        W44180  13.665  15.932   4.267 -0.0425  0.0253  0.0878
29050W        W44181  13.765   9.302   2.445  0.0207 -0.1952  0.0791
29051W        W44182  17.552   6.467   2.295 -0.0674  0.0868  0.3911
29052W        W44183   3.938   4.264  12.835  0.0684 -0.0980  0.0708
29053W        W44184  14.129   6.877  16.182 -0.0227  0.1974 -0.2373
29054W        W44185   6.114   5.468  13.161  0.1230 -0.1096 -0.1443
29055W        W44186  10.840  17.942   5.953 -0.0322  0.0214 -0.2191
29056W        W44187   0.644   4.883   3.100  0.1623  0.3568  0.1787
29057W        W44188   0.925   5.710  11.350 -0.2014  0.0836 -0.1675
29058W        W44189   7.390  15.682   0.211 -0.1365  0.1121  0.0251
29059W        W44190  12.889  12.668  13.390  0.0938 -0.1290 -0.2500
29060W        W44191  12.274   4.997  12.663  0.1257 -0.1678  0.1265
29061W        W44192  11.504   8.302  15.733 -0.2207 -0.1042 -0.1617
29062W        W44193  10.834  14.230  12.924 -0.0848 -0.1885 -0.1305
29063W        W44194  15.619  14.775  16.344 -0.1779 -0.0114  0.0370
29064W        W44195   7.102   7.760   0.499 -0.1808  0.0469 -0.1308
29065W        W44196  16.988  10.980  15.660  0.0718  0.1300  0.2834
29066W        W44197   5.089   1.362   3.970  0.0713  0.0401  0.0110
29067W        W44198  11.845  10.659   4.153 -0.2255  0.1281 -0.2138
29068W        W44199   4.080   5.484  15.225 -0.3448 -0.2398 -0.1868
29069W        W44200   5.292  10.655  15.435 -0.1759 -0.2494  0.0093
29070W        W44201   9.533  16.124   5.868  0.1679 -0.1281  0.0467
29071W        W44202   9.806  16.350   3.655  0.0865 -0.3554 -0.4084
29072W        W44203  14.049   3.374  14.278 -0.3139  0.3264  0.0221
29073W        W44204   3.434   8.306  14.550  0.0335 -0.0763  0.0073
29074W        W44205  13.472   6.439  16.461 -0.0181  0.0159 -0.0394
29075W        W44206   8.650  13.937   3.435  0.0484  0.0555 -0.1277
29076W        W44207   0.516   1.336   3.271 -0.1690 -0.1995 -0.1380
29077W        W44208   5.298   1.306  13.013 -0.1382  0.1060  0.0273
29078W        W44209   7.089  10.052  10.760  0.2736 -0.2713  0.2764
29079W        W44210  11.158  15.555   4.948 -0.1106 -0.0543 -0.0046
29080W        W44211   2.929   8.049   3.977 -0.1699 -0.0632 -0.1470
29081W        W44212  10.362  10.303  13.002 -0.0646  0.0263  0.0312
29082W        W44213   4.355   8.033   6.036 -0.1935  0.0528 -0.3670
29083W        W44214   4.633   3.141   2.476 -0.0452  0.1251 -0.3222
29084W        W44215   2.691  17.755  16.031  0.1731  0.2850 -0.0313
29085W        W44216  12.112   3.939   3.450  0.2543  0.1617 -0.0402
29086W        W44217  14.994   9.450   3.085  0.2689  0.0610  0.0466
29087W        W44218   7.043   2.894   1.741 -0.0636  0.3021 -0.0008
29088W        W44219   7.824   3.798  16.296 -0.2771  0.0868 -0.0804
29089W        W44220  16.121  11.446  11.144  0.2745  0.1550  0.3023
29090W        W44221   9.061  12.761  11.348 -0.1017 -0.0046  0.0817
29091W        W44222   8.774  11.555  12.821 -0.0738  0.0512  0.0475
29092W        W44223  13.695   6.748   5.145  0.0792  0.2170 -0.1251
29093W        W44224   0.626  11.566  13.519  0.0140  0.0460 -0.0017
29094W        W44225   3.398   3.236   5.339  0.0168  0.3967  0.3078
29095W        W44226  14.441   8.556  11.650  0.1854  0.1669 -0.3730
29096W        W44227  13.360  11.383   2.479 -0.0439 -0.0065  0.2884
29097W        W44228  12.945   8.911  10.842  0.1376 -0.0923  0.1463
29098W        W44229   3.726   2.618  12.915 -0.1918  0.0374 -0.3471
29099W        W44230   5.083   6.875   3.376  0.0033  0.1393  0.3551
29100W        W44231  13.231   8.007   4.632  0.0909 -0.2891 -0.2586
29101W        W44232   2.444   9.590  14.454  0.0338 -0.1416  0.3038
29102W        W44233  13.135  12.475   3.016 -0.1837  0.2752  0.1498
29103W        W44234   7.072  17.498  14.687 -0.0449  0.0314  0.0602
29104W        W44235  12.217   3.869   5.210 -0.1224 -0.1094 -0.4045
29105W        W44236  16.583  13.152   5.549  0.2089 -0.1265 -0.0837
29106W        W44237   7.236   9.084  16.176 -0.2931  0.1230  0.0544
29107W        W44238  17.119  14.814   0.687 -0.0136 -0.1866 -0.0916
29108W        W44239   6.201   0.992   2.973  0.4393  0.1348  0.0608
29109W        W44240   5.321   5.080  13.436 -0.2185 -0.0911 -0.3037
29110W        W44241  11.973   5.879   3.935 -0.0375  0.2302 -0.4464
29111W        W44242  17.429   9.102  15.004 -0.0739 -0.0033 -0.0338
29112W        W44243   9.927   9.021   3.560  0.1526 -0.1824  0.1315
29113W        W44244  11.880   1.169  13.251  0.0644  0.1523  0.2851
29114W        W44245  10.468   3.501   3.558 -0.0661 -0.2163 -0.0511
29115W        W44246   4.414   4.333   3.291 -0.2820  0.0982 -0.2510
29116W        W44247   8.048  12.391   4.521  0.0096  0.1118 -0.2796
29117W        W44248   1.785  14.310  11.476  0.0508  0.2194  0.0771
29118W        W44249   7.436  12.452   2.334  0.0181 -0.3839 -0.1545
29119W        W44250   7.950   3.898   0.500  0.1255  0.1465 -0.1062
29120W        W44251   3.013   9.825   0.150 -0.1390 -0.3375  0.0846
29121W        W44252   7.992   6.213   0.959  0.2322  0.1970 -0.0358
29122W        W44253  10.812  11.659   2.161 -0.0056  0.0565  0.1101
29123W        W44254  14.052  13.494  13.380  0.1924 -0.0800 -0.0813
29124W        W44255  13.841   1.408  11.936 -0.1648 -0.0299  0.0254
29125W        W44256   9.687  17.623   0.832  0.2319 -0.0398 -0.1543
29126W        W44257  15.574   7.761   0.715  0.0111  0.1178 -0.1442
29127W        W44258  10.910   0.011  14.221  0.2393  0.1695 -0.1153
29128W        W44259   2.031  14.408  13.110  0.2956 -0.0662 -0.1555
29129W        W44260   1.798   4.242  16.306  0.1929  0.0795 -0.2040
29130W        W44261  10.117   8.303  11.409  0.5475 -0.1277 -0.0741
29131W        W44262   6.847   2.961   2.494 -0.3403  0.0877 -0.0138
29132W        W44263   9.068   7.789   2.055  0.0186  0.0975 -0.2277
29133W        W44264  16.782   4.796  14.433  0.0523 -0.0517 -0.0081
29134W        W44265   5.130   3.918  11.094 -0.0802 -0.0342 -0.1146
29135W        W44266  12.374  15.523   2.993  0.0625 -0.1129 -0.1480
29136W        W44267   8.528   5.582  10.462 -0.5611  0.0654  0.0590
29137W        W44268   5.717  16.027  13.961 -0.2839 -0.1332 -0.0240
29138W        W44269  17.999  14.010  12.470 -0.1247  0.3345  0.0199
29139W        W44270  16.155   2.599  11.734  0.0848  0.0292  0.0877
29140W        W44271   8.538   0.393  11.634  0.4388 -0.3882  0.0556
29141W        W44272   0.052  17.677  13.215 -0.0208 -0.3099  0.0624
29142W        W44273   5.858   1.933   4.011 -0.1642 -0.2060  0.0577
29143W        W44274   8.287   4.909  11.077 -0.0211  0.0888  0.3781
29144W        W44275   4.618  13.930   5.003 -0.1247 -0.0611  0.0019
29145W        W44276   0.402  12.636  11.030 -0.0871 -0.0117  0.0139
29146W        W44277   1.130   9.807   3.901 -0.1485 -0.2438 -0.0293
29147W        W44278  11.985   4.323  16.283 -0.0372  0.1100 -0.2274
29148W        W44279   8.623  14.113  12.982  0.0039  0.0991  0.0660
29149W        W44280  17.417   2.176   2.115 -0.4019  0.1148  0.1070
29150W        W44281   7.177  13.605   1.829 -0.1752  0.0110  0.0835
29151W        W44282   5.223  10.522   4.802  0.0657  0.1384 -0.4206
29152W        W44283  10.387  14.003   2.853 -0.2074  0.0093 -0.1833
29153W        W44284   9.980  17.821  13.059 -0.1153  0.0917  0.3811
29154W        W44285   4.744  14.752   2.179 -0.0762  0.0537 -0.0309
29155W        W44286   3.799   7.452  13.068  0.0911  0.3993 -0.1526
29156W        W44287  16.269   4.587  13.153 -0.1837 -0.2023 -0.0677
29157W        W44288  10.213  15.223   0.258  0.2517  0.0340 -0.0094
29158W        W44289   8.460   6.275   1.120 -0.1594 -0.0329  0.0752
29159W        W44290   6.595   6.578  12.442 -0.0947  0.1113  0.0994
29160W        W44291   9.831  15.873   2.904 -0.0667 -0.0575  0.1461
29161W        W44292   4.643  15.468   5.094  0.1615  0.0109  0.0081
29162W        W44293   1.058   4.582  11.225 -0.0041 -0.2028 -0.0191
29163W        W44294   3.118  14.107   5.449 -0.1241  0.0256 -0.2430
29164W        W44295  10.594  10.109  13.378  0.2282 -0.0464  0.0481
29165W        W44296   5.231   4.647  14.919 -0.1385  0.1619  0.2211
29166W        W44297   9.192   4.027   3.667 -0.2476  0.2326  0.1028
29167W        W44298   5.865   5.717   2.570 -0.2785 -0.1624 -0.0931
29168W        W44299  14.891   9.359   4.032 -0.0960  0.0428  0.0037
29169W        W44300   9.433   9.976  11.678  0.3809  0.1253  0.2081
29170W        W44301  17.184  14.273   2.429  0.0846  0.2157  0.1388
29171W        W44302  11.594   1.371  11.957 -0.2285 -0.0812  0.0132
29172W        W44303   5.852   0.900   3.814  0.0783 -0.1837 -0.1985
29173W        W44304   9.438   2.772   0.387  0.1185  0.1770  0.0435
29174W        W44305   8.544   4.293   3.937 -0.0359 -0.0214 -0.2128
29175W        W44306   2.683  15.931  16.096  0.0068 -0.0558  0.1245
29176W        W44307   0.684   5.997   1.935  0.1011  0.3351  0.2628
29177W        W44308   5.456   5.531  14.366  0.0508 -0.2406 -0.2743
29178W        W44309  14.050  14.190   3.003  0.1595 -0.0770  0.1480
29179W        W44310   8.418  14.419  14.422  0.1839 -0.0885 -0.2113
29180W        W44311   7.207  16.627   4.098 -0.1718  0.0091 -0.3613
29181W        W44312   0.440  15.305   1.488  0.1315  0.0319  0.1327
29182W        W44313  12.339   5.695   0.831  0.0013  0.2118 -0.0380
29183W        W44314   2.763   1.959   1.269  0.2752  0.4746 -0.0445
29184W        W44315   6.264  14.052  11.592 -0.0056 -0.0437  0.1651
29185W        W44316  10.376  15.317  16.168  0.2066 -0.0583  0.1911
29186W        W44317   9.644  14.818  12.258 -0.0192 -0.0424 -0.0857
29187W        W44318   4.231  17.911   5.272  0.0588 -0.0624  0.0985
29188W        W44319  11.792   3.371   1.967 -0.1404  0.0337 -0.2518
29189W        W44320  13.440  11.407   3.743  0.0269  0.3165 -0.0661
29190W        W44321  12.631   9.800  14.334 -0.1821 -0.0964 -0.0417
29191W        W44322   9.705  15.372   1.916 -0.2040  0.1941 -0.1140
29192W        W44323  13.751   2.745   3.481  0.1184  0.2128 -0.2313
29193W        W44324  17.927   1.587  13.374 -0.1473 -0.0609  0.0386
29194W        W44325   2.128   0.216   1.753  0.2866 -0.0545  0.1290
29195W        W44326  11.652   4.538  15.945  0.0580 -0.2570  0.2371
29196W        W44327  13.509  14.769  15.854  0.0870 -0.2678 -0.0499
29197W        W44328   3.372   3.392  13.724 -0.2990  0.1629  0.3036
29198W        W44329  11.364   1.119   1.507 -0.2285 -0.0846  0.1536
29199W        W44330   8.953   6.982   2.026  0.2714 -0.1906 -0.2687
29200W        W44331  12.227  17.675  12.264  0.1572 -0.0780  0.3582
29201W        W44332   6.160   1.262  12.165 -0.1943 -0.0454 -0.1412
29202W        W44333  11.438   6.489  16.449 -0.3290  0.1227 -0.1333
29203W        W44334  16.595  10.884  15.036  0.2001  0.0230 -0.1802
29204W        W44335  11.161   2.453  14.428  0.1832  0.1808  0.2030
29205W        W44336  10.696  17.574   3.817 -0.0488 -0.0052  0.0405
29206W        W44337   4.661   9.467  12.285 -0.0403 -0.2151  0.2040
29207W        W44338   7.890  15.312   2.295  0.3336 -0.2578 -0.0109
29208W        W44339   4.135  14.790   1.762  0.2346  0.1539 -0.0637
29209W        W44340   5.109   5.900  16.254  0.0270  0.3913 -0.3145
29210W        W44341   0.405  13.725   5.663  0.1432  0.1864  0.0586
29211W        W44342   6.150   7.126   0.026  0.1269 -0.0042 -0.1752
29212W        W44343  17.597   3.705   3.387 -0.0062  0.0897 -0.1031
29213W        W44344  14.928   7.540  12.144 -0.1130 -0.1624  0.2121
29214W        W44345   5.913  14.480  12.609  0.0781  0.4232 -0.2274
29215W        W44346   9.952   7.310   5.209  0.2402  0.2204  0.2422
29216W        W44347  14.295  10.870  14.732 -0.2532 -0.1779  0.0023
29217W        W44348   1.644   3.533  16.454  0.1782 -0.2611 -0.0883
29218W        W44349  17.753   5.197   2.780 -0.0907 -0.2929 -0.0516
29219W        W44350   5.386   1.145  16.184  0.2074 -0.0813 -0.2284
29220W        W44351  11.288   3.733   4.208  0.1190 -0.2205 -0.0984
29221W        W44352   0.489   7.666   4.534 -0.0233  0.0575  0.0727
29222W        W44353   5.140  15.277  16.305  0.6239  0.1856  0.0860
29223W        W44354  16.457  15.183   1.663 -0.0870  0.1043 -0.1041
29224W        W44355  11.701   3.355  12.829 -0.1242 -0.3722 -0.0856
29225W        W44356   3.049   7.924   2.047  0.4049  0.3843 -0.0496
29226W        W44357  18.050   8.322   2.066 -0.2295 -0.0727 -0.2477
29227W        W44358  12.493   5.917   3.084  0.1394  0.1507  0.2879
29228W        W44359   6.739   5.684   2.524  0.2454  0.3720 -0.1290
29229W        W44360  13.241  12.935  16.218  0.0646 -0.1938  0.2077
29230W        W44361   2.782   7.174   5.193 -0.1935  0.1675  0.1298
29231W        W44362  13.408  10.014   2.495  0.0649  0.4733 -0.1700
29232W        W44363  18.013   0.148   3.799 -0.0472  0.0807  0.0239
29233W        W44364   9.383   7.272  15.433 -0.0283 -0.0818 -0.0321
29234W        W44365  17.254   3.356  16.331  0.2558 -0.0090  0.2348
29235W        W44366  15.888  11.017  14.412  0.0275  0.0717  0.1172
29236W        W44367   4.343   6.533  11.253  0.1198  0.2049 -0.2607
29237W        W44368   2.597   5.533  14.736  0.0662  0.0126  0.1074
29238W        W44369   1.810  11.147  13.811 -0.1799  0.2202  0.0267
29239W        W44370  11.691  12.133   1.206 -0.3872 -0.3321  0.0026
29240W        W44371   9.502   1.547   0.515  0.0168 -0.0219 -0.4241
29241W        W44372   8.901   8.600  11.095 -0.1545 -0.3073 -0.0085
29242W        W44373   8.341   6.104  14.240 -0.0145 -0.0080 -0.1078
29243W        W44374   0.555  16.092   3.698  0.0889  0.2197  0.2159
29244W        W44375   9.662   2.137   1.182 -0.1263  0.0152  0.1424
29245W        W44376  13.511   0.597  15.516 -0.0840  0.1915 -0.1041
29246W        W44377   3.875   7.662   1.404 -0.1602  0.0551 -0.3244
29247W        W44378  11.695   6.374  15.958 -0.4615  0.1553  0.0356
29248W        W44379   9.368  14.250   2.132  0.0308 -0.3536  0.0556
29249W        W44380   1.127  10.235  12.470  0.1371  0.1886  0.3319
29250W        W44381   3.288   6.736   0.824 -0.0899  0.2763  0.1077
29251W        W44382   9.424  13.910  13.271  0.1045 -0.1905  0.2181
29252W        W44383  10.081   5.463   9.963 -0.3222 -0.0980 -0.2052
29253W        W44384   8.724   5.912  13.033 -0.2591 -0.1736  0.0607
29254W        W44385  14.118  12.141   5.679 -0.0827 -0.2258  0.2378
29255W        W44386   3.746   1.651  11.872  0.1628 -0.0090 -0.0702
29256W        W44387   7.585   1.061   1.572 -0.3036 -0.3002  0.0310
29257W        W44388   3.116  17.401  10.226 -0.0109  0.0471 -0.1786
29258W        W44389   7.517   3.334   0.351  0.0192  0.1959 -0.2065
29259W        W44390  13.989  10.668   1.166  0.0158  0.0204 -0.1452
29260W        W44391  12.824  11.381  12.538  0.0464 -0.0393 -0.0195
29261W        W44392   1.129   8.128  13.738  0.1387  0.3251 -0.3044
29262W        W44393  14.206   3.080  14.880  0.0040  0.0551 -0.0608
29263W        W44394   5.900  14.031   2.774 -0.0158  0.0421  0.1450
29264W        W44395  16.656  16.709   5.587 -0.0236  0.1269 -0.1636
29265W        W44396  10.344  10.022   2.365 -0.1646  0.2464  0.2183
29266W        W44397   2.129   4.936   0.990 -0.1052 -0.0952 -0.0507
29267W        W44398   4.920  12.855   4.566  0.0262  0.1617  0.2820
29268W        W44399   1.374   0.711  12.123 -0.0415  0.1178 -0.0101
29269W        W44400  12.136  14.622   5.183 -0.1091  0.0736  0.0984
29270W        W44401  16.368   3.865  13.380 -0.1634 -0.1874  0.0699
29271W        W44402  15.246  17.569  13.041  0.1983 -0.2653  0.1576
29272W        W44403  11.107   9.689  11.806 -0.3057  0.1513  0.2310
29273W        W44404  10.475   4.050  11.459 -0.2009  0.2189 -0.2315
29274W        W44405   7.313  11.585  14.912 -0.0403  0.0694  0.3253
29275W        W44406   4.588   4.113   5.332 -0.0582  0.0621  0.1404
29276W        W44407   2.468  14.379  12.820 -0.0448 -0.0801 -0.0576
29277W        W44408  11.505  12.238   6.708  0.1417  0.0251 -0.1229
29278W        W44409   7.854   3.617  10.883 -0.2466  0.0766 -0.0912
29279W        W44410  10.863   7.830  14.251  0.0641  0.0758  0.0459
29280W        W44411  12.545  16.095  14.852 -0.2088 -0.0354  0.0256
29281W        W44412   0.539   9.095   0.936 -0.2794 -0.1788 -0.0739
29282W        W44413   9.274  16.867  16.100 -0.1194  0.3549 -0.2314
29283W        W44414   3.444   2.203  12.607  0.0400 -0.0550 -0.0729
29284W        W44415  10.336   1.413   3.973 -0.4309 -0.0622  0.0907
29285W        W44416   1.054   9.484  12.832  0.0614 -0.0238  0.0746
29286W        W44417  15.033  12.300   3.122 -0.0510  0.1474  0.0597
29287W        W44418   1.856  12.657   2.965 -0.3264  0.1172 -0.1144
29288W        W44419  10.700   7.439   2.291  0.0222 -0.1251  0.4124
29289W        W44420  14.742   3.069   4.803 -0.3140  0.0261  0.1633
29290W        W44421  12.653   1.352   5.894  0.1205  0.2188  0.1529
29291W        W44422  11.617   5.894   2.851 -0.1091  0.2195  0.0745
29292W        W44423  17.350  13.961   0.640 -0.1766  0.0170  0.1074
29293W        W44424   5.912  13.698   2.396 -0.0413  0.2082  0.1097
29294W        W44425  15.661  12.085  11.729 -0.2903  0.0692  0.1155
29295W        W44426   2.036  12.875  14.899  0.0065  0.0792  0.0976
29296W        W44427   9.197  14.636   2.477  0.1212 -0.0328 -0.3743
29297W        W44428   2.846   2.723   2.263 -0.0290  0.0475  0.0795
29298W        W44429   6.353  17.608  12.171  0.2034 -0.2012  0.0354
29299W        W44430   5.403   2.518   4.523  0.1684  0.4466 -0.0256
29300W        W44431   4.287   1.206  14.216 -0.0565 -0.0299 -0.0242
29301W        W44432  17.264  10.930   0.351 -0.2023  0.0965  0.2356
29302W        W44433   9.173   4.518   1.437 -0.1218  0.0128 -0.0040
29303W        W44434  10.122   3.095  13.087  0.1627 -0.2595 -0.0100
29304W        W44435   6.306   2.998   2.431  0.2206  0.2431 -0.1677
29305W        W44436  15.448  13.566  14.562  0.2177 -0.3508  0.1446
29306W        W44437   9.240   1.546  15.920  0.2627 -0.3025 -0.0942
29307W        W44438   3.819  12.288   3.634 -0.1863  0.2099  0.2066
29308W        W44439   1.938   0.479   2.991 -0.0812  0.0588  0.0447
29309W        W44440  12.726   3.143  14.229 -0.2673 -0.2194 -0.0751
29310W        W44441  12.209  15.316   0.040 -0.1159  0.0131 -0.0091
29311W        W44442   3.369  15.234   0.452 -0.0410  0.2789 -0.1759
29312W        W44443   2.505   0.095  15.239 -0.0363  0.2238 -0.3475
29313W        W44444   5.287  12.912   5.417  0.0192 -0.1893  0.0665
29314W        W44445   2.875   5.051   3.400 -0.0679  0.1694  0.2871
29315W        W44446   5.597   1.185   1.724  0.0626  0.0530 -0.2043
29316W        W44447   4.125   9.650   4.830  0.0656  0.0442  0.1984
29317W        W44448   5.665  11.738  11.725  0.0462 -0.2384  0.0042
29318W        W44449  14.953   4.819   3.780  0.0176  0.2059 -0.1398
29319W        W44450   2.902   3.257  13.735  0.1391 -0.1788 -0.1204
29320W        W44451  16.893   6.068   0.794  0.3508  0.1871  0.0304
29321W        W44452  14.106  17.704   5.390 -0.4279 -0.2780  0.1149
29322W        W44453  12.247  17.257  15.762  0.2567  0.1323 -0.2221
29323W        W44454   1.822  12.865  16.135  0.3774 -0.0961 -0.0067
29324W        W44455   1.244   2.496   0.192  0.2170  0.3091  0.0063
29325W        W44456   3.375  16.146  15.402  0.0976  0.1484  0.1682
29326W        W44457   1.417   1.777   3.463 -0.1624  0.1920 -0.5206
29327W        W44458   3.571   9.929  16.104  0.0956  0.1526  0.1674
29328W        W44459  11.146  15.881  12.628  0.4329  0.1848 -0.1849
29329W        W44460   6.399  10.296  11.266  0.2276 -0.1911 -0.0385
29330W        W44461  17.567  17.588   0.562  0.2291 -0.0867 -0.1177
29331W        W44462  10.219   9.736   4.201 -0.1594 -0.3879  0.0752
29332W        W44463   7.675   9.923   0.121 -0.1848 -0.0727  0.0735
29333W        W44464   5.476  12.106  10.132  0.0670 -0.1963 -0.2450
29334W        W44465   9.130  12.283  12.636  0.0136 -0.0045 -0.0611
29335W        W44466  10.539  12.484   2.287  0.2502  0.4069  0.1114
29336W        W44467   2.914   9.182  13.762 -0.0662  0.1273 -0.0531
29337W        W44468  17.593   7.652  13.347 -0.0012 -0.1230  0.0704
29338W        W44469  16.903  15.726   3.492 -0.0878 -0.0857 -0.3301
29339W        W44470  11.968   4.331   4.152  0.1789 -0.0886  0.0525
29340W        W44471   9.248  11.959  13.492 -0.1340  0.0147 -0.1610
29341W        W44472   2.351  12.750  11.955  0.3947  0.0506 -0.0451
29342W        W44473   9.465   2.724   3.323 -0.0633  0.0266  0.1231
29343W        W44474  17.394   2.644  14.227  0.0436 -0.2361 -0.0445
29344W        W44475   1.503  11.072   4.794 -0.3215  0.3663 -0.1692
29345W        W44476  12.844  10.842   2.602 -0.1906  0.0999 -0.2929
29346W        W44477  16.015   0.689   1.368 -0.2457  0.1348  0.1350
29347W        W44478  14.093   9.298  16.214 -0.2577  0.0772 -0.1338
29348W        W44479   5.441   4.150   4.183  0.0089 -0.1699  0.1796
29349W        W44480  13.786   2.980  12.233 -0.0043 -0.2168 -0.3132
29350W        W44481   0.192   1.314  13.516  0.1879  0.2263  0.0501
29351W        W44482   7.120  11.724  16.045  0.0846 -0.2524  0.1114
29352W        W44483   7.911  17.737  13.369 -0.0652 -0.1160 -0.1244
29353W        W44484  12.019  15.569   4.161  0.1854 -0.1536 -0.2159
29354W        W44485   8.618   9.095  10.849 -0.3604  0.0621  0.0636
29355W        W44486   4.561   6.419   5.582  0.0455  0.0444 -0.1574
29356W        W44487   5.248  13.093  12.461  0.1748  0.0499 -0.0573
29357W        W44488   0.602  14.500  14.066 -0.1374  0.0760 -0.1276
29358W        W44489  15.637  14.750  15.377  0.1155  0.1332  0.1797
29359W        W44490  12.294  10.124   4.355  0.0060  0.2165 -0.0697
29360W        W44491  16.874   6.499  12.876  0.1965 -0.3041  0.1940
29361W        W44492  11.549   5.630   3.974 -0.0171  0.1801 -0.0711
29362W        W44493  15.914   4.745   3.251 -0.2716  0.0955 -0.0833
29363W        W44494   2.170   8.651   3.299 -0.1887 -0.0489 -0.2730
29364W        W44495   8.657  17.416  14.428 -0.0811  0.0389 -0.1439
29365W        W44496   4.651  15.413  12.092 -0.2277  0.0390  0.0702
29366W        W44497  14.599  14.324   4.790  0.0710 -0.1634  0.1578
29367W        W44498  14.731  11.040  14.359 -0.2209  0.4004  0.1302
29368W        W44499   2.867  17.551   2.362 -0.0443 -0.1201 -0.0436
29369W        W44500   3.504   6.877  14.799 -0.1730 -0.1456  0.1499
29370W        W44501  17.709   6.303   2.765 -0.0453 -0.0943 -0.4485
29371W        W44502  14.159   3.311   0.312 -0.4104  0.0724  0.0992
29372W        W44503   9.329  13.017   4.193  0.0642 -0.1856 -0.2929
29373W        W44504  12.530  16.474  11.961 -0.1895 -0.1065 -0.1153
29374W        W44505   2.956   2.739   4.110  0.1341 -0.1742 -0.0682
29375W        W44506  15.586  11.994  15.819 -0.0527  0.0729  0.0188
29376W        W44507   2.416   0.894   0.884 -0.1425 -0.1518  0.0476
29377W        W44508  12.032   3.979  11.144 -0.0630 -0.1234  0.0799
29378W        W44509   7.355   4.930  11.784  0.2204 -0.0827 -0.0273
29379W        W44510   7.043  10.952   0.275  0.3125  0.0290  0.0673
29380W        W44511   0.991   6.717   1.123 -0.1556  0.2525  0.2614
29381W        W44512   3.626  16.484  16.050 -0.0835  0.0459 -0.0254
29382W        W44513   9.024   8.216  10.819 -0.2271 -0.2866 -0.3170
29383W        W44514  17.960  17.522  15.890 -0.1377 -0.2894  0.1043
29384W        W44515   4.524   7.460  12.851 -0.1028 -0.1325  0.1140
29385W        W44516  16.895   9.779  14.853  0.1016 -0.1416  0.2001
29386W        W44517   9.582  14.801  11.425 -0.0386 -0.0532 -0.2133
29387W        W44518   7.064   6.007   2.685 -0.0304  0.2157 -0.0151
29388W        W44519   9.989   5.396   4.099 -0.2041  0.3623 -0.0740
29389W        W44520   7.448   9.323   2.442  0.0094 -0.0035  0.1273
29390W        W44521   8.016   3.263  15.167  0.1951 -0.3666 -0.0080
29391W        W44522   6.590  15.529   2.429  0.1288  0.0844 -0.0550
29392W        W44523   0.395  16.265  11.689  0.3096 -0.0431 -0.0828
29393W        W44524   1.828   4.079  14.020  0.0909  0.0478 -0.1842
29394W        W44525   7.732  11.939   3.038  0.2760  0.1230 -0.0043
29395W        W44526   7.391   8.751   3.705 -0.1614 -0.4938  0.1017
29396W        W44527  13.097  17.711   5.854 -0.3075  0.0428 -0.4221
29397W        W44528  16.630   1.194   5.093 -0.0030  0.1868 -0.1776
29398W        W44529  16.211   8.129   2.762  0.0047  0.0625 -0.1664
29399W        W44530   6.842  15.159   1.562  0.0508 -0.1381  0.3692
29400W        W44531  14.137   9.319   0.713  0.2469 -0.1303  0.0336
29401W        W44532  14.289   3.282   2.009  0.0123 -0.0630  0.1344
29402W        W44533   9.641  13.201  15.154 -0.0604  0.0277 -0.0783
29403W        W44534   5.764  17.150  13.299  0.0978 -0.0745 -0.1812
29404W        W44535  17.750   2.386  10.979  0.1594 -0.1194 -0.1421
29405W        W44536   3.742   3.664   1.026  0.0668 -0.0178 -0.0314
29406W        W44537   7.034  14.169  13.305  0.1902  0.0864  0.0817
29407W        W44538   7.326   6.873  14.937  0.0805  0.1345  0.0290
29408W        W44539  12.671   9.616  12.794 -0.0541  0.1280 -0.1374
29409W        W44540  17.680   7.670   4.872  0.2378 -0.0973  0.2570
29410W        W44541  15.461   8.827   3.563 -0.1030 -0.0158  0.0525
29411W        W44542  13.749  14.765  13.335  0.1049 -0.0703  0.0765
29412W        W44543   0.297   9.999  10.953 -0.1947 -0.0306 -0.2695
29413W        W44544   2.460  17.147  14.331 -0.0050 -0.1619  0.0902
29414W        W44545   4.360  10.206  14.077  0.0451  0.0327  0.3231
29415W        W44546  13.046   3.661   4.381  0.0267  0.1459  0.1624
29416W        W44547   4.821  16.794  14.904 -0.2295 -0.1434 -0.0895
29417W        W44548   5.675  11.125   1.802 -0.2158 -0.1220  0.0082
29418W        W44549   5.971   0.491   0.003 -0.1561  0.0770  0.2253
29419W        W44550  10.951   6.884   0.773  0.0897  0.1208  0.1781
29420W        W44551  12.911   3.491  12.780 -0.1645 -0.0554 -0.0126
29421W        W44552   0.231   1.548  11.364  0.0671  0.0118 -0.0296
29422W        W44553  16.910  15.257   0.788 -0.1924 -0.0555 -0.2532
29423W        W44554  17.177  10.608   6.310  0.1359 -0.2513 -0.0767
29424W        W44555  11.655  12.219   2.724  0.2282 -0.0293 -0.2913
29425W        W44556   1.552   0.383  11.242  0.1022  0.0743  0.0790
29426W        W44557  18.011   6.013  11.588  0.3697  0.3184  0.1076
29427W        W44558  11.571  14.791  10.233 -0.0519  0.1265  0.0100
29428W        W44559   9.974   1.494   5.237  0.0104 -0.1802 -0.4188
29429W        W44560  12.630  17.733   2.208  0.1536  0.3137 -0.0269
29430W        W44561  12.891  17.300   5.065 -0.0899 -0.1507 -0.2798
29431W        W44562   6.592   8.338   4.008  0.1569  0.3315  0.2886
29432W        W44563  15.179  14.747   4.431  0.0202  0.2775  0.1322
29433W        W44564  10.466   2.582   5.222  0.4521  0.1207 -0.1689
29434W        W44565   1.245   4.054  14.802 -0.3428  0.3023  0.1788
29435W        W44566  10.528   6.167  16.245 -0.3085 -0.1620  0.2449
29436W        W44567  15.633  16.148  11.135 -0.1291 -0.1596  0.0200
29437W        W44568   1.343   2.160   3.062 -0.0436 -0.0451  0.2359
29438W        W44569   3.940   2.078   4.838  0.2610 -0.1903 -0.1564
29439W        W44570   4.471  17.133   4.944 -0.0984  0.3058  0.0514
29440W        W44571   7.427   9.855   5.235 -0.0215 -0.4443 -0.0247
29441W        W44572   8.822  16.182   3.529 -0.0138  0.1248 -0.1768
29442W        W44573   7.419  16.017   2.236  0.0064  0.0178  0.0167
29443W        W44574   3.026   4.866   1.260 -0.3691 -0.0955 -0.1447
29444W        W44575  10.681  14.029   4.987  0.0141  0.1856  0.0953
29445W        W44576   9.250   8.876   3.094  0.2426  0.1496  0.3714
29446W        W44577   8.286   6.092  12.761  0.0181 -0.1706 -0.0631
29447W        W44578   0.749  15.278   4.617  0.2370 -0.0015 -0.0578
29448W        W44579  16.839   1.041   4.028 -0.0635 -0.2405 -0.4290
29449W        W44580  12.389   3.388   1.712 -0.0810 -0.0648 -0.0341
29450W        W44581   4.877   9.392   4.146  0.1890  0.1077  0.0636
29451W        W44582   8.040   3.986  14.624  0.1756  0.3187  0.1576
29452W        W44583  16.907  14.701   1.191  0.0868 -0.0781  0.3767
29453W        W44584   2.784   8.967   4.580  0.1054 -0.0529  0.3640
29454W        W44585   6.249  10.795  12.593 -0.0358 -0.2314  0.2061
29455W        W44586   6.015   0.712  11.272  0.0602  0.1903 -0.2317
29456W        W44587   8.056  17.490  15.900  0.3581  0.0004  0.0340
29457W        W44588   6.282   8.465  10.879 -0.1432  0.3461  0.1082
29458W        W44589  16.048  15.546   3.054 -0.0626 -0.1155 -0.0218
29459W        W44590   2.836   1.232   2.419 -0.0069 -0.0085  0.1928
29460W        W44591   9.348  13.503   5.500 -0.0457 -0.2221 -0.3527
29461W        W44592  16.354  13.145  15.223  0.2086 -0.2198 -0.0443
29462W        W44593  15.512  16.315  14.763  0.2596  0.0680  0.1979
29463W        W44594  13.275  10.789   0.232  0.4177 -0.4077 -0.3543
29464W        W44595   9.243   5.125   0.059  0.1888 -0.0634  0.1019
29465W        W44596  15.193   9.330  12.101  0.1445 -0.1586 -0.1567
29466W        W44597   8.872   7.415  14.573 -0.0868  0.0304 -0.0030
29467W        W44598   5.855  12.292   1.855  0.2629  0.2063 -0.2356
29468W        W44599   7.946  10.017   4.508 -0.0888 -0.1305 -0.0742
29469W        W44600  17.643  11.686   2.466 -0.0106  0.0038 -0.1260
29470W        W44601   3.468  12.837  12.507 -0.0933 -0.1416  0.1138
29471W        W44602   8.583   8.907  12.877  0.0128 -0.0479 -0.1659
29472W        W44603  10.587  11.642  15.455 -0.2250  0.1576  0.1183
29473W        W44604   7.282   7.593   5.639 -0.0170 -0.3271  0.0412
29474W        W44605  18.100   2.450  13.671 -0.0142  0.1711 -0.0410
29475W        W44606   5.549   0.554   3.328 -0.2772  0.2772 -0.2085
29476W        W44607   2.612   4.587  15.655  0.1045 -0.2046  0.0277
29477W        W44608  16.950  16.466   1.557 -0.1377  0.1147  0.2296
29478W        W44609   9.529   0.456  13.182 -0.1213 -0.0530  0.1926
29479W        W44610  11.947   1.364  12.464 -0.0186 -0.0070 -0.0918
29480W        W44611  15.786  16.275  13.674  0.1244 -0.3528 -0.2370
29481W        W44612  11.848   7.834   4.909  0.0076  0.0694  0.0753
29482W        W44613   3.822  17.333  11.240 -0.1013 -0.1559 -0.1560
29483W        W44614   7.082  17.446  13.673  0.0704  0.0682 -0.0872
29484W        W44615   2.819   4.092   3.987  0.1827  0.2614  0.1626
29485W        W44616  17.304  11.094   4.916 -0.2081  0.0363 -0.0038
29486W        W44617   1.352  10.929  11.263  0.2536  0.2507 -0.3682
29487W        W44618   1.061  10.682   1.366  0.0548  0.0948  0.0213
29488W        W44619   6.343  15.635   3.539 -0.2119 -0.3847  0.1240
29489W        W44620   0.677  14.907   0.078 -0.0571  0.3313  0.1295
29490W        W44621  16.027   8.821   5.758 -0.0715 -0.0731  0.0558
29491W        W44622   8.277   2.701  12.366 -0.2819  0.0443 -0.2401
29492W        W44623   2.433   4.010  13.322  0.2612 -0.0113 -0.0871
29493W        W44624  13.213   4.402   3.644 -0.1140  0.1630  0.0456
29494W        W44625   3.129   7.701  14.315 -0.0100  0.0118 -0.0478
29495W        W44626  11.645   7.802  13.235  0.1762 -0.1996  0.3495
29496W        W44627   8.481   1.890   1.256  0.4788 -0.2858  0.1357
29497W        W44628   6.193  16.997  14.552 -0.0958  0.2386 -0.3127
29498W        W44629   0.585   3.319  16.297 -0.1282 -0.2303  0.0411
29499W        W44630   7.035  12.331   1.237  0.2851  0.1797 -0.0125
29500W        W44631  13.515  13.701  14.918  0.0069  0.1839  0.0022
29501W        W44632   1.342   7.348   0.350 -0.1105  0.1971  0.0595
29502W        W44633   2.006   7.254   2.546 -0.0689 -0.1386 -0.2551
29503W        W44634   5.079   4.134   1.806 -0.0458  0.1085  0.4548
29504W        W44635   3.559   1.794  16.263  0.0211  0.2105 -0.0987
29505W        W44636   0.537   3.177   0.366  0.0153  0.1455 -0.0178
29506W        W44637   8.857   8.459  12.606  0.0589  0.1422 -0.2010
29507W        W44638  12.163  17.231  12.080  0.1952 -0.2702  0.1583
29508W        W44639  12.287  16.729   0.549 -0.1343 -0.2569 -0.1117
29509W        W44640   9.526  10.832  12.137 -0.1550  0.2049  0.2050
29510W        W44641   8.421   9.013   1.417 -0.0595 -0.0417  0.3255
29511W        W44642   6.057   0.585  15.006 -0.1496  0.0436  0.1408
29512W        W44643   8.262  17.856  15.418  0.3827  0.2419 -0.1493
29513W        W44644  13.839  17.838   0.477 -0.0065  0.3313  0.0281
29514W        W44645   0.920  11.839  15.413  0.1410 -0.0935  0.1183
29515W        W44646  14.474   2.752  14.507 -0.0478  0.0191 -0.0838
29516W        W44647   1.855   5.436  14.834  0.0224  0.0077 -0.3299
29517W        W44648  12.895  11.100   0.993 -0.0584 -0.4465 -0.0308
29518W        W44649   8.409   8.442   1.306 -0.0554  0.2620  0.0675
29519W        W44650   0.949  12.458  14.484  0.2112  0.4842 -0.3793
29520W        W44651   1.870   0.763   0.838  0.2004 -0.1415 -0.0390
29521W        W44652   6.657   4.790  12.933  0.1175  0.0026 -0.0213
29522W        W44653  11.427  16.777   1.549  0.0615  0.0029 -0.1641
29523W        W44654  13.928  13.119  13.849 -0.1519  0.0717  0.2116
29524W        W44655  10.308  14.889   2.604 -0.3010 -0.2275 -0.0647
29525W        W44656  15.714  16.707  16.056  0.0186  0.3973  0.1543
29526W        W44657  10.307  15.983  16.220  0.1761  0.1310 -0.1221
29527W        W44658   1.469  14.968   1.809  0.2304 -0.0000 -0.1721
29528W        W44659   3.434   0.610   1.391 -0.1621 -0.0308  0.1922
29529W        W44660   9.534  14.819   4.428  0.0969  0.0846  0.1351
29530W        W44661   4.291   5.256   2.713  0.2825 -0.0615 -0.0122
29531W        W44662   5.149  15.604  12.736 -0.0900  0.3207 -0.0583
29532W        W44663   2.190   9.244  14.861  0.4043  0.3193 -0.0798
29533W        W44664  13.005  13.298   2.650  0.2102 -0.1544  0.2043
29534W        W44665   7.136  17.797  11.098 -0.0916 -0.0890 -0.0077
29535W        W44666   6.877   1.277  14.499  0.2102  0.1106 -0.0130
29536W        W44667   2.308  11.602   9.723 -0.0239  0.1879  0.2339
29537W        W44668  11.348   0.544  13.558 -0.0854 -0.1941  0.0245
29538W        W44669  16.666   7.479  13.831  0.1200  0.0906  0.0645
29539W        W44670  17.077   6.897   1.621 -0.3367 -0.0051 -0.2375
29540W        W44671   9.479  17.508  13.090  0.3019  0.0693 -0.0641
29541W        W44672   6.129   5.565  11.348  0.1734 -0.0131  0.2846
29542W        W44673   3.479   0.147   3.408 -0.1196 -0.3988 -0.0306
29543W        W44674   8.786  13.222   4.301 -0.0363 -0.1226 -0.1473
29544W        W44675  13.037   5.137  14.981  0.0108  0.1279  0.0183
29545W        W44676  14.206  17.856   3.966 -0.0460  0.3358 -0.1445
29546W        W44677   6.508   2.535  12.423 -0.1164 -0.1304  0.2020
29547W        W44678  16.728  17.827   3.432 -0.0368  0.0450  0.0844
29548W        W44679  18.018  13.540   4.264  0.0149 -0.0595 -0.0031
29549W        W44680   9.198  12.313   0.989 -0.0671  0.2642 -0.1879
29550W        W44681  15.841  16.795   2.169 -0.0991 -0.1905 -0.2209
29551W        W44682   7.202   3.873   2.288  0.0950  0.1767  0.2364
29552W        W44683  13.048   2.559  15.547 -0.0241  0.0279  0.0913
29553W        W44684   0.224  13.478   2.479  0.0904 -0.0745 -0.0498
29554W        W44685  13.729   9.687   2.752 -0.0919 -0.0990  0.0184
29555W        W44686  16.799   2.079   2.828 -0.0908 -0.1668 -0.1334
29556W        W44687   3.421  17.540  13.044 -0.1520 -0.1176  0.4052
29557W        W44688   3.916  12.876   1.486 -0.1032 -0.1739  0.1990
29558W        W44689   9.960   2.195   1.641  0.0260 -0.0763 -0.1978
29559W        W44690   1.726   5.097  15.152 -0.2496  0.2071 -0.0067
29560W        W44691  11.427   5.000   1.218 -0.2079  0.1396 -0.1336
29561W        W44692  16.422  16.152  14.786  0.0763  0.2778 -0.3084
29562W        W44693  13.361   0.516  11.946 -0.1618  0.1969  0.2259
29563W        W44694  10.771   1.389  15.972 -0.0485 -0.1443  0.0880
29564W        W44695  10.469  12.663  14.664  0.2516 -0.1866  0.0137
29565W        W44696   9.411   6.349   0.726  0.0353 -0.0385 -0.1767
29566W        W44697  11.668   7.543  15.305  0.0983  0.0688 -0.0646
29567W        W44698   9.414   3.332   4.460 -0.1574 -0.0504 -0.0404
29568W        W44699   2.225   2.726   3.944 -0.1240 -0.0588  0.5523
29569W        W44700   2.235  12.799  15.372  0.1370 -0.1016  0.0705
29570W        W44701   9.184   1.705   3.774  0.0603  0.0145  0.1841
29571W        W44702  12.306  14.694   4.361 -0.0613 -0.0330 -0.2265
29572W        W44703   5.769   4.167  13.378 -0.1501 -0.0580 -0.1095
29573W        W44704  13.835  15.720  13.195  0.2711 -0.2843 -0.2461
29574W        W44705   7.422   1.656  16.062 -0.0097 -0.1419 -0.0378
29575W        W44706  15.835   5.374  13.545 -0.0218  0.0337 -0.1572
29576W        W44707   8.898   9.262   0.203  0.0803 -0.1440 -0.0154
29577W        W44708  13.623   8.985   4.673  0.0696  0.2245 -0.4743
29578W        W44709   4.446   6.988   4.785 -0.1760 -0.1575  0.2513
29579W        W44710   0.429   9.943   0.636  0.1144 -0.3455  0.2020
29580W        W44711  12.551  12.646   0.148  0.0582  0.1925  0.1611
29581W        W44712   5.852  11.890  14.000  0.1567 -0.1578 -0.0658
29582W        W44713   8.472  11.050  15.263 -0.2263 -0.0448 -0.0759
29583W        W44714  14.413   5.253  14.591 -0.0537  0.0782 -0.0899
29584W        W44715  10.163  13.869  10.416  0.0723 -0.2504 -0.0105
29585W        W44716   4.478  17.833  14.032  0.1112 -0.1991  0.1023
29586W        W44717   5.855  12.366  14.146 -0.0007  0.0605  0.0742
29587W        W44718  12.395   7.211  14.193 -0.2082 -0.3658  0.1521
29588W        W44719  16.155   6.398   3.267 -0.3038 -0.1263  0.0214
29589W        W44720   8.089   6.691  16.326  0.3999 -0.1143 -0.1669
29590W        W44721   6.068   5.766  14.458  0.1412 -0.1060 -0.0970
29591W        W44722   6.236   6.717  15.650 -0.1979  0.3050 -0.0470
29592W        W44723   0.931   4.132   4.882  0.1755  0.2383 -0.0991
29593W        W44724   0.860   3.643  14.883 -0.1767  0.1016  0.1406
29594W        W44725  12.279  17.696   5.677  0.2860  0.2607 -0.1342
29595W        W44726   5.832   1.788   2.758  0.0546  0.0072  0.2676
29596W        W44727   9.702   0.012   3.840  0.0177  0.0225 -0.2301
29597W        W44728  12.839   8.445   5.394  0.1305 -0.3867  0.2301
29598W        W44729   1.372   8.837   1.468  0.1192  0.0669 -0.2628
29599W        W44730   8.800   9.784  11.326  0.1722  0.0656  0.1537
29600W        W44731   3.564   3.072   2.800  0.0801 -0.1062  0.1068
29601W        W44732   1.098   2.865  12.923  0.2692 -0.0660  0.2856
29602W        W44733  12.442   1.923   4.970  0.2487 -0.0609 -0.1368
29603W        W44734  10.994   6.610   1.587 -0.1229 -0.0968  0.2708
29604W        W44735   6.557  12.779   3.242  0.0541  0.3046  0.1764
29605W        W44736  15.776  17.616   0.929 -0.0124 -0.1648  0.0144
29606W        W44737   5.364   9.331   1.256  0.2072  0.0342 -0.2120
29607W        W44738  11.962  17.155   0.238  0.1263  0.2332  0.1400
29608W        W44739  13.203   3.892  14.203  0.1489  0.0365 -0.0900
29609W        W44740  13.876  12.661   1.654 -0.0495  0.1529  0.1953
29610W        W44741   1.925  11.215   5.072  0.0979  0.0800  0.0622
29611W        W44742  15.057  14.071  13.553 -0.1746  0.1186  0.3161
29612W        W44743  13.841   6.838   6.434  0.2340  0.1207  0.0389
29613W        W44744  16.656  13.743  11.426 -0.1850 -0.0623 -0.0986
29614W        W44745  17.364  15.034   2.837 -0.0274  0.1248  0.1234
29615W        W44746  13.288   6.933   0.146 -0.2277 -0.1058  0.1971
29616W        W44747  17.903  17.745  11.730  0.0033  0.0907  0.1552
29617W        W44748   6.911   2.738  15.752  0.1514  0.0970 -0.0748
29618W        W44749  16.987   5.825   4.850  0.0527  0.1167 -0.1256
29619W        W44750   7.792   4.144  15.902 -0.0521  0.0624 -0.1168
29620W        W44751   1.225   9.855   3.377  0.0666  0.1895  0.1157
29621W        W44752  16.522   3.835   5.290 -0.2024  0.1073  0.0065
29622W        W44753   5.613  12.249   4.283 -0.1223 -0.0956 -0.0732
29623W        W44754   3.147   2.366   3.848  0.3201 -0.2746  0.0435
29624W        W44755   2.194   9.372   1.765 -0.0041 -0.1166  0.3856
29625W        W44756  14.970  17.470  11.862  0.3713 -0.0688  0.0419
29626W        W44757   3.525  13.616  14.076 -0.1294 -0.3034 -0.0875
29627W        W44758   7.622  10.150   6.177 -0.3690  0.2738  0.0601
29628W        W44759   9.314   1.875   0.870 -0.2247 -0.0820  0.1397
29629W        W44760   4.797  13.647  12.373 -0.0621 -0.0546  0.2195
29630W        W44761  14.541  16.592   1.021 -0.1492  0.0224  0.1532
29631W        W44762   6.730   2.168   0.629 -0.1314 -0.2183 -0.1317
29632W        W44763   9.070   9.004  13.532  0.0971  0.0674 -0.1990
29633W        W44764   0.422   5.392   4.743  0.0680 -0.1565 -0.0288
29634W        W44765   0.602  12.224  11.210  0.1261 -0.0251 -0.0663
29635W        W44766  11.801   9.094  12.860  0.2147  0.0988  0.0082
29636W        W44767   3.954   9.255   9.546  0.0357 -0.1067 -0.0606
29637W        W44768  10.786  16.371   5.140  0.3108 -0.4772 -0.0471
29638W        W44769  11.651  15.628   1.051  0.1761  0.1521  0.0555
29639W        W44770   0.118   7.686   1.007 -0.0095 -0.0010  0.0941
29640W        W44771  15.980   3.268   5.312  0.3114  0.3950 -0.1015
29641W        W44772  13.186   5.858   3.423 -0.0724 -0.0015 -0.0385
29642W        W44773   1.737   5.113   2.821 -0.2013  0.1625 -0.0729
29643W        W44774  16.747   4.273   5.591 -0.1711  0.1589  0.1964
29644W        W44775  16.100  11.712   3.037 -0.1334  0.2570 -0.1032
29645W        W44776  16.454   9.823   0.551 -0.0249 -0.1079 -0.3463
29646W        W44777   1.195  17.588   2.962  0.1941 -0.0635  0.2331
29647W        W44778  15.486   9.472  11.627 -0.1184  0.1047  0.1492
29648W        W44779   5.306   6.924   3.902 -0.1437  0.1256 -0.1005
29649W        W44780  12.255   4.275   2.006  0.0711 -0.1194  0.3302
29650W        W44781  12.761   8.701   5.876  0.0331  0.2111  0.3162
29651W        W44782  16.768  15.663   5.093 -0.3496 -0.0209  0.0619
29652W        W44783  11.945   6.556   4.525  0.0726  0.0341 -0.1962
29653W        W44784   7.135   7.126   3.498  0.3078  0.0083 -0.1440
29654W        W44785  14.126  16.532   4.560  0.1324 -0.1415 -0.2786
29655W        W44786  16.593  17.745  15.516  0.1628 -0.2280 -0.1144
29656W        W44787   2.439  16.892   3.102  0.0590 -0.1170 -0.2021
29657W        W44788   1.398  16.425  11.564  0.0155  0.2207  0.2744
29658W        W44789   2.167  17.302  13.879 -0.0042  0.0747 -0.0900
29659W        W44790   4.240   4.435   2.282  0.0185  0.1930  0.2377
29660W        W44791   2.288   5.435  11.239  0.1743  0.0348  0.0505
29661W        W44792  14.586   1.064  14.334 -0.0524  0.2890 -0.2180
29662W        W44793   7.326   9.553  10.585 -0.0883 -0.0485  0.1755
29663W        W44794   3.891   3.004   4.197  0.0091 -0.2134  0.1056
29664W        W44795   9.324  14.343  15.927  0.2925 -0.1340  0.2335
29665W        W44796   8.915   5.883  11.475  0.1044 -0.0619  0.0406
29666W        W44797  10.286   7.742   5.095 -0.3170 -0.0653  0.2777
29667W        W44798  16.690   3.876   1.164 -0.0995  0.0825 -0.0062
29668W        W44799  16.242   3.114  11.951  0.1461  0.1859  0.4881
29669W        W44800  13.208   7.504   1.432  0.0409  0.0493 -0.1563
29670W        W44801  14.764  15.774   4.184  0.2831  0.2675  0.2704
29671W        W44802   5.751  13.022  14.305 -0.1318  0.1854 -0.0656
29672W        W44803  12.527   1.966  12.518  0.0314 -0.1382 -0.1475
29673W        W44804  14.069   0.184   0.360 -0.1396  0.0970 -0.0416
29674W        W44805   6.977   1.303   4.674  0.1217 -0.2271  0.2404
29675W        W44806  10.247   9.065   4.540 -0.1066  0.2469  0.1703
29676W        W44807   7.554  14.486   2.712  0.2801  0.3275  0.1235
29677W        W44808   2.632  12.766  10.656  0.0847 -0.1845 -0.2709
29678W        W44809  13.798  17.837   4.411  0.2417 -0.1607  0.0672
29679W        W44810   9.676   2.384  16.035  0.1232  0.1216  0.0962
29680W        W44811   0.731  17.637   0.329 -0.1913  0.1037 -0.0682
29681W        W44812  17.392  14.902  15.643 -0.3100  0.0331 -0.0927
29682W        W44813   7.883  10.214  12.161 -0.2291 -0.1086  0.1472
29683W        W44814   8.197   3.727   4.942 -0.0563  0.0615  0.1364
29684W        W44815  16.287  14.197   1.409  0.0884  0.1689 -0.0569
29685W        W44816   2.110  12.144   2.084  0.1047 -0.0534 -0.0483
29686W        W44817  10.939   1.564  13.179  0.2717 -0.0131  0.1333
29687W        W44818   7.767   7.790   3.585  0.0140 -0.0892  0.1323
29688W        W44819   5.482  16.581   0.288  0.0836  0.0103  0.0188
29689W        W44820  12.983   2.919   2.875 -0.1413 -0.2131  0.1319
29690W        W44821   2.776   5.328   3.019  0.1287 -0.0561  0.1826
29691W        W44822   6.198   1.767   4.735 -0.0364 -0.1032 -0.2098
29692W        W44823   7.262  13.262   2.694  0.1843 -0.0034 -0.0280
29693W        W44824  15.425   3.266   3.216  0.1922  0.0059 -0.0817
29694W        W44825   6.475   5.866  11.544  0.2163 -0.3902 -0.2128
29695W        W44826   3.498   2.263  13.199  0.0478 -0.0326 -0.1137
29696W        W44827  18.064   1.239  15.170  0.1413  0.2730 -0.0615
29697W        W44828   9.161  13.350  13.363  0.0060 -0.1086  0.0390
29698W        W44829   8.492   4.003   2.399 -0.0324 -0.1862 -0.1388
29699W        W44830  10.856   3.846  11.886 -0.0970  0.2825 -0.3285
29700W        W44831  17.619   3.968   2.523 -0.0669  0.0125 -0.0312
29701W        W44832  16.765   3.781   3.985 -0.0867 -0.0598 -0.0743
29702W        W44833   0.233  15.268  11.140 -0.1403  0.1014  0.0262
29703W        W44834   4.367  15.407   3.575  0.0634 -0.0379  0.2762
29704W        W44835   8.101  15.325  11.802  0.0921 -0.2290  0.1703
29705W        W44836   5.954   1.701   3.495  0.0838  0.0804  0.0337
29706W        W44837  11.979   6.987  11.753  0.0187  0.1174 -0.1432
29707W        W44838  15.792   6.490   5.267  0.0658  0.0322  0.3443
29708W        W44839  14.898   9.063  14.953  0.1357  0.0945 -0.1405
29709W        W44840  16.268  14.164  13.277 -0.1251  0.1778  0.0632
29710W        W44841   4.325  17.357  15.844  0.2691  0.0892 -0.4157
29711W        W44842   4.155  14.004   5.132 -0.0033 -0.2483 -0.1278
29712W        W44843   1.544   3.924  15.602 -0.1537  0.3306 -0.0993
29713W        W44844   4.216   4.790   3.634 -0.1512  0.1823  0.1178
29714W        W44845   7.732  17.710   3.226 -0.0323 -0.2579 -0.0040
29715W        W44846  13.927  16.270   2.531  0.1604  0.2430  0.0508
29716W        W44847   0.091  13.548   1.185 -0.2271  0.0231 -0.1953
29717W        W44848   1.708   5.970  15.074 -0.0872 -0.0096 -0.0359
29718W        W44849   3.874  15.758   4.985 -0.1315 -0.1196 -0.0021
29719W        W44850   9.688   8.307  15.023 -0.0172 -0.0446 -0.0123
29720W        W44851   7.394  17.614   0.584 -0.0644 -0.1227 -0.0577
29721W        W44852  15.343   4.643  13.516  0.0618 -0.1549 -0.0651
29722W        W44853   4.486   2.784   2.152  0.3683  0.0210  0.1709
29723W        W44854  16.780   5.285  11.656 -0.0061  0.0616 -0.0510
29724W        W44855  16.162   6.015  15.546 -0.0321 -0.1434  0.1122
29725W        W44856   4.137   7.336   5.760  0.3384  0.0357  0.0371
29726W        W44857  15.812   6.950  13.236  0.0562 -0.0842 -0.1170
29727W        W44858  13.898   6.898  11.776  0.0650  0.0239 -0.0645
29728W        W44859  18.064   7.362   0.619  0.2471 -0.4272 -0.2295
29729W        W44860   6.198   7.480  13.214  0.0952  0.3159  0.0116
29730W        W44861  11.447   8.553   0.548 -0.1080 -0.0091 -0.2818
29731W        W44862   5.741   8.966   0.627  0.0414 -0.1923  0.0810
29732W        W44863  10.273  13.057  14.280  0.3438  0.3466  0.2010
29733W        W44864   1.463   2.294  15.850  0.1231  0.0121 -0.2208
29734W        W44865   9.057  13.235  12.507 -0.1572  0.1944  0.0113
29735W        W44866   7.937   0.895  15.591 -0.1607 -0.0039 -0.1790
29736W        W44867   3.202  15.220   2.705  0.1057 -0.0523  0.0906
29737W        W44868   9.938  15.007   3.794  0.0086 -0.3097  0.2218
29738W        W44869  15.168   3.298   4.132 -0.0241 -0.1138 -0.1010
29739W        W44870  11.850  17.676   3.040  0.2804 -0.4597 -0.1829
29740W        W44871   3.837   7.830  11.365  0.2824  0.3927  0.3233
29741W        W44872  16.063   4.974   3.629  0.0696 -0.1236 -0.0043
29742W        W44873   9.131   3.157  13.291 -0.3101  0.1075 -0.0658
29743W        W44874  17.908   2.780   0.208 -0.2141  0.3477 -0.1143
29744W        W44875  15.706  11.962   4.726 -0.0163 -0.1893  0.1657
29745W        W44876   5.723   2.611  16.348  0.0721  0.2694 -0.3617
29746W        W44877   3.288   7.631   1.168 -0.1714  0.0779  0.0248
29747W        W44878   7.736   6.437   4.242 -0.1183 -0.2615 -0.1578
29748W        W44879  15.411  13.670  15.157  0.0741  0.0458 -0.1292
29749W        W44880   8.133   1.971  15.741 -0.0842  0.0044  0.1176
29750W        W44881   3.974  15.662   3.396 -0.0157 -0.1672  0.1209
29751W        W44882   8.730  11.045   5.436  0.0640 -0.3046  0.0110
29752W        W44883   8.225   3.771  15.077 -0.0766  0.1571  0.2810
29753W        W44884   5.726  13.495   1.250 -0.0436  0.1585 -0.1816
29754W        W44885   2.916   3.373   5.123  0.3937  0.1551  0.1440
29755W        W44886   5.231  16.393   3.350  0.0106  0.2140 -0.0119
29756W        W44887   1.837   1.122   2.667 -0.1293  0.1945  0.1070
29757W        W44888  12.141   3.902   0.816  0.1847 -0.5812 -0.0552
29758W        W44889   8.532   6.429   5.134  0.2987 -0.0106  0.1066
29759W        W44890   0.841   5.708   3.748 -0.0253  0.0675 -0.0848
29760W        W44891  10.827   9.134   0.110  0.1218  0.0460 -0.0626
29761W        W44892   4.136   0.096  11.803 -0.4310 -0.2484 -0.2480
29762W        W44893   0.090  17.704   6.191 -0.0471  0.0336  0.0900
29763W        W44894  15.073  13.283  12.248  0.1618  0.2115 -0.2279
29764W        W44895   3.282   3.968   3.852 -0.3070  0.0625 -0.1402
29765W        W44896   5.101  10.642   0.805 -0.1021  0.0101 -0.4237
29766W        W44897   2.039  10.802  15.665 -0.1635 -0.0221 -0.1085
29767W        W44898  13.090  10.819   5.808  0.1569 -0.0231 -0.1073
29768W        W44899   5.121   1.097  14.461 -0.1940  0.1124  0.1185
29769W        W44900   1.495   9.815   2.809  0.1284 -0.0311  0.1034
29770W        W44901   3.636   7.305  10.792 -0.0679 -0.0396 -0.1303
29771W        W44902   6.887   0.252   0.657  0.1272  0.0167  0.3983
29772W        W44903   2.634  12.409   2.764  0.0090  0.1596 -0.1959
29773W        W44904  16.077   6.618  15.670 -0.0429 -0.0638  0.1600
29774W        W44905   0.778  15.881  15.837 -0.0890 -0.0593 -0.1044
29775W        W44906   8.168   1.700  14.431 -0.1041  0.0122  0.0800
29776W        W44907  14.877  12.569   2.754  0.1283 -0.1099 -0.1169
29777W        W44908   4.068   3.859   0.251 -0.0089 -0.1147 -0.2901
29778W        W44909   7.810   8.472   1.370 -0.1909  0.0956  0.1137
29779W        W44910   7.930   8.511   0.461 -0.1942  0.2826 -0.2911
29780W        W44911  18.107  16.851   3.630 -0.0345 -0.0008  0.2406
29781W        W44912  12.899   2.948  12.472 -0.2851  0.0215 -0.2298
29782W        W44913   1.618   0.744   4.133 -0.0632 -0.2544 -0.0105
29783W        W44914   2.238  12.591  13.114  0.0343  0.1915 -0.0157
29784W        W44915   3.124  11.510  14.394 -0.0887  0.0806 -0.0704
29785W        W44916  15.849   4.183  13.223 -0.2014 -0.0973  0.0385
29786W        W44917  12.398  15.776  12.651  0.0827 -0.1245  0.2674
29787W        W44918   5.983   8.360  15.175 -0.0223  0.0466  0.2225
29788W        W44919   4.577   6.111   0.794  0.1486 -0.0076  0.0208
29789W        W44920   2.294   5.869  13.910  0.0393 -0.1050 -0.2207
29790W        W44921   7.785   3.143  14.239  0.0108  0.0330  0.1328
29791W        W44922   5.116  10.653   2.404 -0.0438 -0.1149 -0.1978
29792W        W44923  11.027  15.929   5.362 -0.0814  0.0502 -0.1342
29793W        W44924  10.263   0.656   0.005 -0.0233 -0.3190 -0.4403
29794W        W44925   4.372   6.543  15.698 -0.1733  0.4175  0.2135
29795W        W44926   2.423   5.482   3.494 -0.0082  0.2036 -0.2801
29796W        W44927   3.394   0.086   1.252 -0.2068  0.0261  0.1308
29797W        W44928  16.847   5.240   3.530  0.1338 -0.2175 -0.1987
29798W        W44929   9.260   6.462  16.014  0.1480  0.1735 -0.0690
29799W        W44930   5.197  16.502  14.054  0.1148  0.1144 -0.0375
29800W        W44931   5.760   1.487  15.930 -0.0099 -0.2017  0.0883
29801W        W44932  14.839  17.294   2.732 -0.3629 -0.2665 -0.2761
29802W        W44933   5.717   6.624   4.376 -0.0510  0.2100 -0.1707
29803W        W44934  10.853  12.187   2.036 -0.2234 -0.1080 -0.1332
29804W        W44935  11.922  11.138   0.844  0.2068 -0.3614 -0.0514
29805W        W44936   0.163   7.494   0.172 -0.0164  0.1600 -0.0921
29806W        W44937  14.388   9.702  11.582 -0.0400 -0.1433 -0.1643
29807W        W44938  15.250   0.705   4.121 -0.4105  0.1731  0.1433
29808W        W44939   8.941   8.494   4.088  0.1569  0.0626  0.0292
29809W        W44940  12.910  15.074   4.970 -0.0211  0.1558 -0.1063
29810W        W44941   5.004  14.131   1.168  0.0155  0.0210  0.1522
29811W        W44942   5.475   8.043   1.057 -0.1821  0.1810  0.0591
29812W        W44943  11.320   2.030   5.119  0.2670 -0.1206 -0.2017
29813W        W44944   4.625  13.306   4.422 -0.0549 -0.2074 -0.0758
29814W        W44945  14.401  13.256   1.778 -0.0363 -0.1243 -0.2201
29815W        W44946   9.500  10.476  14.802 -0.0102 -0.0165 -0.1581
29816W        W44947   7.902  12.219  15.898  0.0941 -0.1348  0.2361
29817W        W44948  15.614  15.581  11.698 -0.0918 -0.0851  0.3059
29818W        W44949   0.930  15.068  15.678  0.3103  0.0325  0.1198
29819W        W44950   7.277   6.343   2.316 -0.0663 -0.1958 -0.0955
29820W        W44951   4.146   4.487   1.800 -0.1499 -0.4078 -0.0500
29821W        W44952   7.880   9.632   5.280  0.0377  0.0530  0.0858
29822W        W44953  15.588  17.203   4.858 -0.0191  0.2963  0.1025
29823W        W44954   2.469   3.276  11.263  0.0110 -0.0776  0.0750
29824W        W44955  14.343   1.615  16.353  0.2137  0.0682 -0.2150
29825W        W44956   8.839   4.747   1.745 -0.0362  0.1156  0.2530
29826W        W44957  11.761   3.716  11.516  0.2210 -0.1520 -0.1223
29827W        W44958  12.860   5.546   3.214 -0.1726  0.2800  0.2349
29828W        W44959   2.633   0.491   4.407  0.1537 -0.2763 -0.0067
29829W        W44960   8.607  14.301   3.042  0.0030 -0.0560 -0.2151
29830W        W44961  12.531   4.648   1.012  0.4028  0.2092 -0.3474
29831W        W44962   6.563  15.716  12.113  0.1495  0.3130  0.0639
29832W        W44963   0.601  15.745   6.169 -0.0165 -0.2865  0.1026
29833W        W44964  17.505   1.378   1.502  0.0381 -0.1228 -0.3327
29834W        W44965   0.365  12.664  15.319  0.0042 -0.0624 -0.1955
29835W        W44966   4.958   4.769  11.580 -0.1851  0.0612  0.3218
29836W        W44967   8.878  10.870   0.238 -0.1971 -0.0555 -0.1566
29837W        W44968   5.387  11.090  14.414 -0.0558 -0.1823  0.0561
29838W        W44969  17.823   7.764   0.303  0.0473 -0.1261  0.0604
29839W        W44970   0.584   0.429   0.844  0.3324 -0.0770  0.1061
29840W        W44971   2.287   2.038  12.108 -0.0035 -0.0703 -0.1351
29841W        W44972  12.044   8.203  14.914 -0.0292  0.1165  0.0459
29842W        W44973  10.231  14.024  15.978 -0.1383 -0.1371  0.2072
29843W        W44974   8.009   8.190   3.904  0.4308  0.1868  0.0940
29844W        W44975   9.293   3.659   3.310 -0.1210 -0.2247 -0.2357
29845W        W44976   3.149   1.899  12.873 -0.1907  0.1316 -0.1001
29846W        W44977   3.414  14.073  12.506 -0.3145  0.1007  0.0093
29847W        W44978  14.623  13.116  10.223  0.0206 -0.1987  0.0211
29848W        W44979   0.227  17.445  11.586 -0.1495  0.0592  0.1904
29849W        W44980   4.178  14.637   4.244 -0.1614 -0.0412  0.2136
29850W        W44981  15.900   1.639  11.423  0.2116  0.2545 -0.1279
29851W        W44982  17.763  11.348   5.002  0.3106 -0.0075  0.0793
29852W        W44983   5.278  11.475  11.945  0.0068 -0.1650 -0.1711
29853W        W44984   7.603  10.616  15.102  0.0691 -0.3228 -0.1494
29854W        W44985  12.111   6.680   0.567 -0.3184 -0.5035 -0.1927
29855W        W44986   6.510  15.498  15.511  0.3429  0.1522 -0.2526
29856W        W44987   6.519  15.295   1.172  0.0429 -0.3845  0.1062
29857W        W44988   8.666  15.015   4.616  0.1643  0.0730  0.0047
29858W        W44989  13.728   0.859  11.927 -0.2639 -0.5037  0.0422
29859W        W44990   4.787   7.451  10.680  0.1336 -0.0036  0.1478
29860W        W44991   2.148   3.137   4.172  0.1026 -0.0168  0.0140
29861W        W44992  12.009  17.366  13.593  0.1195 -0.0236 -0.0128
29862W        W44993  16.010  13.493  13.766  0.1267  0.1708  0.2472
29863W        W44994   2.976   8.981  12.903  0.0577  0.0015 -0.0148
29864W        W44995   6.386   1.789   1.679 -0.0491 -0.3137 -0.1774
29865W        W44996   3.572   2.031  12.202  0.0345  0.2054  0.4922
29866W        W44997   4.476  17.267  16.443  0.1791 -0.0737  0.0160
29867W        W44998  10.956  15.421  13.815 -0.1317 -0.2821 -0.1370
29868W        W44999  17.666   7.401   3.331 -0.2292 -0.0198  0.2221
29869W        W45000  10.171  13.624  14.144 -0.0632  0.1068 -0.3475
29870W        W45001  10.310   1.960   0.183 -0.1055 -0.0441  0.1033
29871W        W45002   7.547  14.114   4.110  0.0939 -0.1788 -0.1980
29872W        W45003   0.006  16.396  13.292  0.0729 -0.0847  0.0732
29873W        W45004   4.148   0.093  14.070 -0.1853 -0.3640  0.1017
29874W        W45005   9.108  13.311   1.082  0.0195  0.1299 -0.0381
29875W        W45006  12.210   7.358  15.187 -0.0848  0.3215 -0.0315
29876W        W45007   4.811   2.813  14.198  0.0256  0.1995 -0.1461
29877W        W45008   3.124  11.293  12.544 -0.3262 -0.0574  0.1771
29878W        W45009   5.816  12.661  15.326  0.1862  0.1279  0.2771
29879W        W45010  14.432   4.996   3.059 -0.1415  0.0669  0.0558
29880W        W45011   0.917   6.246  16.255  0.1840 -0.0305  0.0609
29881W        W45012  14.895   0.435  13.892 -0.2955  0.0081 -0.2088
29882W        W45013   7.327   1.044  11.848 -0.1705  0.0528  0.2953
29883W        W45014   6.090   0.005   2.751  0.0052 -0.1317  0.0441
29884W        W45015   0.953  16.826  11.680  0.1709 -0.2324 -0.0481
29885W        W45016   1.080   7.156   1.231  0.1130 -0.1753 -0.0431
29886W        W45017   4.023   2.617   4.958 -0.1141 -0.0097  0.1013
29887W        W45018   8.226  17.960  15.903  0.1042  0.0870 -0.1407
29888W        W45019   2.462  12.166   0.733  0.0776  0.0815 -0.2399
29889W        W45020  15.590  10.639  14.757  0.0401  0.1522  0.1000
29890W        W45021   9.327   2.196  14.605  0.0699 -0.2712 -0.3377
29891W        W45022  13.512  17.277   3.584  0.1623  0.0341 -0.0854
29892W        W45023   8.788   0.916   2.369  0.1490  0.1326 -0.2434
29893W        W45024   5.398   9.422   5.003  0.1190  0.2358 -0.0111
29894W        W45025  17.511   2.670  16.397  0.1478  0.0001 -0.0610
29895W        W45026  17.980  10.116   2.419 -0.0830 -0.2596 -0.2745
29896W        W45027   7.567  13.192  14.028 -0.4672  0.0987 -0.1364
29897W        W45028  14.808   2.194  12.042  0.2358 -0.3194  0.2179
29898W        W45029  13.962   3.706   4.529  0.0414  0.3923  0.1968
29899W        W45030  15.362  11.046  13.727 -0.1850 -0.1186 -0.0652
29900W        W45031  15.833  16.367  15.563  0.1299 -0.1249  0.2999
29901W        W45032   4.418  15.911   5.395  0.0649  0.0027  0.0541
29902W        W45033   7.084  14.404  11.633 -0.0158 -0.1156 -0.0175
29903W        W45034   0.422   9.894  13.935 -0.1812 -0.2401 -0.2097
29904W        W45035   4.873  12.531   4.085  0.2085 -0.0995 -0.0558
29905W        W45036   5.166   5.854   1.597  0.2421 -0.0940 -0.0631
29906W        W45037   7.619   7.211   1.748  0.2121 -0.1337 -0.0145
29907W        W45038   1.265   6.728  13.161 -0.0710  0.0094 -0.0436
29908W        W45039   1.982   1.210   0.756 -0.1048  0.1204  0.2592
29909W        W45040   9.142  13.419  15.136 -0.1283  0.1406 -0.2586
29910W        W45041  10.078  10.389   2.589  0.1870 -0.0067 -0.2071
29911W        W45042  15.305   4.522   5.115  0.0645  0.4772  0.0516
29912W        W45043   9.385   5.841  11.692  0.2145 -0.2193  0.1723
29913W        W45044  15.301  11.912   3.617 -0.1043 -0.0694  0.1275
29914W        W45045   5.435  13.031  16.006 -0.0007 -0.2928 -0.2267
29915W        W45046   4.790  14.574   1.065 -0.1088 -0.3438 -0.3274
29916W        W45047   0.227   0.173  14.527  0.1633  0.1015 -0.1605
29917W        W45048   4.682   3.079   0.278  0.0323 -0.0360  0.0104
29918W        W45049  15.380   5.422  14.808  0.0588 -0.2426 -0.0358
29919W        W45050   8.117   6.304  13.676  0.0376  0.0248  0.0505
29920W        W45051  10.434  10.441  13.753  0.2205 -0.1446  0.0800
29921W        W45052  16.881  16.545   5.126  0.1806 -0.1079 -0.0814
29922W        W45053   1.357  12.616   2.670 -0.1472 -0.0413  0.0693
29923W        W45054   8.458  14.136   4.576  0.2248  0.3455 -0.2131
29924W        W45055   6.004  14.762   4.779  0.2908  0.0642 -0.0173
29925W        W45056  10.531   3.549   4.747 -0.0815  0.0817  0.1086
29926W        W45057   3.236   3.976   1.775  0.0633 -0.1135  0.2127
29927W        W45058   7.813   4.038   1.404 -0.1971 -0.0962  0.1112
29928W        W45059   0.377   9.915   1.133 -0.2756 -0.3473 -0.2745
29929W        W45060   0.711  11.834  16.334  0.1433 -0.2209 -0.1241
29930W        W45061   1.908   5.592   3.705 -0.0712  0.3665 -0.1368
29931W        W45062  16.235   0.612   0.485  0.0616  0.2363 -0.0034
29932W        W45063  12.998   0.927  11.213 -0.1846  0.0762 -0.1115
29933W        W45064   6.979  15.093   5.321  0.0372  0.0202 -0.0984
29934W        W45065  10.474  10.367  16.272  0.1995  0.0320 -0.0848
29935W        W45066  15.218  12.874   1.444  0.1566  0.1153  0.0438
29936W        W45067  14.802   6.854   5.635  0.0953 -0.1677  0.2172
29937W        W45068  12.045   1.468   2.514 -0.4500  0.0665  0.0937
29938W        W45069   7.347  15.239  11.485  0.1490 -0.0069 -0.0644
29939W        W45070  15.859   9.952   1.589  0.1259  0.0309 -0.1451
29940W        W45071  17.667  10.093   3.377 -0.0724  0.4211  0.1915
29941W        W45072   9.878   2.905  15.692 -0.1994 -0.0662 -0.0216
29942W        W45073   1.200   3.774   2.456  0.1477 -0.3491  0.1661
29943W        W45074  14.870   5.354   3.337  0.0511  0.0013  0.0097
29944W        W45075  17.253   4.396   0.063  0.1971 -0.0087 -0.0884
29945W        W45076   7.719   7.695  16.097  0.1332  0.1268  0.1483
29946W        W45077   8.717   2.195  15.876  0.1257  0.3678  0.1819
29947W        W45078   0.125   9.695   3.165 -0.0638  0.2108 -0.0896
29948W        W45079  10.124  18.049   0.010  0.2400  0.2626  0.0689
29949W        W45080  17.616   7.821  11.928 -0.1130  0.1655  0.2746
29950W        W45081  17.441   0.090  14.408  0.0619  0.1097  0.1782
29951W        W45082  15.016   7.779   5.679  0.0901  0.0004 -0.1704
29952W        W45083   6.995   7.471  15.554 -0.4136  0.0870 -0.1105
29953W        W45084   9.906  17.375   4.369  0.2229 -0.0634  0.0733
29954W        W45085   5.079   0.358   4.198  0.0499  0.0741  0.0123
29955W        W45086   7.895   5.734  14.858  0.1379 -0.2351  0.0404
29956W        W45087   2.678   6.661  14.092 -0.0519  0.0808  0.0804
29957W        W45088  11.354  15.992   0.078 -0.0265 -0.0230 -0.0765
29958W        W45089  15.522  14.506   0.909 -0.1205  0.0315  0.0475
29959W        W45090  17.224   6.621   3.967 -0.2496 -0.4272  0.4329
29960W        W45091  17.437   3.185  11.056  0.0475  0.0914  0.0043
29961W        W45092  11.763  13.336   0.055  0.2440 -0.2422 -0.1123
29962W        W45093   3.546   2.646  11.365 -0.0511 -0.4956  0.1832
29963W        W45094  16.932   2.187  13.865 -0.1408  0.1706 -0.0125
29964W        W45095  10.884   2.992   0.987  0.1286 -0.1830 -0.0887
29965W        W45096   8.463  11.649   2.572 -0.3049 -0.2310  0.2118
29966W        W45097   3.463   5.370   0.017 -0.0745 -0.1910 -0.2630
29967W        W45098   4.230   0.544   5.446  0.1270 -0.2123  0.0661
29968W        W45099   0.655  15.616   3.931  0.1520 -0.0967 -0.0865
29969W        W45100  14.661   9.865  16.392 -0.2206  0.2275  0.2746
29970W        W45101  10.323   3.322  15.636 -0.0138  0.2053  0.3265
29971W        W45102   4.832  11.871   2.628  0.0796 -0.0085  0.3118
29972W        W45103  14.031   7.179   2.623  0.0147  0.3368 -0.2590
29973W        W45104  16.980  10.805  13.290 -0.4395  0.2089 -0.0957
29974W        W45105   1.751   2.785   6.080 -0.1336 -0.2140  0.1494
29975W        W45106   8.057   7.550  10.350 -0.2468 -0.2641 -0.1307
29976W        W45107   1.342  12.669   1.140 -0.0239  0.3464 -0.1042
29977W        W45108  15.342  10.469   6.106 -0.0821  0.1821  0.1714
29978W        W45109   3.699   6.127   0.132  0.0100  0.1377  0.1562
29979W        W45110   7.427  15.036   5.532  0.2100  0.0592 -0.1566
29980W        W45111   4.653   4.424   4.950 -0.0868  0.1249  0.0754
29981W        W45112   4.778  12.210   5.341  0.1145 -0.1513 -0.0495
29982W        W45113   4.168   3.776   3.868 -0.2684  0.2673 -0.2105
29983W        W45114  14.496  11.084   1.086  0.0317 -0.2498 -0.2267
29984W        W45115   3.675   2.201   3.537 -0.1575 -0.1215  0.0632
29985W        W45116  11.634  15.245   1.941  0.1495  0.0479  0.1935
29986W        W45117  15.244  15.333   0.546  0.1998 -0.0916 -0.0883
29987W        W45118   3.315   1.307   4.617 -0.1572  0.0160  0.1936
29988W        W45119  17.338  10.020  15.785  0.1299 -0.2679  0.1124
29989W        W45120  15.352  16.983  16.206 -0.3315 -0.0506  0.3153
29990W        W45121  11.625   7.251   1.875 -0.1832  0.0039  0.3020
29991W        W45122   4.352   1.090   5.083 -0.2282  0.1588  0.1141
29992W        W45123   0.112  11.230  15.426  0.2821  0.0219  0.2145
29993W        W45124   8.252   8.905  13.379 -0.1138  0.0819  0.0271
29994W        W45125  16.311   8.342  16.277 -0.2990  0.2098 -0.0817
29995W        W45126   8.659  15.671   5.774 -0.2153  0.3633 -0.0488
29996W        W45127  13.349  11.379  15.532  0.1176  0.1306 -0.0792
29997W        W45128   5.284   9.896   1.073  0.0927 -0.1612 -0.2156
29998W        W45129   3.075  12.494   2.448 -0.0430  0.1501 -0.0536
29999W        W45130  15.683   1.077  11.281 -0.1542 -0.0921  0.4104
30000W        W45131   8.765   0.992   2.853 -0.0409  0.1695  0.0010
30001W        W45132  12.528   0.777  10.900  0.0384 -0.1855  0.2087
30002W        W45133  14.696   6.734   1.559 -0.2853  0.3082 -0.1356
30003W        W45134   7.378   5.376   4.402 -0.1035 -0.0956  0.2584
30004W        W45135   8.845  11.938   5.181 -0.1257 -0.0626  0.3613
30005W        W45136  12.616   7.756   0.325 -0.0126  0.1873 -0.0797
30006W        W45137   6.395   3.995  14.746  0.0417  0.0322  0.1001
30007W        W45138  14.957   3.372  14.507 -0.2271  0.2170 -0.2716
30008W        W45139  14.774   2.509   0.312 -0.0049  0.2740 -0.0370
30009W        W45140   5.923  17.943  11.384  0.1718  0.0860 -0.0127
30010W        W45141   0.823  14.022  11.463  0.1228  0.1227 -0.0955
30011W        W45142   4.268   7.533  10.755  0.2955 -0.2598 -0.1978
30012W        W45143   1.211   0.938   4.968 -0.2098 -0.1848  0.0107
30013W        W45144   6.662   5.089   3.982  0.1334 -0.1146  0.0419
30014W        W45145  10.390   2.521  13.752  0.0985  0.2968 -0.0259
30015W        W45146   8.652   0.516   0.282 -0.1208 -0.2391 -0.0230
30016W        W45147   2.176   6.913   3.769  0.1792  0.0046  0.1041
30017W        W45148   0.187   5.451   1.635 -0.2160 -0.1879  0.0411
30018W        W45149   3.103  12.951   5.039  0.1306  0.2127 -0.1268
30019W        W45150  11.907  14.250  15.619  0.1078  0.3298 -0.0795
30020W        W45151  15.243  17.564  15.568  0.0630  0.3907  0.3113
30021W        W45152   3.503  12.268  11.732 -0.4224  0.0292  0.1906
30022W        W45153  13.320  10.312  16.448 -0.1382  0.0847  0.1244
30023W        W45154  16.832   5.048   1.390  0.0702 -0.1806  0.0024
30024W        W45155   8.876  13.657   0.689  0.0995  0.1103  0.0096
30025W        W45156  16.255  17.765  11.830 -0.2284 -0.4934  0.0229
30026W        W45157  17.484   1.199  11.418  0.2498 -0.1602 -0.3161
30027W        W45158   9.681  13.369  13.357  0.0981  0.0541  0.3331
30028W        W45159   4.426  15.958  16.307 -0.1033 -0.0922  0.2445
30029W        W45160  11.317  11.520   5.955  0.0159  0.4034 -0.1514
30030W        W45161   9.796   5.726  16.172 -0.2775  0.0884 -0.0222
30031W        W45162   8.721   6.442  11.425  0.3558  0.1054  0.0468
30032W        W45163   0.386   0.277   4.047 -0.0049 -0.3517  0.4003
30033W        W45164  15.644  14.793  11.038  0.0527 -0.0483  0.1228
30034W        W45165   8.333  12.553   0.816 -0.0023 -0.0337  0.1347
30035W        W45166   7.923   0.971  11.603  0.4275  0.1125  0.1925
30036W        W45167   0.140  12.578   5.232 -0.2017 -0.0140 -0.2393
30037W        W45168   2.390   0.462  15.557  0.1885  0.1762  0.2501
30038W        W45169  11.816   5.639  15.241 -0.0857 -0.1897 -0.1518
30039W        W45170  10.743  12.527   5.329  0.0294  0.1521 -0.1105
30040W        W45171   3.363  17.297   0.125 -0.0970 -0.0878 -0.1661
30041W        W45172  15.139   3.418  15.936 -0.0022 -0.3199  0.2841
30042W        W45173  12.647   0.794  14.872 -0.1381 -0.2397 -0.0119
30043W        W45174   7.653   9.035  15.806  0.1468 -0.1646 -0.1853
30044W        W45175   0.668   8.651   4.716  0.0752 -0.0799  0.4843
30045W        W45176  12.399  15.566  14.473 -0.0684  0.1651 -0.0126
30046W        W45177   6.597  16.127   2.453  0.0647 -0.0017 -0.1525
30047W        W45178  11.420   2.834   3.895 -0.0012  0.1616  0.0383
30048W        W45179   8.767  15.474   4.178  0.0426  0.1127  0.2049
30049W        W45180  16.588  15.951   3.814  0.0406 -0.1458  0.1601
30050W        W45181   7.962  12.379  15.172 -0.1379 -0.2559 -0.1405
30051W        W45182  16.260  12.791  13.848  0.2519 -0.2203 -0.1399
30052W        W45183   5.836   2.840   3.920  0.1167 -0.0604  0.0534
30053W        W45184   0.270  13.217   2.961  0.0851  0.1536  0.0585
30054W        W45185  17.686   3.032  10.692 -0.0773  0.1024 -0.0261
30055W        W45186   3.396   8.928  14.474  0.0241 -0.2558  0.2745
30056W        W45187  13.337   5.900  16.399  0.2344 -0.1085  0.0575
30057W        W45188   8.116  11.835   3.335  0.0487 -0.1828 -0.2565
30058W        W45189   6.551  16.946   5.895  0.2264  0.4908 -0.1459
30059W        W45190  15.375   3.417   1.156 -0.1556  0.1395  0.0546
30060W        W45191   0.198   7.283   4.481  0.1279  0.3068 -0.0757
30061W        W45192  14.840   9.874   4.131 -0.0810  0.0471 -0.1268
30062W        W45193  14.641   8.747  16.331 -0.1872  0.0223 -0.0139
30063W        W45194  16.756   1.594   5.438  0.2091 -0.0929  0.0957
30064W        W45195   1.893   4.395   3.833 -0.0118 -0.1933  0.3338
30065W        W45196  14.540   6.072  16.290 -0.1080  0.0788  0.1433
30066W        W45197   9.123   8.484  16.227 -0.0283  0.2715  0.3099
30067W        W45198   4.491  16.132   3.599 -0.1630 -0.1407  0.0459
30068W        W45199  13.033   4.661  14.252 -0.2422 -0.0799  0.0115
30069W        W45200  17.898   0.622  11.733 -0.1578 -0.1811 -0.0104
30070W        W45201   2.374   2.960  13.174 -0.1294  0.0211  0.0429
30071W        W45202   7.050  10.744  11.889 -0.0052 -0.1796  0.3510
30072W        W45203  14.046  12.129  13.497 -0.0629  0.2194  0.2188
30073W        W45204   0.885   7.589   0.383 -0.0061 -0.0251 -0.1748
30074W        W45205  15.811  12.456  15.761  0.2488 -0.2286 -0.2374
30075W        W45206   8.091  12.630   4.121  0.3713 -0.0915 -0.1255
30076W        W45207  14.560  10.144  15.250 -0.1975  0.0488  0.2360
30077W        W45208   9.994  12.878   4.990  0.3410 -0.1528  0.0349
30078W        W45209  11.923   5.720   5.260  0.1009  0.1050  0.0804
30079W        W45210  17.458   7.166  13.619  0.1654  0.2147 -0.0296
30080W        W45211   0.519   9.386  12.737 -0.0013 -0.0005 -0.2672
30081W        W45212   4.261   5.659   5.596  0.0620 -0.3319 -0.2126
30082W        W45213  15.483   8.897   0.962  0.1960  0.0593 -0.1241
30083W        W45214  11.078   1.735  12.545  0.1955 -0.1857 -0.0009
30084W        W45215  15.736   4.311  15.537 -0.0989  0.0081 -0.1945
30085W        W45216   5.234  17.140  11.376  0.2455 -0.1116  0.3695
30086W        W45217   2.625  16.620  15.858 -0.1093  0.4003 -0.3827
30087W        W45218   7.202  13.044   5.229  0.3414  0.0082  0.1120
30088W        W45219   2.236  15.102   5.326  0.0635  0.0479  0.0214
30089W        W45220   8.466  13.585  10.943 -0.1725 -0.0001 -0.1433
30090W        W45221  10.834   3.172   4.947 -0.0070 -0.1379 -0.1702
30091W        W45222   7.037  12.812  13.675  0.0767  0.1490  0.0821
30092W        W45223   6.593   8.766   3.367 -0.1974  0.1875 -0.1356
30093W        W45224  13.799   3.136  15.152  0.0497  0.4233 -0.3420
30094W        W45225  15.146  13.357   2.974  0.0183 -0.1158 -0.2151
30095W        W45226   3.807  10.047  10.787  0.0073  0.1038 -0.1441
30096W        W45227  11.822  15.457   1.482  0.1973  0.0607 -0.0287
30097W        W45228   3.944  11.050  13.073  0.1335  0.0064  0.4574
30098W        W45229   4.817  11.602  10.179 -0.2050  0.2303 -0.0229
30099W        W45230  15.164   8.597   1.131 -0.0177  0.2848 -0.3543
30100W        W45231  10.820  11.062  13.725 -0.0838  0.0421  0.0306
30101W        W45232   2.452   7.591  12.037 -0.0964 -0.0076  0.1287
30102W        W45233   6.353   6.479  16.107 -0.0585  0.1447  0.0086
30103W        W45234   8.209   7.589   2.226 -0.0825 -0.0276 -0.2911
30104W        W45235   1.821  14.261  15.535  0.0254 -0.0359 -0.3109
30105W        W45236   4.375  17.490  13.430  0.1051 -0.1245 -0.0716
30106W        W45237  14.613   7.450  16.166 -0.1226  0.1883 -0.0976
30107W        W45238   0.529   9.078   3.919 -0.2198 -0.0534 -0.1847
30108W        W45239   9.773  10.302  15.241  0.4210 -0.2017 -0.1206
30109W        W45240   1.878  17.167  14.659 -0.3914  0.2316  0.0398
30110W        W45241   0.938  13.797   4.961 -0.1225  0.0200  0.1555
30111W        W45242   8.075   6.174  14.685 -0.2333 -0.0746 -0.0244
30112W        W45243  10.353  18.013   1.992  0.0983 -0.3413  0.1107
30113W        W45244  16.160  11.787   5.014  0.1150 -0.1001  0.0091
30114W        W45245  15.803  13.426  13.307  0.4461 -0.2588 -0.0188
30115W        W45246   0.062  11.885  13.021  0.0469  0.0025 -0.0997
30116W        W45247  16.867  17.284   2.052  0.1712 -0.0176  0.3023
30117W        W45248   1.118  15.737   6.067  0.3347  0.0789 -0.1331
30118W        W45249   9.060   9.553  11.869  0.2593 -0.0618 -0.0058
30119W        W45250  10.473  12.141   5.585 -0.2833  0.0851  0.3734
30120W        W45251   2.368  15.209   1.609  0.0717 -0.0038  0.2035
30121W        W45252  11.282   5.729  16.422  0.1214 -0.0382 -0.1579
30122W        W45253  13.848  10.149  12.484  0.0176  0.0761 -0.3873
30123W        W45254   5.993   3.965  13.803  0.1537 -0.1777  0.5717
30124W        W45255   0.081   2.146   1.189 -0.2515 -0.0286 -0.0177
30125W        W45256   2.941  15.525  11.898  0.1106 -0.0405 -0.0989
30126W        W45257   3.095  13.610   1.273 -0.1680 -0.1388 -0.0368
30127W        W45258   7.557   6.801  13.116  0.0235  0.0998 -0.2192
30128W        W45259   6.467   0.920  11.388  0.2422  0.1455  0.1130
30129W        W45260   2.262  11.380  14.098  0.1056 -0.0352  0.2032
30130W        W45261   4.440   3.131  14.583  0.1675  0.1448 -0.0399
30131W        W45262   4.689  13.402  12.919 -0.4752 -0.0232  0.1338
30132W        W45263  14.064  12.331   5.156  0.0437  0.0937 -0.1630
30133W        W45264   7.727  11.742   3.982  0.0390  0.0246 -0.0411
30134W        W45265   1.948  13.620   2.039 -0.3120 -0.1581  0.0778
30135W        W45266   2.192   2.740  11.307  0.0985 -0.0738 -0.0112
30136W        W45267   7.286   9.737  14.713 -0.0166  0.0501  0.1125
30137W        W45268  18.092   7.060   2.414  0.1559 -0.2409 -0.0519
30138W        W45269   5.966   0.320   0.468 -0.0271  0.2931  0.2924
30139W        W45270  14.113   3.126   3.669 -0.2664 -0.3278 -0.2490
30140W        W45271   3.466  10.019  12.802 -0.3142 -0.0974  0.0797
30141W        W45272   7.355   7.481  10.962  0.1229  0.1273  0.1377
30142W        W45273   4.653  14.352  10.619  0.2707  0.2190 -0.1443
30143W        W45274   8.214  16.754   4.154  0.0372 -0.0009 -0.1070
30144W        W45275   6.816   5.582  11.755  0.0549 -0.1757  0.0039
30145W        W45276   3.339   3.191   1.110 -0.1047  0.1452  0.0252
30146W        W45277   5.985  17.788   4.706  0.3821 -0.0869 -0.0354
30147W        W45278  16.620  14.721  14.602  0.2464 -0.1223  0.1035
30148W        W45279  15.470   4.670  13.003  0.1290  0.0358  0.0504
30149W        W45280   2.651  15.865  12.346 -0.0516 -0.1369  0.1533
30150W        W45281  13.534  14.464  14.944  0.1261 -0.0308 -0.2276
30151W        W45282  10.370   3.522  11.084  0.0704 -0.2052 -0.0381
30152W        W45283  13.187   2.238  14.367 -0.0256  0.2745  0.1403
30153W        W45284   8.945  10.889   4.574  0.0994  0.1029  0.2832
30154W        W45285   2.627  10.012  12.811 -0.2080  0.0338 -0.1012
30155W        W45286  17.162  17.503   4.085  0.0925  0.1018 -0.1994
30156W        W45287   9.473   3.128   2.615  0.1624 -0.1873 -0.0687
30157W        W45288   9.815   8.630  14.599 -0.2115 -0.1789  0.1222
30158W        W45289   0.823   6.455  13.083 -0.1988 -0.0379 -0.2676
30159W        W45290  13.719  14.762   4.874  0.2875  0.1814 -0.1174
30160W        W45291   3.042   5.854   2.273  0.0958  0.0302  0.0290
30161W        W45292   8.096   8.374   4.763  0.0076  0.1212 -0.0137
30162W        W45293   9.996   1.800  15.751  0.0643 -0.1239 -0.3414
30163W        W45294   6.766   6.641  11.973 -0.0972 -0.2607 -0.1214
30164W        W45295   9.916   6.756  16.457 -0.1128 -0.0567 -0.0265
30165W        W45296  15.367   2.446  13.569 -0.2270 -0.0217  0.1679
30166W        W45297   0.351   3.706   3.855  0.2467  0.2108  0.3077
30167W        W45298  11.815   5.767  14.540  0.2924  0.0546  0.0212
30168W        W45299   9.874   4.504   4.142  0.1455  0.1422  0.3433
30169W        W45300  13.223   1.666  14.145 -0.0816  0.1831  0.0110
30170W        W45301  14.094   8.384   4.996 -0.1591 -0.0266  0.0948
30171W        W45302  13.076   4.053  11.868 -0.1311 -0.0767  0.2122
30172W        W45303   4.304  13.179   3.940 -0.0278 -0.1625  0.1102
30173W        W45304  10.813  17.235  13.363  0.4334  0.1196  0.1004
30174W        W45305   6.772   2.111   1.714  0.1869  0.0815  0.0675
30175W        W45306  17.544  15.862  13.291 -0.0578  0.1005 -0.2783
30176W        W45307   2.391   5.790   0.467 -0.0784 -0.3135  0.0161
30177W        W45308  10.214   5.143  10.338 -0.0009 -0.1583  0.1880
30178W        W45309  16.972   5.505   1.152 -0.1119 -0.1502 -0.3998
30179W        W45310   1.926  11.651  14.852  0.0541  0.1569  0.1679
30180W        W45311   5.855  12.182  15.460 -0.0017  0.0428 -0.0733
30181W        W45312   7.452   4.486  11.548  0.0121  0.1665  0.0697
30182W        W45313   8.351  12.339  12.413 -0.0456  0.2519 -0.0671
30183W        W45314  10.691   8.467  13.042 -0.0494  0.2755  0.0443
30184W        W45315  16.327   4.488   5.887  0.0971  0.1073 -0.0796
30185W        W45316  15.039  14.562  12.695 -0.1931 -0.0982  0.0504
30186W        W45317   0.529   6.613   0.316 -0.1453 -0.0797 -0.2280
30187W        W45318   3.386  17.174  12.634 -0.0899 -0.4695  0.0943
30188W        W45319   2.935  16.895   5.726  0.1785  0.0743 -0.1873
30189W        W45320  13.707  15.122   2.794  0.0100 -0.1030  0.3089
30190W        W45321  15.991  18.088   3.408 -0.0098 -0.3139 -0.0395
30191W        W45322   1.135  10.458  14.143 -0.0822  0.0710 -0.0479
30192W        W45323   0.673   9.588  12.327  0.3752 -0.2944 -0.4002
30193W        W45324  10.965   6.517  15.969 -0.4700  0.4197  0.0540
30194W        W45325  14.789  17.096   4.213  0.0001 -0.0966 -0.0357
30195W        W45326  10.704   1.076   3.902 -0.0501 -0.1551  0.1295
30196W        W45327   7.270   1.781   3.779 -0.1591  0.1565 -0.0918
30197W        W45328  14.825  10.117   3.499  0.0361 -0.0842  0.1383
30198W        W45329   2.203   4.697   4.077  0.0764 -0.2985  0.1144
30199W        W45330   9.616  16.654  12.038  0.0811 -0.0633  0.2730
30200W        W45331  12.586  14.009  16.347  0.2291  0.2892 -0.2279
30201W        W45332   5.865  12.373   2.608 -0.1608 -0.1327 -0.1055
30202W        W45333   1.319   1.865  12.195 -0.1706  0.2246  0.0284
30203W        W45334  12.670   5.334  16.423  0.1951 -0.0705  0.1247
30204W        W45335   9.659   1.533  15.032 -0.1832 -0.1316  0.0452
30205W        W45336  13.158   3.305   5.678  0.0692  0.1855 -0.0198
30206W        W45337  14.154   0.678  14.313 -0.2279 -0.1070  0.2588
30207W        W45338  14.727   1.308   1.710 -0.1969  0.1922 -0.1680
30208W        W45339  11.441   5.752   0.466 -0.2752  0.0777  0.2727
30209W        W45340   7.634   3.086  13.450 -0.1528 -0.0725  0.1185
30210W        W45341   1.973   9.489   2.215 -0.1371  0.1431  0.1200
30211W        W45342  11.446   8.110  11.492 -0.1110 -0.0951 -0.1194
30212W        W45343   1.807  17.654   3.479 -0.4394  0.3297 -0.0707
30213W        W45344  17.252   4.811  14.023 -0.0455 -0.0632 -0.1661
30214W        W45345  10.870  14.403  14.262 -0.3263  0.0349  0.0615
30215W        W45346   3.674   7.591  13.526 -0.2457 -0.0527 -0.2262
30216W        W45347   1.478   8.511   4.137 -0.1531  0.2956  0.1482
30217W        W45348  15.026  16.894   3.495 -0.3845  0.0293 -0.0310
30218W        W45349  14.203   6.131   2.126  0.3457  0.3959 -0.0737
30219W        W45350   0.685  15.390  12.111  0.0562 -0.3404  0.0388
30220W        W45351  17.848  11.607   1.029 -0.0446  0.3207  0.0928
30221W        W45352   4.505   0.410   5.106 -0.1439  0.0944 -0.2987
30222W        W45353  10.561   5.782  14.891  0.1233  0.1673 -0.1467
30223W        W45354  16.728   1.145  14.063  0.0400 -0.1003  0.4078
30224W        W45355   8.123   8.587   1.769 -0.0235 -0.1687  0.0390
30225W        W45356  12.322  14.674  14.300 -0.2675 -0.1646  0.0629
30226W        W45357   4.164   7.643   3.218  0.2530 -0.0257  0.1755
30227W        W45358   8.357  13.078   3.202  0.0128  0.2176  0.0541
30228W        W45359   8.053   9.314   3.330  0.1347  0.1217  0.1631
30229W        W45360  13.499   8.496   0.579  0.2022  0.1521 -0.1302
30230W        W45361   4.820  10.253   2.095  0.0862  0.1094  0.1191
30231W        W45362   8.513  11.472   0.723  0.2651  0.1371 -0.0226
30232W        W45363  16.275   2.240   2.856 -0.3436  0.3534  0.0185
30233W        W45364   9.750   8.440  11.921  0.0724 -0.0997  0.2116
30234W        W45365   1.619   6.986   2.305 -0.1566 -0.2083 -0.0112
30235W        W45366   6.300   5.736   2.840  0.0616 -0.2490  0.0859
30236W        W45367   8.038  10.754   3.446 -0.1346  0.1153 -0.1474
30237W        W45368   7.988  13.952   5.829  0.0431 -0.1070 -0.0288
30238W        W45369   4.468   7.748   4.507 -0.0101  0.2382 -0.0717
30239W        W45370  15.651   3.146   1.729  0.0704  0.0983 -0.0457
30240W        W45371   7.117   4.935   0.401 -0.2303 -0.1119 -0.0421
30241W        W45372   3.147   2.899  16.329 -0.0988  0.2800  0.2489
30242W        W45373   1.468  18.019   5.920 -0.1358  0.0218  0.0775
30243W        W45374  11.961   8.323  11.486 -0.2876 -0.1819  0.3628
30244W        W45375  14.453   6.118   3.898 -0.0059  0.1467 -0.1217
30245W        W45376   9.086   8.744   2.379  0.1220 -0.0352  0.2722
30246W        W45377  11.740   3.035  13.404 -0.1171  0.2500 -0.0752
30247W        W45378  11.576   9.260  15.515  0.3377  0.0129  0.0069
30248W        W45379  12.519   5.500   3.560 -0.1366  0.3384  0.1005
30249W        W45380   6.578   3.338   0.944  0.1336 -0.1457 -0.0919
30250W        W45381  12.351  11.575   6.122  0.2410 -0.2949 -0.0092
30251W        W45382  14.100  14.890  15.180 -0.3686 -0.5960 -0.1175
30252W        W45383   4.898   3.167   6.079  0.3243 -0.0475 -0.2308
30253W        W45384   3.279   6.435   2.386  0.1164 -0.1857  0.1027
30254W        W45385   1.337   7.692  11.245  0.0340 -0.2096  0.2062
30255W        W45386  13.765   9.780  12.908  0.2538  0.3521  0.3414
30256W        W45387  12.922  14.223   5.584 -0.2300  0.2667  0.2304
30257W        W45388   4.097  16.422  15.862 -0.1064 -0.0147 -0.0868
30258W        W45389  10.711   5.795  11.802  0.2231 -0.0405 -0.0125
30259W        W45390   2.740  14.559   1.963  0.5298 -0.3297 -0.0811
30260W        W45391  10.612   1.193  15.007  0.2046 -0.1282 -0.2484
30261W        W45392  11.514   2.117  10.839  0.1429  0.0478  0.0511
30262W        W45393   8.743   0.707   3.298 -0.2442 -0.0716  0.1832
30263W        W45394   5.113  15.251  11.471  0.0748  0.2277  0.0413
30264W        W45395   4.540   6.646  12.104  0.0231  0.1249 -0.0192
30265W        W45396   0.861   7.341  15.227 -0.1488  0.1545 -0.0407
30266W        W45397  11.276   7.877   3.403 -0.2134 -0.0898 -0.1986
30267W        W45398  11.220   4.846  12.450 -0.1799  0.2076  0.1009
30268W        W45399  16.614  12.227   1.650 -0.0743  0.3522 -0.1108
30269W        W45400  16.494  11.006  15.517 -0.6663  0.0466  0.1309
30270W        W45401  13.558   2.922  15.545  0.0558 -0.4368 -0.0919
30271W        W45402   4.221   1.449  11.421  0.0071  0.1936 -0.0379
30272W        W45403  10.791   5.798  16.350 -0.0959  0.1421  0.0885
30273W        W45404   1.526  10.999  15.447 -0.1933 -0.2819 -0.1031
30274W        W45405   7.062   9.773  14.217 -0.2176  0.3916 -0.3531
30275W        W45406   4.465  15.435  14.226  0.0828 -0.0395 -0.3296
30276W        W45407  16.725   6.996  13.600 -0.2804 -0.1841  0.0825
30277W        W45408   0.149   6.888   4.101  0.1136  0.0626  0.0032
30278W        W45409  17.551  17.018  12.680 -0.2191  0.0085  0.2676
30279W        W45410  12.368   1.861  13.878  0.2354 -0.3788  0.1073
30280W        W45411  13.626   9.267  15.379 -0.1272 -0.1278  0.1924
30281W        W45412  11.226  10.146  11.381  0.0597  0.2630  0.0858
30282W        W45413   7.174  12.916   4.003  0.1847 -0.2675 -0.1089
30283W        W45414  16.479  13.530   5.766 -0.1533 -0.1836  0.0546
30284W        W45415   3.038   5.635   2.716  0.1046  0.0677 -0.1548
30285W        W45416  15.252   9.395   4.399 -0.1109 -0.0144  0.0362
30286W        W45417   9.458   5.313   1.424  0.0686 -0.2704 -0.0827
30287W        W45418  14.723   0.198   4.640 -0.2343  0.1434  0.0074
30288W        W45419  16.748   7.131  12.149 -0.2271 -0.1829  0.2641
30289W        W45420  16.243   5.543  14.280  0.1240 -0.0483  0.1595
30290W        W45421   8.581  11.205   3.807 -0.0061  0.0817  0.0724
30291W        W45422  14.999   5.771   0.579  0.4495  0.0138  0.0535
30292W        W45423  10.912   6.480   2.423 -0.0779 -0.2512 -0.1189
30293W        W45424  16.958  11.331   1.062  0.2175  0.0015 -0.0568
30294W        W45425  12.561   3.384   5.362 -0.1488  0.0786  0.0403
30295W        W45426  10.048  17.236   3.705  0.0615  0.2495 -0.3171
30296W        W45427   0.200  11.675   1.616 -0.2789  0.3694 -0.1215
30297W        W45428   9.793   0.241   0.273 -0.1091  0.1982 -0.0687
30298W        W45429  15.818   0.041  14.656  0.2573  0.2014 -0.3870
30299W        W45430   4.606  12.695   1.052  0.0781  0.1210 -0.3918
30300W        W45431  17.352  12.253  16.316  0.0731  0.4188  0.0003
30301W        W45432   5.823   1.882  15.344 -0.3369 -0.1351 -0.0493
30302W        W45433  17.479  17.900   3.303  0.2024  0.1018  0.1847
30303W        W45434  15.054   8.523   2.804  0.1029  0.0998 -0.1362
30304W        W45435  14.426   0.433  11.696 -0.1584 -0.1390 -0.0061
30305W        W45436  15.043   3.555   3.493 -0.3946  0.0066 -0.2163
30306W        W45437   4.910  17.639  12.081  0.0101  0.0222 -0.0083
30307W        W45438  11.574  11.962   0.734 -0.0528 -0.3089  0.0724
30308W        W45439   1.696   6.474  14.468 -0.0285 -0.1714 -0.0393
30309W        W45440  16.548  17.818   2.925  0.2197 -0.1887  0.4418
30310W        W45441  15.583   2.605   1.782 -0.2238 -0.0234 -0.3588
30311W        W45442   1.559   3.757  12.345  0.2654  0.0081  0.1882
30312W        W45443  14.582  11.387  13.255 -0.1172 -0.2939 -0.0164
30313W        W45444   6.381  13.607   0.728 -0.0286  0.1750 -0.0102
30314W        W45445  11.845  14.890  11.635 -0.1366  0.4929  0.0540
30315W        W45446   8.345   6.866   3.357  0.1572 -0.0046  0.0820
30316W        W45447   4.382   2.891   1.247 -0.1191 -0.0328  0.0656
30317W        W45448  16.066  11.703   4.330  0.2395 -0.0002  0.0979
30318W        W45449  12.237  12.196   5.288  0.1252  0.1397 -0.2499
30319W        W45450   2.633   5.915   1.334  0.2489 -0.0649 -0.0718
30320W        W45451   9.885  14.436  11.219 -0.0858  0.0757 -0.1581
30321W        W45452   1.000   5.373  11.716 -0.2238 -0.0221  0.0830
30322W        W45453  16.937  17.657   4.880  0.0624 -0.3255 -0.1289
30323W        W45454  10.152   4.607  12.221  0.0422 -0.1045  0.1673
30324W        W45455   8.030   9.524   0.216 -0.1980  0.0324 -0.1615
30325W        W45456   5.286   2.579   0.991 -0.1235  0.1571  0.0140
30326W        W45457   8.829  15.008  16.160  0.1688 -0.0677 -0.0963
30327W        W45458   6.542  13.055   0.724 -0.0828 -0.0743 -0.0694
30328W        W45459   8.860   2.589  13.758  0.3531  0.1343  0.1454
30329W        W45460  11.275  12.804  11.750  0.1150 -0.1224  0.0809
30330W        W45461   1.474   6.866  10.841 -0.3097 -0.1683  0.3250
30331W        W45462   0.929  11.397   0.679  0.1392  0.0686  0.0167
30332W        W45463   9.461   5.266   4.980  0.1316 -0.0882 -0.4093
30333W        W45464   5.494  13.633   2.704 -0.3338 -0.1037 -0.1015
30334W        W45465  17.461   4.562   2.089  0.4127  0.0138 -0.1611
30335W        W45466  13.022   3.142   4.555 -0.0617  0.0087 -0.1944
30336W        W45467   7.963  10.925  15.032 -0.0750 -0.0989 -0.5152
30337W        W45468  15.415   9.276   3.843  0.0189 -0.0370 -0.0244
30338W        W45469   5.606  15.501  12.438 -0.1617  0.0075  0.0641
30339W        W45470   2.059  17.998  15.201  0.3340 -0.0478  0.1952
30340W        W45471   8.642   9.661  15.601  0.4765  0.5187 -0.3206
30341W        W45472   0.039  15.675  15.473  0.0068  0.2878  0.0034
30342W        W45473  14.524   7.567  13.694  0.0438  0.1723 -0.1710
30343W        W45474  15.019   9.468  14.611  0.1334  0.1967  0.0470
30344W        W45475   0.238   5.609   2.153  0.1035  0.1813  0.1509
30345W        W45476   5.569   1.671   3.174  0.1222  0.0684 -0.0320
30346W        W45477  11.997   1.546   1.268 -0.0029  0.1988  0.0624
30347W        W45478   2.855   3.294  11.933 -0.1247  0.0073  0.0742
30348W        W45479   4.988  17.185  14.649  0.2036  0.1176  0.0072
30349W        W45480  12.360   5.959   0.335  0.0845 -0.0043 -0.0474
30350W        W45481   2.483   6.215  15.286  0.1725  0.0351 -0.0475
30351W        W45482   2.498  10.546   3.369 -0.0640  0.2282 -0.1141
30352W        W45483   5.738   7.050   2.934  0.0495 -0.1563  0.1861
30353W        W45484   5.832  12.736  10.632  0.0683 -0.2497  0.2081
30354W        W45485   2.708  12.490   1.803 -0.3043  0.2453 -0.0327
30355W        W45486   9.921   0.130  13.421  0.2495  0.0211 -0.1455
30356W        W45487   2.516   7.437  15.543 -0.0345  0.1067  0.4530
30357W        W45488  12.831   8.549  15.257 -0.0093  0.0171 -0.0752
30358W        W45489  17.337   3.609   5.747  0.0222 -0.0270  0.0990
30359W        W45490   5.737  16.923   1.532 -0.0979  0.0338 -0.2072
30360W        W45491  12.603  17.596  16.429  0.0005  0.0344  0.0860
30361W        W45492   5.017  15.450   2.819  0.3536  0.1634  0.2166
30362W        W45493  15.748   7.780  12.830  0.3161  0.1022 -0.3277
30363W        W45494  12.988  17.097  13.287  0.1989 -0.0470  0.2940
30364W        W45495   6.284  16.748   3.016  0.3923 -0.1590 -0.2255
30365W        W45496  11.414  16.989   2.443  0.2080 -0.1525 -0.0049
30366W        W45497  17.156   1.307   5.246  0.1014 -0.0132  0.2577
30367W        W45498   6.520  17.895  15.039 -0.1255  0.2065  0.3626
30368W        W45499  12.066   5.252  14.400 -0.1134  0.1658  0.1639
30369W        W45500   9.878  18.060   1.010 -0.0004  0.0298 -0.3877
30370W        W45501  12.014  13.074   1.174  0.0892  0.2969 -0.1683
30371W        W45502  11.503   5.976   1.620  0.1423  0.1920  0.3655
30372W        W45503   4.448   8.343  14.402  0.3512 -0.1271 -0.1198
30373W        W45504  10.818   5.800   3.873 -0.2042  0.2113 -0.0993
30374W        W45505   0.397  10.717  14.717  0.1744  0.1686  0.4252
30375W        W45506   5.210   5.986  11.612  0.2485 -0.0413  0.2254
30376W        W45507   2.151   5.262   5.260  0.0000  0.2146  0.0089
30377W        W45508   1.557   8.703  13.047  0.0065 -0.0345 -0.2114
30378W        W45509   1.058  17.735   1.878 -0.2257  0.0773 -0.3091
30379W        W45510   9.274  12.227  15.911 -0.1361  0.0001  0.3609
30380W        W45511  14.215  10.043  15.973 -0.2394 -0.2600  0.0643
30381W        W45512   7.836   9.066  12.073 -0.2271  0.3150 -0.0403
30382W        W45513  10.943  12.516  14.611  0.2223  0.1906  0.0812
30383W        W45514  13.435   9.690  11.566  0.0999  0.1949  0.2489
30384W        W45515  16.317   7.505   2.836 -0.0011  0.0721 -0.1067
30385W        W45516   8.128   7.237   1.723  0.4173 -0.0250  0.0996
30386W        W45517   2.834   2.717  13.141 -0.3440 -0.2212 -0.2099
30387W        W45518   6.202   5.362   3.698  0.1032  0.1767 -0.2121
30388W        W45519  17.674  10.602   1.983  0.0227  0.2293  0.0876
30389W        W45520   3.043   9.653  13.650 -0.2177 -0.3180  0.2970
30390W        W45521   2.414   5.186   4.215  0.0489  0.2701  0.4037
30391W        W45522   7.013  13.428  13.823 -0.1998 -0.1269  0.1336
30392W        W45523  17.993  13.402  13.048  0.2936  0.1940  0.1370
30393W        W45524   2.443  17.310  12.809  0.3192  0.0711  0.1388
30394W        W45525   0.858  15.966   5.276  0.2668  0.0299  0.2917
30395W        W45526   0.687   2.430   5.483 -0.1816  0.1341 -0.0023
30396W        W45527  15.215   7.735  12.586 -0.1354  0.1926  0.0325
30397W        W45528  11.771   3.476  14.446 -0.0186 -0.0641 -0.0891
30398W        W45529  18.098  12.138  14.444 -0.0985  0.0415 -0.2928
30399W        W45530   6.615   4.556  14.574  0.0099 -0.3789 -0.2009
30400W        W45531   3.472   0.776   4.306  0.2602  0.0004 -0.0850
30401W        W45532   4.648   4.378   2.863 -0.0987 -0.2326 -0.2679
30402W        W45533  16.704   3.680   0.024 -0.1872  0.0317  0.1728
30403W        W45534  11.130   1.328   2.319  0.0619 -0.2732  0.2356
30404W        W45535   5.353   7.108   0.681  0.0896 -0.2160 -0.2517
30405W        W45536  17.949   1.943   0.824 -0.1958 -0.2958  0.1103
30406W        W45537   7.820   5.469  15.375 -0.0296  0.0710  0.0494
30407W        W45538   6.668   3.091   4.836  0.2812 -0.2772  0.1431
30408W        W45539   1.310  10.787  16.384 -0.0474  0.0620 -0.1271
30409W        W45540   2.599   3.618  14.808  0.2874  0.3170  0.2104
30410W        W45541  18.062  11.321   0.616 -0.0028 -0.2155 -0.1310
30411W        W45542   5.124  13.136  14.871  0.2313  0.0953  0.0406
30412W        W45543   6.856   2.416   3.083 -0.0508  0.3429 -0.1832
30413W        W45544   6.681   0.880  15.694 -0.0453 -0.0198 -0.0162
30414W        W45545  10.827  12.820  12.982 -0.0925  0.2009 -0.1035
30415W        W45546   9.017  17.668   4.860  0.3933 -0.1603  0.2557
30416W        W45547  12.407  14.303   6.149  0.1726  0.0163 -0.0196
30417W        W45548  14.567  15.329   1.724 -0.0314 -0.0349 -0.0422
30418W        W45549   1.520   8.597   0.142 -0.2287 -0.1505  0.2606
30419W        W45550  17.800  15.783  16.324  0.0543 -0.1055 -0.1162
30420W        W45551   9.348   1.066   0.369  0.0591  0.3046 -0.2525
30421W        W45552  15.478  16.703   1.086 -0.1668 -0.0509  0.0542
30422W        W45553  12.321  15.147   1.416  0.1496  0.3487 -0.3520
30423W        W45554  10.915   0.321   2.493 -0.1028 -0.0809  0.0194
30424W        W45555   9.334   2.661  12.493 -0.1563  0.0264  0.3422
30425W        W45556   0.815   2.638  14.849 -0.1747 -0.4123 -0.1539
30426W        W45557  14.253  11.308   4.029 -0.2156 -0.0470 -0.1795
30427W        W45558   1.436  17.429   0.886  0.2673 -0.0408 -0.4601
30428W        W45559   1.529  14.201   1.142 -0.1602  0.0691  0.2039
30429W        W45560  10.409   2.425   1.699 -0.0138  0.1147  0.1528
30430W        W45561  17.369   2.716   2.128 -0.0145  0.0718  0.3404
30431W        W45562   0.639  16.024   2.781  0.1655 -0.0744  0.2544
30432W        W45563   9.323  16.988  15.552  0.2031 -0.2811 -0.0025
30433W        W45564  10.393   7.118  14.089  0.1230  0.1980  0.0409
30434W        W45565  14.888   3.495   4.465 -0.0460 -0.0573  0.1148
30435W        W45566   8.388  12.195  16.027 -0.1753 -0.2495  0.3370
30436W        W45567   2.439   0.595  15.024  0.0133 -0.1399 -0.2029
30437W        W45568   2.988   5.356   2.160  0.0872 -0.0085 -0.1398
30438W        W45569   0.020  14.964  12.727  0.3205 -0.1592  0.1822
30439W        W45570  12.047   6.473  12.764 -0.6031 -0.2056 -0.1012
30440W        W45571  17.386   1.567  12.191  0.2447 -0.1679  0.0761
30441W        W45572   6.002   9.240   5.603 -0.1315 -0.2253 -0.0223
30442W        W45573  13.853  13.667   2.736  0.2616  0.1127 -0.1665
30443W        W45574  18.027   9.146   1.192 -0.1143  0.4351 -0.1563
30444W        W45575  11.679   5.100  13.822 -0.2803  0.0826 -0.2290
30445W        W45576   7.807  11.406   4.982 -0.1012  0.0949 -0.0177
30446W        W45577   8.132   3.800   1.016  0.1138 -0.3944 -0.0263
30447W        W45578   3.139   2.716  14.525 -0.0745 -0.0786 -0.1327
30448W        W45579  12.231   1.345   2.961  0.0218 -0.2904 -0.1694
30449W        W45580  12.121  13.962   4.806  0.1218 -0.1078  0.0825
30450W        W45581   0.646   4.534  11.549 -0.3431 -0.0652 -0.0347
30451W        W45582  10.248   6.969  12.078 -0.0610  0.0440  0.0474
30452W        W45583   5.829  13.232  13.538 -0.0057  0.3493 -0.1206
30453W        W45584   1.677  13.969   2.916 -0.1056 -0.0880 -0.0711
30454W        W45585  12.467   7.104  11.596  0.1305 -0.2148 -0.0819
30455W        W45586  17.275  13.538  14.996 -0.0636 -0.0665 -0.1100
30456W        W45587   4.018   7.433   1.858  0.2392 -0.2260  0.1994
30457W        W45588   8.199   1.334  16.385 -0.1029 -0.0404 -0.1694
30458W        W45589  14.648   1.362   5.451 -0.0001  0.1148 -0.0108
30459W        W45590  15.809  12.944  11.272 -0.0615 -0.1925  0.4816
30460W        W45591   5.849   7.573   1.843 -0.0426 -0.0859  0.1162
30461W        W45592   0.772   9.610   0.908 -0.0461 -0.1078  0.2623
30462W        W45593  16.703   3.512   4.451 -0.1288 -0.0637  0.1266
30463W        W45594   7.191   8.486   5.093 -0.4540 -0.1467 -0.2473
30464W        W45595   5.194   3.058   4.494  0.5134 -0.1075 -0.0369
30465W        W45596  11.597  13.627   5.436  0.0782  0.2697  0.2940
30466W        W45597   5.966  16.579   4.615  0.0993  0.1839  0.0844
30467W        W45598  12.710  10.525  13.503 -0.2007  0.0419  0.0093
30468W        W45599   9.278   7.239  13.179 -0.2642  0.0310 -0.1531
30469W        W45600  16.167   0.055   1.897  0.1144 -0.1246  0.2654
30470W        W45601  10.351   3.817   0.825  0.0213 -0.0260 -0.0464
30471W        W45602   5.381  11.164  15.253 -0.0647  0.0334 -0.1137
30472W        W45603  10.310   5.269   1.976 -0.1293  0.3535 -0.1729
30473W        W45604  13.938  10.722   2.150  0.0061 -0.1948  0.0750
30474W        W45605   7.728  12.654   4.790  0.1756 -0.1324 -0.0439
30475W        W45606   2.729  16.088   0.652 -0.1540 -0.0821 -0.3151
30476W        W45607  15.920   3.089   3.403  0.4401  0.0801 -0.0006
30477W        W45608  17.516  13.545   2.586 -0.0076 -0.0116 -0.0204
30478W        W45609  15.327  13.514  13.318  0.1836 -0.1404 -0.1936
30479W        W45610  10.985   6.980  16.251 -0.0108  0.5116  0.0604
30480W        W45611   5.696   3.455  11.628  0.3380 -0.1227  0.2781
30481W        W45612   4.985   6.936   4.750  0.1026 -0.0796  0.1929
30482W        W45613   2.412   4.144  15.660 -0.2004 -0.0738 -0.0286
30483W        W45614  16.693   3.742  12.991 -0.1558  0.3809 -0.0366
30484W        W45615   8.189   4.883  14.443  0.0781 -0.1331 -0.1884
30485W        W45616   8.620   7.888   2.280  0.3001  0.1908  0.0212
30486W        W45617  16.000  14.799  13.762 -0.0476 -0.0676 -0.0423
30487W        W45618   6.861  15.160   0.703 -0.0561  0.2771  0.1983
30488W        W45619   4.126  13.896  16.196  0.2177  0.1769  0.0358
30489W        W45620  11.772  15.114   1.136  0.0813  0.0142 -0.3154
30490W        W45621   4.328  18.035  13.258  0.2759  0.1240 -0.2400
30491W        W45622  16.293  10.826   3.661 -0.0959 -0.1711 -0.1378
30492W        W45623  12.150   0.841  11.175  0.0656  0.0443  0.0804
30493W        W45624  12.490   7.219  13.008 -0.0042 -0.2029 -0.0656
30494W        W45625   1.004  17.762  11.225  0.3114 -0.0755 -0.1189
30495W        W45626  11.434   3.020   5.958  0.2675 -0.1711 -0.0512
30496W        W45627   7.433   9.520  16.426  0.3550  0.0133 -0.0002
30497W        W45628   4.399   8.097  13.477  0.0165  0.3553 -0.0693
30498W        W45629  16.326  14.894   0.271 -0.0244 -0.2565  0.0046
30499W        W45630   4.999  17.823  14.425 -0.0526 -0.2152 -0.0548
30500W        W45631  17.040  17.998   2.962 -0.0290  0.0456  0.0453
30501W        W45632   9.533   0.618   2.864  0.3510 -0.0251 -0.0424
30502W        W45633   5.577   0.515  12.453  0.3951  0.2603  0.0273
30503W        W45634   4.322   7.522  12.191  0.0781  0.1723  0.0725
30504W        W45635   7.173  17.543  10.389 -0.4011 -0.1641 -0.0799
30505W        W45636  11.415  10.512   0.716  0.2898  0.2285  0.1016
30506W        W45637   8.098  18.042  12.982  0.0931  0.6101  0.1760
30507W        W45638   6.421   3.867   1.014  0.0284  0.0266  0.2677
30508W        W45639   6.400   5.046   4.813  0.1456 -0.0256  0.1533
30509W        W45640   4.348   6.609   0.685 -0.1376  0.0997  0.1534
30510W        W45641  11.214   8.909   3.500 -0.0149  0.2246  0.0421
30511W        W45642   8.746  15.851   1.593 -0.0686 -0.1553  0.2165
30512W        W45643   6.197   3.389  13.037  0.0135 -0.1108  0.1916
30513W        W45644  15.619  11.433   6.005 -0.1191 -0.2173  0.3093
30514W        W45645  14.511   9.108   5.464  0.1454  0.2083 -0.0094
30515W        W45646   9.543  15.804   1.141  0.0690  0.0063 -0.0900
30516W        W45647   5.433   9.550   3.958  0.0535 -0.1620 -0.4132
30517W        W45648  11.285   9.533  13.845  0.5443  0.2794 -0.0514
30518W        W45649   8.326  12.767  13.447 -0.5268  0.0493 -0.1248
30519W        W45650   5.647   1.004  15.152 -0.4369  0.3762 -0.0790
30520W        W45651   2.178  13.871   1.622 -0.1808  0.1132 -0.1449
30521W        W45652   5.511  15.062   1.433 -0.0739 -0.3971  0.3457
30522W        W45653  15.184  11.340  11.515  0.3256  0.1383  0.1181
30523W        W45654  12.615   6.801  11.171  0.0785  0.1814  0.2090
30524W        W45655   3.462  15.806   5.326  0.0549  0.0064  0.0982
30525W        W45656   5.387   6.777   1.527  0.1663 -0.0089 -0.1451
30526W        W45657  15.523   1.179  15.334 -0.2420 -0.2055 -0.1469
30527W        W45658  10.087  11.769  13.654 -0.0002  0.0638  0.3409
30528W        W45659   2.736  12.797   4.071 -0.0923 -0.0477 -0.1521
30529W        W45660   3.112  14.089  14.161  0.0621  0.1165 -0.1886
30530W        W45661  13.908  11.087  11.753  0.2251  0.0215 -0.0443
30531W        W45662   5.127  17.477   1.792  0.1551 -0.2847  0.2740
30532W        W45663   7.114   3.674   0.369 -0.1888 -0.0807  0.0689
30533W        W45664  16.832   4.118  11.727 -0.1563 -0.0695 -0.0271
30534W        W45665   8.196   5.006  12.035 -0.1527 -0.0454 -0.1156
30535W        W45666  12.195  12.038   3.605  0.0023  0.0381  0.2595
30536W        W45667  13.902   7.152   3.313  0.1088 -0.3973  0.1455
30537W        W45668  12.336   6.090  11.439  0.2696  0.0006 -0.0967
30538W        W45669  17.385  16.622   2.490  0.1463  0.0799  0.0923
30539W        W45670  14.825  13.603   1.706 -0.2407  0.1695 -0.2827
30540W        W45671   2.325  14.483  16.314  0.1233 -0.1734  0.1686
30541W        W45672   9.224  13.216  14.262  0.1592  0.1703  0.1630
30542W        W45673   6.702  14.708  14.251  0.2380 -0.0393 -0.2129
30543W        W45674  10.513   6.681   4.245 -0.1629  0.1420 -0.1313
30544W        W45675   2.696   7.376  13.052 -0.1726 -0.0208  0.0079
30545W        W45676   6.626  15.901  14.347  0.2660 -0.0981  0.2321
30546W        W45677  14.734  13.769   2.281 -0.1095 -0.0973 -0.0692
30547W        W45678   4.835  14.999  14.316 -0.3423  0.1178 -0.1301
30548W        W45679   1.650   9.664  13.244 -0.1809 -0.1997  0.2125
30549W        W45680   3.026  11.657   1.947 -0.1248  0.3386 -0.0340
30550W        W45681   1.191  15.488  14.375  0.2758 -0.0912 -0.0197
30551W        W45682  15.255   4.060  15.278 -0.0903 -0.0275  0.1165
30552W        W45683  16.344  12.941  14.380  0.4224  0.2419  0.0712
30553W        W45684   7.569   3.801   0.247 -0.1598 -0.3085 -0.0391
30554W        W45685   7.184  12.936   0.097  0.1256  0.2735 -0.4197
30555W        W45686   2.853  10.816   5.374 -0.0764 -0.0363 -0.0069
30556W        W45687   4.413  15.139  11.765 -0.1531  0.1348 -0.3344
30557W        W45688  13.581   9.174  14.463 -0.1350  0.0461  0.0048
30558W        W45689  17.497   0.298  15.704 -0.0354 -0.2790 -0.1747
30559W        W45690   3.695  13.840   0.226  0.1417  0.0305 -0.4942
30560W        W45691  16.345   4.737   0.103  0.2437 -0.3209 -0.3172
30561W        W45692  12.685   9.901   0.261  0.2963 -0.0384 -0.2909
30562W        W45693   7.478   8.029  16.372  0.2699  0.2267 -0.1042
30563W        W45694  14.554  16.202   3.872  0.0784  0.2354  0.1248
30564W        W45695   4.177  11.691   4.369  0.2034  0.1422 -0.1165
30565W        W45696  17.376   2.092   2.589 -0.0131 -0.1420 -0.1938
30566W        W45697   7.997   9.158   4.857  0.0842  0.0605 -0.2824
30567W        W45698  11.363  17.844   3.399 -0.2117 -0.1331  0.1010
30568W        W45699  17.009  15.932  12.417  0.1594 -0.1307 -0.0352
30569W        W45700  14.461  12.204  13.117 -0.2014 -0.1190  0.0259
30570W        W45701   9.567  16.726   4.464 -0.2982  0.0982  0.0970
30571W        W45702  12.255   4.618  15.175 -0.0353 -0.0905  0.2675
30572W        W45703  12.502   2.072  16.014  0.0866  0.0804 -0.0520
30573W        W45704  17.963   4.779  11.593  0.1480  0.1408 -0.0496
30574W        W45705   5.504   1.930  15.739  0.1735  0.0945 -0.2163
30575W        W45706  15.099   8.111   1.892  0.3289 -0.4543 -0.3164
30576W        W45707   6.611  13.889  14.675 -0.0546 -0.0127 -0.1490
30577W        W45708   2.324  13.330   2.287  0.0084 -0.2374 -0.3135
30578W        W45709  14.575  13.900   5.065 -0.1126  0.1773 -0.0418
30579W        W45710   6.495   2.060  12.381  0.1476  0.1650 -0.0212
30580W        W45711  13.284   0.985  12.163 -0.0756 -0.1993  0.3979
30581W        W45712  15.579   2.348   2.322 -0.0749 -0.2330 -0.0118
30582W        W45713  17.493   3.550   2.812  0.1009  0.1170  0.2138
30583W        W45714  17.461   6.234   3.631 -0.0556 -0.0672 -0.0770
30584W        W45715  16.565   5.982   0.371 -0.3585  0.0288 -0.1967
30585W        W45716   4.733   6.257  11.366  0.1608 -0.0440  0.0201
30586W        W45717  12.403  14.161   5.168 -0.2409 -0.0740 -0.0426
30587W        W45718  10.448   1.119  11.596 -0.0881 -0.1611  0.1159
30588W        W45719   0.317   8.798   2.239  0.3242 -0.0909 -0.0466
30589W        W45720  12.309   0.680  11.916  0.1284  0.0577  0.1193
30590W        W45721  17.129  14.507  12.506 -0.3155  0.3546  0.2667
30591W        W45722   9.374  11.640   3.575 -0.1264 -0.1423 -0.3272
30592W        W45723   8.102  13.015  16.398 -0.1721  0.1964  0.3880
30593W        W45724  15.148  11.302   4.944  0.1070  0.3793 -0.0676
30594W        W45725   4.004  14.994   3.371  0.2107 -0.0259  0.3090
30595W        W45726  14.228   2.091   0.138  0.0720  0.0673 -0.0076
30596W        W45727   9.809  15.640  12.566  0.0417  0.1619  0.0228
30597W        W45728   9.910   8.033  10.466 -0.1923  0.3972 -0.0004
30598W        W45729   7.660  15.363  12.431  0.2015 -0.2690  0.1757
30599W        W45730   9.034   7.539   3.130 -0.0194  0.0831 -0.1231
30600W        W45731  14.404   0.723   4.713  0.0374 -0.0010  0.1335
30601W        W45732   5.562   9.906  15.179 -0.1126 -0.1857 -0.0658
30602W        W45733   2.772  13.225   4.863  0.1943 -0.0677 -0.0701
30603W        W45734  12.419   5.951   2.518 -0.0007 -0.4088 -0.1872
30604W        W45735  17.320  11.481  12.617 -0.1283 -0.0679 -0.2027
30605W        W45736  11.181  10.542   4.581  0.1102 -0.2194  0.0678
30606W        W45737  17.961  18.066  12.903 -0.2307 -0.0843  0.1213
30607W        W45738  15.152   7.009  12.114  0.3400  0.1118  0.0344
30608W        W45739   0.464   4.559   1.382  0.2686  0.0890  0.1647
30609W        W45740   3.135  15.117  14.902  0.2111 -0.1068 -0.4689
30610W        W45741  12.491  18.014   5.413 -0.2060  0.0841 -0.1898
30611W        W45742  15.540  13.221   4.361  0.0655  0.0553 -0.0427
30612W        W45743  13.874   7.793   0.074 -0.2880  0.1596 -0.0371
30613W        W45744   4.715  14.192  11.516  0.1752  0.3474 -0.3141
30614W        W45745   1.239   8.121   0.991  0.0502  0.2195 -0.0963
30615W        W45746   3.153   9.961   5.635 -0.2526  0.2112 -0.1080
30616W        W45747   3.086  11.027   3.963  0.1651 -0.1621  0.2886
30617W        W45748   3.893   5.954   4.360 -0.1905  0.0822  0.1459
30618W        W45749  12.053   4.457   1.015  0.1751 -0.1851  0.2411
30619W        W45750  12.664   0.343   3.797 -0.0639 -0.2924  0.1069
30620W        W45751   4.524   7.493   0.249 -0.0391  0.1639 -0.1097
30621W        W45752  11.971   7.788   0.433  0.0133  0.1137  0.0450
30622W        W45753  10.201   8.607   1.254  0.0535  0.3241 -0.1662
30623W        W45754   2.845   0.881  14.490 -0.1226  0.1072 -0.0649
30624W        W45755  13.206   6.995   5.121 -0.1655 -0.3202  0.1120
30625W        W45756   5.615   6.394   0.933  0.0058  0.2406 -0.0948
30626W        W45757  14.978  14.825  14.657  0.2295 -0.0730  0.1963
30627W        W45758  16.028   8.499  15.678  0.1610 -0.0346  0.0392
30628W        W45759  16.977   2.565   0.106  0.2662 -0.1297  0.2573
30629W        W45760  12.825  12.865   2.942  0.1757  0.0703 -0.0006
30630W        W45761  16.465  16.053   3.341  0.1595 -0.2654 -0.1526
30631W        W45762   3.282  13.341   0.889 -0.1452 -0.1205  0.0804
30632W        W45763   2.933  17.750   1.886  0.0764 -0.1303  0.0370
30633W        W45764   6.748  10.292   4.032  0.1796  0.2943 -0.2248
30634W        W45765   3.318   1.106  14.397 -0.0187  0.2213  0.0724
30635W        W45766   3.357  10.112  13.317  0.2511  0.0768  0.3819
30636W        W45767   2.659   2.344   4.289 -0.0287  0.1256  0.0851
30637W        W45768   0.754   1.302   2.821  0.2237 -0.0147  0.1606
30638W        W45769   6.952   9.563  13.199 -0.0579 -0.3736  0.1184
30639W        W45770  13.329   2.610   3.750 -0.0633  0.0451  0.0863
30640W        W45771   7.438   1.290  15.720 -0.1162 -0.1598  0.0311
30641W        W45772   1.113  11.002   5.156 -0.1559 -0.1326 -0.2930
30642W        W45773  17.173   9.499   2.434 -0.1130  0.2408 -0.0924
30643W        W45774  11.599  12.684  15.993 -0.0831  0.2426 -0.1271
30644W        W45775   4.337   1.554  15.203 -0.0434  0.2045 -0.2578
30645W        W45776   3.230   5.632  12.227 -0.2187 -0.0505 -0.0853
30646W        W45777  14.317  16.179   0.797  0.2194  0.1109  0.1764
30647W        W45778  12.515   8.023  16.197  0.0841 -0.1068  0.1568
30648W        W45779  16.956   6.937   3.575 -0.3855 -0.0093  0.2542
30649W        W45780   5.025   4.728   5.874 -0.2721 -0.0515  0.0275
30650W        W45781   8.953   9.986  15.345  0.2235  0.2469  0.1472
30651W        W45782   1.999  15.515   1.218  0.0335 -0.1973  0.0503
30652W        W45783  15.507   7.875  11.087 -0.0260 -0.0917  0.1780
30653W        W45784   0.233   2.734   2.546  0.1813 -0.2894 -0.2449
30654W        W45785  12.851  12.348  11.921 -0.1412  0.2420 -0.0492
30655W        W45786  11.762   1.562  15.744 -0.0185 -0.0495 -0.0606
30656W        W45787  11.857   6.076  11.702  0.0880  0.2484  0.2453
30657W        W45788  10.640  13.235  15.609  0.0871 -0.0047  0.1612
30658W        W45789   8.753   9.641   4.695  0.0102 -0.3684 -0.1516
30659W        W45790  10.002  17.303  16.198 -0.2546 -0.3462 -0.2939
30660W        W45791  13.782   4.384   1.071 -0.2143 -0.1044 -0.1624
30661W        W45792   6.269   3.394   1.990 -0.1514 -0.0267 -0.3123
30662W        W45793   4.882  15.381   1.185  0.0711 -0.0924 -0.2739
30663W        W45794  15.854  16.752  12.759  0.0175  0.1356 -0.0404
30664W        W45795   7.918   2.148  10.975  0.2030 -0.0094 -0.1665
30665W        W45796  17.455  12.765   1.877 -0.1628 -0.0143 -0.0869
30666W        W45797   4.012  10.074   2.107 -0.0210  0.1790 -0.1769
30667W        W45798  11.724   7.331   4.258 -0.0386 -0.1081 -0.0791
30668W        W45799   8.206  17.334   6.559  0.0978 -0.2817 -0.0322
30669W        W45800   5.118  15.570   3.418  0.4196  0.2848 -0.1615
30670W        W45801   2.176   9.993   2.274 -0.1931  0.2365  0.2398
30671W        W45802  10.270  14.081   5.263 -0.1046 -0.0531 -0.0614
30672W        W45803   7.997   8.029   1.481  0.1064  0.2370 -0.2078
30673W        W45804  13.277  16.989   0.570 -0.0743 -0.2060  0.0136
30674W        W45805   9.234   4.963   3.897  0.0940  0.0882 -0.1234
30675W        W45806   1.676   9.315  14.910 -0.0820 -0.0940 -0.1070
30676W        W45807  14.831   0.941  12.757  0.0054  0.0689 -0.0483
30677W        W45808  12.221   5.736  15.821 -0.2181  0.1788 -0.3915
30678W        W45809   9.592  15.268   1.408 -0.2712  0.0583 -0.0557
30679W        W45810  13.579   1.673   0.558 -0.0139 -0.2496 -0.2072
30680W        W45811   8.734  11.513   4.992  0.3290 -0.0292  0.0769
30681W        W45812  13.456   4.988   1.457 -0.2685  0.0380  0.0542
30682W        W45813  10.409   7.740   0.834 -0.2330  0.2019  0.0267
30683W        W45814  15.915   2.007  12.826 -0.1828 -0.3243  0.3907
30684W        W45815   4.600   0.214   0.987 -0.0210 -0.2190 -0.0267
30685W        W45816  11.617   8.770  15.647  0.1134 -0.1261 -0.0119
30686W        W45817  17.896   5.973   3.301 -0.1638 -0.2689 -0.1187
30687W        W45818  18.099   6.019   2.279 -0.1143 -0.0296 -0.2786
30688W        W45819  13.856  11.344   5.250 -0.1051  0.0252 -0.1027
30689W        W45820  13.545   7.522  10.858 -0.2347  0.2046  0.1512
30690W        W45821  14.207   1.101   3.070  0.1767 -0.4374  0.0548
30691W        W45822  17.746   5.633  14.536  0.0444  0.3788  0.4099
30692W        W45823  14.714   5.389   1.753 -0.0677 -0.2526  0.1718
30693W        W45824  17.252  12.913   2.661 -0.0157 -0.3861  0.2548
30694W        W45825  15.463   2.237   5.787 -0.0865  0.0964 -0.2453
30695W        W45826  11.335   8.856   0.902 -0.0169 -0.3021 -0.2181
30696W        W45827   3.161  17.309   2.729 -0.1509 -0.2205  0.3385
30697W        W45828   3.372  12.997  16.122  0.1992  0.3517 -0.0730
30698W        W45829  14.436   5.866   1.520 -0.0094 -0.1158 -0.0100
30699W        W45830   9.728  14.924  13.871 -0.2308 -0.1513 -0.1053
30700W        W45831  14.734  17.901  11.970 -0.1507  0.0735 -0.1223
30701W        W45832  11.048  14.419   3.155  0.0331 -0.0598  0.2723
30702W        W45833  12.944   8.984  14.389  0.0042  0.0869 -0.3854
30703W        W45834   2.132   8.115  15.988 -0.0339  0.1012  0.0910
30704W        W45835   2.349   1.796   1.488 -0.2239 -0.1006  0.0979
30705W        W45836  11.528  16.271   2.886  0.2553 -0.2202 -0.0798
30706W        W45837   2.041  11.806   1.104  0.0224 -0.1164 -0.1075
30707W        W45838  11.537   2.557  11.549 -0.0241 -0.0074  0.0512
30708W        W45839   8.407  10.664  11.049  0.0120 -0.1053  0.1313
30709W        W45840   5.892  10.787  16.193  0.1350  0.2756  0.0788
30710W        W45841  14.089  11.273   3.270 -0.0384 -0.3621  0.3058
30711W        W45842   5.726  13.239   0.022 -0.2436 -0.0966 -0.0050
30712W        W45843  16.118  10.505   3.223  0.2713 -0.2176  0.0019
30713W        W45844  16.450   5.862  15.158 -0.0674  0.0447  0.0305
30714W        W45845  11.488  15.159   4.445 -0.2956 -0.1129  0.3006
30715W        W45846   1.870   6.190   3.334  0.0740  0.0337  0.1901
30716W        W45847   1.407   5.534   3.545 -0.1788  0.0284  0.3111
30717W        W45848   9.573   0.601  12.724 -0.0377 -0.0091  0.0068
30718W        W45849  17.601   9.329   1.395  0.0634 -0.0147  0.4440
30719W        W45850  12.968  11.132  16.345 -0.1361  0.1740  0.0284
30720W        W45851   3.444  13.561  15.479  0.0166 -0.0490 -0.3608
30721W        W45852   9.317   2.957   5.234 -0.0021 -0.0495 -0.2762
30722W        W45853  13.863  12.732  12.664  0.2855  0.0011  0.0285
30723W        W45854   6.947  15.154  11.175  0.0380 -0.1862 -0.1426
30724W        W45855   8.315  16.280   0.985  0.2260  0.3203 -0.2934
30725W        W45856   7.477   1.151  11.351 -0.0919 -0.0119  0.3078
30726W        W45857   9.774  11.257   0.206  0.0706 -0.2935  0.2148
30727W        W45858   1.989  10.142   4.402  0.1796  0.2042  0.0843
30728W        W45859  10.153   9.917   0.439 -0.0756  0.0245  0.0016
30729W        W45860  16.387   3.203   1.952 -0.0680  0.2042  0.2054
30730W        W45861   6.030   4.577  13.616 -0.4959  0.0492 -0.0021
30731W        W45862  14.245  10.311  13.821  0.0739  0.2310 -0.1913
30732W        W45863  14.536  13.313  16.005  0.0693  0.0614 -0.1774
30733W        W45864  17.212  17.487   1.486 -0.0385  0.1629 -0.0644
30734W        W45865   1.942  16.785   5.259 -0.1040  0.0487 -0.0508
30735W        W45866   5.516   5.625  11.264 -0.0851  0.0846 -0.0614
30736W        W45867  10.731  11.626  11.969 -0.1430  0.1803 -0.0096
30737W        W45868  11.944   4.875  11.233  0.1702 -0.0668  0.0070
30738W        W45869  17.539  13.232   2.992  0.1326  0.0085 -0.2545
30739W        W45870   0.771   3.832  10.705 -0.1822 -0.1169 -0.0042
30740W        W45871   4.224  14.593   0.897 -0.2543  0.2274  0.0984
30741W        W45872   8.104  12.024   2.505  0.2271  0.1275  0.0029
30742W        W45873   4.270   2.946   4.523  0.2782 -0.1068 -0.0149
30743W        W45874   4.820   9.860   2.383  0.0647 -0.0573 -0.0732
30744W        W45875  15.292   2.076  12.098 -0.2517 -0.1387  0.1190
30745W        W45876  15.135   5.902   5.746 -0.1735 -0.1288 -0.2433
30746W        W45877   1.697   0.595  14.026  0.0355 -0.0571 -0.2259
30747W        W45878   3.927   7.513  15.708 -0.2193  0.0622 -0.2164
30748W        W45879  14.549  10.930   5.644 -0.3309  0.1229  0.0378
30749W        W45880   0.530   5.227   4.288  0.0760  0.0881  0.5047
30750W        W45881   5.299  16.774   3.665  0.1183 -0.3029  0.1019
30751W        W45882   1.146  10.014  15.005 -0.3628  0.1196  0.0155
30752W        W45883   9.597   0.549  14.237  0.0629 -0.0790  0.2503
30753W        W45884  17.363  17.425   5.461  0.0433 -0.2194 -0.2688
30754W        W45885   0.507   1.800   5.376  0.0061  0.1588  0.0304
30755W        W45886   3.294   5.623  11.688  0.1344  0.1042  0.1640
30756W        W45887   0.693   6.262  11.649 -0.2260  0.2765 -0.3230
30757W        W45888  10.870   6.538   0.023  0.1935 -0.1514  0.2588
30758W        W45889   2.968  13.273   5.478 -0.1643  0.3715  0.2709
30759W        W45890   4.460  18.027   4.847  0.4159  0.1277 -0.0327
30760W        W45891   2.581   6.321   1.660 -0.1859  0.0208  0.0770
30761W        W45892   8.660   8.897  13.721 -0.1332  0.3268 -0.2105
30762W        W45893  14.843   4.427  12.281 -0.1322  0.0953  0.1417
30763W        W45894  14.405  11.886   1.832 -0.0588  0.3519 -0.0832
30764W        W45895  14.650   1.927   3.834 -0.1461  0.4691  0.0107
30765W        W45896  16.989   4.473  15.266 -0.0833  0.3285  0.1865
30766W        W45897  16.964  16.015   2.589  0.2112 -0.2103 -0.1760
30767W        W45898  14.024   2.226   4.664 -0.1962 -0.2217 -0.0912
30768W        W45899  10.104   8.285   4.989 -0.1918 -0.0323 -0.2308
30769W        W45900  11.988  15.466  12.470 -0.2416  0.1160 -0.0895
30770W        W45901  14.527  14.628  16.357 -0.2377 -0.0574 -0.1183
30771W        W45902   5.460   6.973  11.163  0.0089 -0.0843 -0.3318
30772W        W45903  11.241  10.140  15.513  0.0386 -0.0771  0.1276
30773W        W45904   5.038   5.251  11.947  0.2366 -0.0069  0.0859
30774W        W45905  13.345  17.305  14.048  0.0735  0.2823 -0.1446
30775W        W45906  17.134  16.960   1.079  0.2093 -0.0524  0.2431
30776W        W45907   6.708  13.094  16.198 -0.0933 -0.0893 -0.0272
30777W        W45908   1.750  17.476  10.753 -0.1522  0.0309  0.1735
30778W        W45909   2.724   4.451  11.935 -0.0411  0.0042  0.3513
30779W        W45910   0.533   1.593  13.777 -0.0458  0.0088  0.0646
30780W        W45911   6.102   5.400   3.224 -0.0397  0.0830  0.0063
30781W        W45912  12.045   9.264  15.636 -0.0914  0.1700  0.1242
30782W        W45913  10.552   8.655  11.474  0.0248  0.1704  0.0132
30783W        W45914   5.266   0.172  14.369 -0.2358 -0.0464  0.0798
30784W        W45915  10.338  13.959   1.402  0.1265  0.2090 -0.1024
30785W        W45916  15.714   4.846  14.395 -0.1507  0.0820 -0.1308
30786W        W45917   3.810  12.190   1.353 -0.0143 -0.0211  0.1818
30787W        W45918   0.415  15.450  13.414 -0.0671 -0.1106 -0.0432
30788W        W45919  10.424  10.615   3.424  0.3283  0.0706  0.0920
30789W        W45920   5.385   0.980   4.012 -0.0470 -0.0276 -0.0041
30790W        W45921   2.591   8.339  15.803  0.1586 -0.0690 -0.0820
30791W        W45922  17.299   7.408   1.647  0.0814  0.1195  0.1490
30792W        W45923  12.509  11.799   2.001 -0.1263 -0.1796 -0.1704
30793W        W45924  14.142  10.172  11.574 -0.0434  0.0476 -0.2438
30794W        W45925  15.286   0.855  15.664 -0.0888  0.0316 -0.0797
30795W        W45926  11.354   2.809   0.768 -0.6082 -0.0767 -0.2285
30796W        W45927  17.317   0.094   4.655 -0.2225  0.1319  0.3772
30797W        W45928   2.452  15.049  12.453 -0.3082  0.0719 -0.2490
30798W        W45929   9.796   2.132  12.026  0.0557  0.1427 -0.1429
30799W        W45930  12.654   2.582   1.037  0.0464 -0.0389 -0.1634
30800W        W45931  11.581  14.165   4.113 -0.0856 -0.0069  0.0139
30801W        W45932  13.748   6.039  12.286  0.0194  0.2219 -0.0648
30802W        W45933  11.350  13.188   2.697 -0.2986 -0.0033  0.1584
30803W        W45934  15.315  10.505   0.706  0.3562 -0.0245  0.2224
30804W        W45935  11.328   2.403   0.504  0.0898 -0.1941  0.3462
30805W        W45936   8.272   4.994   2.540  0.2201  0.2249 -0.0852
30806W        W45937  17.397   9.712  14.076 -0.3203  0.3971  0.0455
30807W        W45938   3.475   8.048  13.348 -0.2338  0.2831 -0.0147
30808W        W45939   0.419   7.045   3.722  0.0719 -0.0438  0.0007
30809W        W45940   8.878  16.026   1.090 -0.0546 -0.0209  0.0565
30810W        W45941   2.933  14.880   1.168  0.2095  0.1429 -0.1713
30811W        W45942   1.146   4.350   2.452 -0.1687 -0.1854 -0.0961
30812W        W45943  15.042   3.133  12.070  0.1416  0.0749 -0.0586
30813W        W45944   1.893  12.509  14.086 -0.3346  0.0276  0.1617
30814W        W45945   0.646   0.654  15.112  0.0887 -0.2604 -0.1134
30815W        W45946  14.475   3.464  11.457  0.1055  0.1738 -0.3578
30816W        W45947   7.385   2.243  13.631  0.1083  0.3432  0.2167
30817W        W45948   1.505  17.720   4.039  0.0166  0.0291  0.2769
30818W        W45949   0.903  12.203  13.032  0.0797  0.2155 -0.1292
30819W        W45950   7.460  13.460  15.161 -0.3465  0.0707 -0.0548
30820W        W45951  15.665   2.110   4.381  0.0966 -0.0098 -0.1652
30821W        W45952  15.188  17.098   5.225 -0.2656  0.0506 -0.1259
30822W        W45953  12.304  15.728  12.126 -0.2015  0.2050  0.0994
30823W        W45954   9.485   9.180   4.800  0.2891  0.5820 -0.0846
30824W        W45955   0.333   9.324  13.696 -0.0185  0.3688 -0.2415
30825W        W45956  12.016   5.286   0.429 -0.2862 -0.2307  0.1120
30826W        W45957  17.289   0.432   2.918  0.1623  0.0530 -0.3337
30827W        W45958  13.966   8.330  13.910  0.2181  0.2444  0.1583
30828W        W45959  11.785   2.563   4.467 -0.0099 -0.1098 -0.1548
30829W        W45960   3.966   9.434  13.779 -0.2985 -0.2105 -0.1106
30830W        W45961   9.296   4.801   4.623 -0.2056 -0.3050  0.0621
30831W        W45962   3.117  13.756  13.335  0.2108  0.1461 -0.3997
30832W        W45963   1.076  17.148  14.159  0.0279 -0.0447 -0.0037
30833W        W45964   8.508  13.316  11.692  0.1873 -0.0064  0.1464
30834W        W45965   3.206   0.683   0.376 -0.0496  0.0162 -0.0488
30835W        W45966  16.480  16.423  11.341  0.0867  0.1556  0.2253
30836W        W45967   4.731   3.529  12.957  0.1593  0.0755  0.0256
30837W        W45968  13.909  11.084   0.897  0.1298  0.2092  0.1237
30838W        W45969  10.263   4.381   2.083 -0.1052  0.0695  0.0104
30839W        W45970  16.430   7.946   1.750  0.1465  0.1039  0.1441
30840W        W45971  11.363   9.735   0.645  0.0260  0.0265  0.1160
30841W        W45972  13.401   2.096   3.906 -0.0357 -0.1545 -0.4047
30842W        W45973  15.881   6.083  14.153 -0.2683 -0.0628 -0.0377
30843W        W45974   6.885  13.467   0.856 -0.1888 -0.2873  0.4555
30844W        W45975   6.583  10.295   5.463  0.1683  0.1338 -0.0754
30845W        W45976   8.705  18.049  11.903  0.2721 -0.0659 -0.0967
30846W        W45977  10.011   8.473   0.254 -0.1032  0.3284  0.0339
30847W        W45978   4.301   3.286   5.485  0.0997  0.0849 -0.1268
30848W        W45979  14.199  16.534   1.642  0.2366 -0.1499 -0.2494
30849W        W45980  11.695   1.081  15.157  0.3043  0.1733  0.0416
30850W        W45981  15.395   0.574  14.803 -0.0882 -0.1985  0.0525
30851W        W45982  10.688   6.934   2.212 -0.0959 -0.0236 -0.0949
30852W        W45983   4.023  14.646  16.318 -0.1898 -0.0791 -0.0431
30853W        W45984  11.689  17.571  14.460  0.2133 -0.1552 -0.1101
30854W        W45985  12.504   7.991  13.258  0.1500  0.0218 -0.1312
30855W        W45986   2.742  12.666  12.958 -0.2746 -0.0591  0.0787
30856W        W45987  14.855   4.438   4.771 -0.0055  0.1805 -0.1332
30857W        W45988   2.051   3.213   2.164  0.1020 -0.0472 -0.1218
30858W        W45989   7.402  15.156   2.579  0.0854  0.1249  0.2019
30859W        W45990  16.957  15.870   4.651  0.4402 -0.1131  0.1112
30860W        W45991  10.692  10.926   5.114  0.0126 -0.0754 -0.2558
30861W        W45992  12.013   3.528   1.338 -0.1085 -0.1374 -0.2712
30862W        W45993   1.547  10.528  11.546  0.1174 -0.1776  0.0274
30863W        W45994  14.713  17.149   2.239  0.0225 -0.0379  0.1886
30864W        W45995   1.385   4.222   5.101  0.0225  0.1505  0.1144
30865W        W45996   0.233  12.408  14.854 -0.0446 -0.1893 -0.0457
30866W        W45997   0.121   2.112   4.529  0.0719 -0.0231 -0.2839
30867W        W45998   8.346   5.069   3.640 -0.1127  0.0343 -0.3651
30868W        W45999   2.028   6.012   2.268  0.0244  0.2510  0.1136
30869W        W46000  12.819   9.682   2.662  0.2609 -0.1372  0.0612
30870W        W46001  10.817   9.504  14.819 -0.0979 -0.2116  0.1476
30871W        W46002   5.503   8.436   0.652  0.2195  0.1799  0.2954
30872W        W46003  17.076   2.553   3.991  0.2147 -0.1422 -0.0674
30873W        W46004   5.178   7.704   3.497  0.2039  0.2265  0.1179
30874W        W46005  11.599  16.154   0.982 -0.0139 -0.1584  0.1982
30875W        W46006   4.119   3.604  16.268 -0.0930 -0.0904  0.1420
30876W        W46007   7.121  16.276   0.752  0.1647 -0.1577  0.1339
30877W        W46008   2.025  11.240   0.827 -0.2143 -0.3844  0.0846
30878W        W46009  13.122  15.133  15.575  0.1667  0.0255  0.2512
30879W        W46010  16.060   8.797   4.373 -0.1862 -0.1737  0.2606
30880W        W46011  10.834   7.960   5.082  0.0755 -0.2087  0.1410
30881W        W46012   2.732   2.159  12.944  0.5908  0.2581  0.0236
30882W        W46013   4.233   2.916  12.702 -0.2209  0.3676 -0.0534
30883W        W46014   9.871   9.794  13.667  0.0672 -0.0083 -0.2808
30884W        W46015  14.543   8.162  15.405  0.3229  0.0925 -0.0519
30885W        W46016   6.275   1.863  14.215  0.0963  0.1560  0.2721
30886W        W46017  16.616   2.043   5.275  0.3873 -0.1616  0.1710
30887W        W46018   6.504   1.659  14.649 -0.0682  0.2252 -0.2002
30888W        W46019  10.605   6.459  14.059 -0.0586 -0.2780  0.1496
30889W        W46020   6.213   4.381  12.150  0.0565  0.0008  0.0066
30890W        W46021  17.990   4.206  13.847  0.0432  0.1684  0.1028
30891W        W46022  17.994   2.408   0.643  0.4758 -0.2154  0.2761
30892W        W46023   8.574   5.959   2.873  0.1377 -0.0760 -0.3427
30893W        W46024   2.073   4.592  10.763  0.1601  0.0789 -0.4826
30894W        W46025  14.856  12.127   4.987 -0.1249  0.1608 -0.2949
30895W        W46026   7.635  12.988   1.002  0.0512 -0.1545  0.2199
30896W        W46027   7.441  12.075   1.471  0.1422 -0.0140 -0.0158
30897W        W46028  15.428   4.188   3.660 -0.0241 -0.0692 -0.0031
30898W        W46029   4.240  15.578  12.272 -0.0244 -0.1196 -0.2958
30899W        W46030   7.950   4.827  12.493  0.3361 -0.1158 -0.0888
30900W        W46031   9.176   9.625   0.982  0.1194  0.2615  0.0020
30901W        W46032   4.070  17.798  11.001 -0.0846 -0.1117  0.5143
30902W        W46033  11.890   3.054   1.527  0.2255 -0.2516  0.0210
30903W        W46034   3.688   1.058   2.571 -0.3592 -0.2144 -0.0979
30904W        W46035   1.855  10.421   3.444  0.1566 -0.1267  0.0315
30905W        W46036   5.793  13.244  15.162 -0.2441 -0.0145 -0.0420
30906W        W46037   7.354   1.604  15.313  0.3260 -0.2009 -0.2217
30907W        W46038  14.397   9.825  13.728  0.0538 -0.1491 -0.0501
30908W        W46039   1.036  18.003   0.080 -0.0459 -0.0434 -0.2390
30909W        W46040   2.503   2.838   4.343 -0.4176 -0.1125 -0.1378
30910W        W46041  11.125  14.960  13.589 -0.2488  0.3333  0.1802
30911W        W46042  15.145   0.930   1.465 -0.2597  0.0360 -0.1483
30912W        W46043  16.156   8.958  15.621 -0.2899 -0.2152  0.0597
30913W        W46044  15.286  11.147   3.898 -0.0705  0.0012 -0.1676
30914W        W46045  13.297  14.631   3.099 -0.0283  0.2371 -0.0239
30915W        W46046  14.025   5.565   2.811 -0.1446  0.0770  0.1780
30916W        W46047  11.889  12.855  12.870  0.1878  0.4802 -0.0844
30917W        W46048   3.725   6.003  14.440  0.0654  0.3263  0.1418
30918W        W46049  10.260   8.502  14.391  0.0231  0.1447  0.1967
30919W        W46050   5.577  13.376   3.267  0.0006 -0.0381  0.0050
30920W        W46051  15.868   9.387   0.173 -0.1918 -0.1099  0.0732
30921W        W46052  11.255  12.941   0.841 -0.1668 -0.1300  0.0445
30922W        W46053  12.943  13.175  11.108 -0.0870 -0.3427  0.0996
30923W        W46054   3.590  13.674  12.667 -0.1394  0.1979  0.2411
30924W        W46055  16.220  15.565  12.339  0.0172  0.1282 -0.1045
30925W        W46056   3.851  15.617  15.043  0.1384  0.1804 -0.0617
30926W        W46057  14.687  17.978   4.247  0.2374 -0.3134 -0.2779
30927W        W46058   0.004  14.544  13.029  0.2164  0.0152  0.1895
30928W        W46059   3.993   7.517   5.221  0.0902  0.3047 -0.3866
30929W        W46060  14.084   8.916  11.433 -0.0136  0.0319  0.1702
30930W        W46061  14.423   1.335  13.226  0.0557 -0.0067 -0.1098
30931W        W46062   3.375   9.904  14.527 -0.0061  0.1590  0.0123
30932W        W46063   4.078   6.105   3.430 -0.1006  0.3322 -0.3190
30933W        W46064   2.992   3.107   5.576  0.0182  0.1905  0.4880
30934W        W46065   4.677  17.861  10.959 -0.0585 -0.0969 -0.2417
30935W        W46066   5.402  14.129  12.857  0.1440 -0.0876 -0.1071
30936W        W46067  15.955   8.820  11.724 -0.1977  0.2446 -0.2086
30937W        W46068   7.620   0.823   0.579  0.1732 -0.3938  0.0296
30938W        W46069  16.851  13.231   2.526  0.0768  0.4032  0.1171
30939W        W46070  16.129   5.898  16.057  0.0223 -0.1536  0.1520
30940W        W46071   7.856  14.142  11.176 -0.3793 -0.0232 -0.2628
30941W        W46072  12.884  11.552  14.335  0.0170  0.0451 -0.2573
30942W        W46073  17.197   3.754   2.475  0.1084  0.1248 -0.2089
30943W        W46074   9.230  12.322   1.862  0.0475 -0.1746  0.1275
30944W        W46075   4.135   1.190   2.825 -0.1439 -0.1899  0.1205
30945W        W46076   1.846   7.476   0.178  0.2851 -0.1946  0.0609
30946W        W46077   7.245  15.250   3.068 -0.5340  0.0019  0.2348
30947W        W46078   6.084   7.765  15.644  0.1821 -0.0448 -0.3237
30948W        W46079  11.985   3.272  12.205  0.1757 -0.1707 -0.0692
30949W        W46080   2.716  16.970   1.236  0.3067  0.2120 -0.2237
30950W        W46081  14.223  17.704   1.296  0.0449 -0.1399  0.2174
30951W        W46082   8.467  13.757  13.656 -0.1471  0.1437  0.2697
30952W        W46083   1.078  14.020  16.390 -0.0080 -0.1030  0.1946
30953W        W46084  10.449  12.971   3.603 -0.0328  0.0433  0.0898
30954W        W46085  13.703  13.657   1.070  0.2055 -0.0446 -0.2659
30955W        W46086   4.781   6.777  16.067  0.1631 -0.3154  0.0445
30956W        W46087   0.779   8.787  13.446  0.0708 -0.2045  0.0994
30957W        W46088   9.673  12.139  15.227  0.1274  0.0117 -0.1849
30958W        W46089   4.984   4.410   4.108  0.0073 -0.0924 -0.0696
30959W        W46090  16.880  10.467  16.447  0.0213  0.2292  0.3978
30960W        W46091   9.196   4.150  14.847  0.1630 -0.0193 -0.0610
30961W        W46092  15.029   2.648   1.596  0.1604 -0.1818 -0.1372
30962W        W46093   7.347   0.011   0.548 -0.0341  0.1437 -0.0163
30963W        W46094   0.508   9.774   5.063 -0.1899 -0.1335  0.1309
30964W        W46095   0.731   7.852  14.478  0.1158 -0.0160 -0.1371
30965W        W46096  13.517   2.285  15.782 -0.1560 -0.0448  0.0991
30966W        W46097  14.183  12.831   4.021 -0.0783 -0.0619 -0.0685
30967W        W46098   7.362   5.750  11.162 -0.3354  0.1637  0.0530
30968W        W46099  15.698   8.145  11.569  0.0267 -0.1145 -0.0086
30969W        W46100  15.126  10.347  16.054  0.0326  0.1239  0.0651
30970W        W46101  13.656   8.136   0.997  0.0909 -0.1295  0.0652
30971W        W46102   3.221   3.834   0.376 -0.3848 -0.0054  0.0642
30972W        W46103  13.445  17.052  15.992  0.1914 -0.2243  0.2011
30973W        W46104   7.525  17.255  15.926 -0.0660 -0.1019 -0.1000
30974W        W46105  16.821   9.615  13.474 -0.1393  0.3325  0.3219
30975W        W46106   9.116  11.855   1.132  0.2865  0.3343  0.2375
30976W        W46107   5.415  16.046   0.266  0.3225 -0.0877  0.2289
30977W        W46108  13.842   1.258   0.739 -0.0124 -0.1127 -0.0153
30978W        W46109   3.354   7.437   3.593 -0.1567 -0.1303 -0.1035
30979W        W46110   2.938   4.785  13.584 -0.1018 -0.0489  0.0886
30980W        W46111  11.196  13.981  12.646  0.3909  0.3171  0.0613
30981W        W46112   4.596   1.327   4.688 -0.0922 -0.0671  0.1402
30982W        W46113   0.752  11.011  12.068 -0.1111  0.3676 -0.0707
30983W        W46114  10.416   4.833  15.318 -0.1179 -0.2072 -0.0337
30984W        W46115   3.446   7.736   6.204 -0.4066  0.0291  0.0671
30985W        W46116  10.201  16.954   0.042  0.0474 -0.0459 -0.1902
30986W        W46117  10.237   1.417  12.015  0.2803 -0.2595  0.0329
30987W        W46118   1.421   9.821  15.347  0.1391 -0.1960 -0.2331
30988W        W46119  15.387   1.821   0.171  0.1502  0.0822  0.0105
30989W        W46120  16.750  17.253   1.007  0.1965  0.4596 -0.1452
30990W        W46121   1.385   9.417   4.701  0.1472 -0.0521 -0.2259
30991W        W46122  12.872  16.225   3.299  0.2427  0.1108  0.0454
30992W        W46123   4.205  15.984  13.284 -0.0172 -0.1907  0.5660
30993W        W46124  13.423   2.035   0.151 -0.1484 -0.0340 -0.1271
30994W        W46125  11.207   0.457   4.180 -0.1669 -0.0801  0.1082
30995W        W46126   4.752   6.277  15.984 -0.0997 -0.3021 -0.1736
30996W        W46127   0.297   0.014   5.389 -0.2762  0.1567  0.0612
30997W        W46128   1.193   8.086  12.442  0.0948 -0.0037 -0.0277
30998W        W46129   7.586  13.846  12.143 -0.1337 -0.0237  0.1276
30999W        W46130   6.290  11.451   4.778 -0.2366  0.1484  0.2519
31000W        W46131   1.482   6.992   1.382 -0.0837  0.0206  0.0352
31001W        W46132   4.646   0.917   2.890  0.0287  0.1785 -0.4775
31002W        W46133   4.070   1.876   0.777 -0.0295  0.1068  0.0347
31003W        W46134  12.111  14.765  11.011  0.0833 -0.1375 -0.1813
31004W        W46135  16.491  14.641   5.349 -0.1059  0.0032  0.2118
31005W        W46136  15.042   7.756  11.212  0.1830 -0.1511  0.0013
31006W        W46137   4.991  17.585  11.259  0.1274 -0.1696  0.1114
31007W        W46138   2.540  12.302   0.262 -0.1631  0.0921  0.1438
31008W        W46139   7.855  16.291   0.812 -0.0987  0.0638 -0.0829
31009W        W46140  16.052   9.466  12.438 -0.1495 -0.0205 -0.1695
31010W        W46141  13.685   1.897  12.007  0.4144  0.0143 -0.2057
31011W        W46142   9.920  12.238  13.672  0.1109 -0.2002 -0.2376
31012W        W46143   0.320  17.201  10.672  0.0892 -0.1780 -0.0342
31013W        W46144  18.077  15.008   4.338 -0.0178  0.2508  0.1300
31014W        W46145  16.559   4.290   5.030 -0.0396 -0.0213  0.2249
31015W        W46146  13.365  14.751   2.620 -0.2611  0.1805 -0.2178
31016W        W46147  12.006   1.380   0.816 -0.1819  0.2681 -0.1524
31017W        W46148  12.544   1.295   2.397 -0.0733  0.1199  0.1420
31018W        W46149   6.307  13.264  13.273  0.1427 -0.1535 -0.1678
31019W        W46150   2.165   9.269   0.885 -0.0262 -0.1249 -0.1740
31020W        W46151   9.160   4.139   0.365  0.2421  0.2691 -0.2396
31021W        W46152  11.767   2.213   0.506 -0.3100 -0.2059  0.1949
31022W        W46153   4.009   8.200   1.465 -0.0899 -0.3138  0.0114
31023W        W46154   6.407   3.046  13.764 -0.3114 -0.0140  0.2971
31024W        W46155  12.944   8.089   4.266  0.0983  0.0366 -0.0474
31025W        W46156   2.776   7.176   3.823 -0.2557 -0.2141  0.0216
31026W        W46157   2.334   6.941   1.163  0.0129  0.2626 -0.1537
31027W        W46158   6.490  11.037   4.471  0.1783 -0.0862 -0.3795
31028W        W46159  17.412  16.852   0.344  0.0120  0.0553  0.1108
31029W        W46160  11.809   2.373  12.161 -0.2335 -0.0779  0.0036
31030W        W46161  14.672   0.588  14.369 -0.3181  0.1142 -0.0264
31031W        W46162   6.588  15.155  15.098  0.0228  0.2104 -0.0441
31032W        W46163   4.413   1.531  13.784  0.0788 -0.0441  0.0631
31033W        W46164   0.586   4.897   4.713 -0.1040  0.0148 -0.0888
31034W        W46165   7.090   6.700   0.143 -0.4079  0.2133 -0.0904
31035W        W46166   6.791   3.424   3.326 -0.1154 -0.1870 -0.0534
31036W        W46167  12.786   6.641  14.220 -0.0125  0.0397 -0.0037
31037W        W46168   8.342   4.031  11.831 -0.0317 -0.0415  0.0420
31038W        W46169   2.846  17.498  14.600 -0.1375  0.1634  0.2597
31039W        W46170  14.624   5.210   5.333  0.0810  0.0224 -0.1498
31040W        W46171   2.982   2.553   0.676  0.0631  0.0036  0.0213
31041W        W46172   8.906   6.650  15.729 -0.1832  0.1423  0.0433
31042W        W46173   3.018  12.505  12.007 -0.0916  0.1493  0.0006
31043W        W46174   3.607  13.970   4.018 -0.1199  0.3676 -0.0109
31044W        W46175   1.178   9.888  13.206 -0.0291 -0.2248  0.3251
31045W        W46176   9.492  10.425  10.464 -0.3723 -0.2501 -0.1287
31046W        W46177  16.096   4.499   0.864 -0.2283 -0.1578  0.0204
31047W        W46178   4.477   5.804  11.537  0.2432 -0.0827  0.0431
31048W        W46179  11.849  17.256  12.545 -0.0909 -0.0817  0.0445
31049W        W46180  17.827   0.517   4.052 -0.0474 -0.0020 -0.1395
31050W        W46181  12.038   0.664  13.075  0.4738 -0.2243  0.0435
31051W        W46182  14.110   1.988  14.337  0.0825  0.2929  0.0930
31052W        W46183   9.179   7.021  13.711  0.1627  0.0137 -0.0317
31053W        W46184  11.916  11.284  10.261  0.1323 -0.2842  0.0915
31054W        W46185   5.303   3.484   4.295  0.3899 -0.0931  0.3544
31055W        W46186   7.053  12.934   3.462 -0.0467  0.0281  0.0971
31056W        W46187   0.092   0.338   4.435  0.3116  0.0675 -0.0989
31057W        W46188   4.197   8.157   4.454 -0.1584  0.0356  0.0196
31058W        W46189   7.193   4.110   5.309  0.1766 -0.0216 -0.1070
31059W        W46190  18.056   3.829   0.238  0.1003  0.0275  0.2246
31060W        W46191  11.805  11.054   0.054 -0.0469 -0.3932 -0.1051
31061W        W46192  18.065   3.075   2.822  0.3592 -0.1986  0.1622
31062W        W46193   9.846  15.908  11.465 -0.3780  0.1292 -0.2196
31063W        W46194  12.582  15.613  13.266 -0.0902  0.1124  0.1610
31064W        W46195  14.149  12.385  13.992  0.1995 -0.1651  0.2698
31065W        W46196  11.963   1.947   0.134  0.2007  0.1428  0.1213
31066W        W46197   9.955   2.876  10.400  0.0528  0.0691 -0.1567
31067W        W46198   6.007   4.132   4.950  0.0489 -0.1380  0.1002
31068W        W46199  13.471  11.587   5.586 -0.1556 -0.2273  0.0500
31069W        W46200   4.966   4.676  14.475 -0.0486 -0.1100  0.1082
31070W        W46201  12.224  12.371  13.374 -0.1092  0.1607  0.1901
31071W        W46202  17.476   7.015   3.007  0.1595 -0.3078  0.0816
31072W        W46203  11.713  15.087   0.090  0.3337 -0.0089  0.5869
31073W        W46204  16.581  14.832  13.788 -0.2750  0.3192  0.2606
31074W        W46205   9.090   0.225   1.445  0.0627 -0.2632  0.1899
31075W        W46206   7.638  15.234  13.035 -0.1526  0.0757 -0.0377
31076W        W46207  12.772  17.104  15.541 -0.0995 -0.0475  0.1244
31077W        W46208   6.812  16.920  11.998  0.0917 -0.1047  0.1143
31078W        W46209   8.883  12.738   4.121 -0.0963 -0.0151 -0.0788
31079W        W46210   7.482   5.546   1.841  0.0154 -0.1467 -0.1592
31080W        W46211  10.472   2.146   3.118 -0.1798  0.0850 -0.2241
31081W        W46212  10.548   6.794  12.893  0.3095  0.1201 -0.2522
31082W        W46213   1.989   2.752   5.610 -0.0045 -0.0679  0.1563
31083W        W46214  11.504   1.504   3.774  0.1071  0.1128 -0.2153
31084W        W46215   2.289   8.174   3.583  0.2726 -0.0594 -0.0850
31085W        W46216  10.213  15.195  13.975  0.0246  0.1604 -0.3164
31086W        W46217  15.087  13.736  12.080 -0.3417 -0.1429 -0.1258
31087W        W46218   2.513  14.282   2.773 -0.1127  0.1128  0.1247
31088W        W46219   6.229   8.880   2.991 -0.2282 -0.3245 -0.3366
31089W        W46220  11.060  12.754   3.562 -0.0357  0.1923 -0.3123
31090W        W46221   1.562   4.072   1.176 -0.0299  0.1756 -0.2104
31091W        W46222   1.488  15.843  15.154 -0.0663 -0.1282  0.0375
31092W        W46223  14.846   5.057   2.600  0.0210 -0.4135  0.0448
31093W        W46224  11.838   4.228   0.320  0.3098 -0.4098 -0.1119
31094W        W46225  17.400   9.741   4.229  0.0960  0.0341 -0.0056
31095W        W46226   1.572  15.052   4.921  0.1329 -0.0343  0.3716
31096W        W46227   4.500  17.821  11.885  0.2780  0.1159 -0.0513
31097W        W46228  16.309  10.015  13.287 -0.0530  0.2970  0.0369
31098W        W46229  16.546  10.143  16.085  0.1232 -0.1491 -0.0011
31099W        W46230  13.011   1.294   3.766  0.0755 -0.1448 -0.4156
31100W        W46231   2.053   7.934   2.088 -0.0989 -0.1140  0.0421
31101W        W46232   1.600   5.305   4.032  0.3411 -0.0989 -0.1473
31102W        W46233   7.823  14.699   2.282 -0.2897 -0.1635 -0.2874
31103W        W46234  12.232  12.739  14.271 -0.0612 -0.1476 -0.0573
31104W        W46235  16.866   8.361  13.780  0.1460 -0.2937  0.0233
31105W        W46236   8.211   2.510  13.189  0.0168  0.2732  0.0413
31106W        W46237   3.438   4.912  16.321 -0.1000  0.4069  0.1698
31107W        W46238   9.732  12.863  14.151  0.0129 -0.2933 -0.2113
31108W        W46239  14.858   4.809   5.125 -0.1673 -0.0872  0.1833
31109W        W46240   4.575  11.871  13.460  0.2230 -0.0001 -0.0581
31110W        W46241  16.510  15.029   3.346  0.1286 -0.0640 -0.1004
31111W        W46242   4.490  17.335  14.836  0.1355 -0.0662  0.0241
31112W        W46243   5.297  14.572  12.592  0.0403 -0.0003 -0.2324
31113W        W46244  13.339  14.078   5.977 -0.3365 -0.1393 -0.0687
31114W        W46245  13.048  10.330  12.023 -0.0270  0.0071 -0.0588
31115W        W46246   4.898  13.656  15.544 -0.1773 -0.0468 -0.1449
31116W        W46247   1.541   2.921   5.133  0.0609 -0.2283  0.2443
31117W        W46248   5.313   0.764  12.096 -0.3384 -0.2038 -0.0018
31118W        W46249   0.470   0.144   3.170 -0.3240 -0.1462 -0.0711
31119W        W46250   9.977   4.002  13.511  0.1846 -0.1008  0.1406
31120W        W46251   9.937   8.175  16.254 -0.1295  0.1758  0.0485
31121W        W46252  17.359  10.730   4.064  0.0944  0.0157  0.0331
31122W        W46253   4.540  13.301  15.582 -0.0381  0.1741  0.0405
31123W        W46254   0.769   0.701  15.630  0.0046 -0.0374 -0.3019
31124W        W46255   5.489  12.643  14.402 -0.0387  0.0431  0.0900
31125W        W46256   0.826   6.751  11.628 -0.3196  0.0599 -0.3403
31126W        W46257   1.914   9.737   4.034  0.4143  0.0817  0.0708
31127W        W46258   4.865  15.263  13.472  0.0414 -0.2731  0.0994
31128W        W46259  12.639  11.477   0.179  0.1592 -0.1748 -0.0797
31129W        W46260   3.539  16.223   2.960  0.3488  0.3306  0.0640
31130W        W46261   2.317   4.361  12.149 -0.0216  0.0045  0.0194
31131W        W46262   0.372  17.858  11.888  0.0144  0.1252 -0.1769
31132W        W46263   8.368   6.833  11.384  0.0710  0.0067  0.0396
31133W        W46264   1.638   0.907   5.197  0.3220  0.0494  0.3223
31134W        W46265  11.633   9.280   0.757  0.2791  0.2015 -0.0034
31135W        W46266   3.510  13.560  11.863 -0.2556  0.1620 -0.2973
31136W        W46267  10.707   7.345  16.119  0.0547  0.0360 -0.0017
31137W        W46268   8.359  15.827   4.324  0.1169 -0.1111 -0.1444
31138W        W46269  17.886   0.121   5.260 -0.0023  0.0861 -0.4825
31139W        W46270  16.769   4.622  13.952 -0.2894  0.1871  0.0886
31140W        W46271  12.238  13.315  14.478  0.0220 -0.0892 -0.2355
31141W        W46272   5.857   6.710   1.601 -0.0900 -0.3902 -0.0593
31142W        W46273   9.578   3.821  15.178  0.0663 -0.2015  0.3458
31143W        W46274   4.062   5.009  11.413  0.2841  0.0373  0.1291
31144W        W46275  11.347   2.352   1.010 -0.2020  0.0470 -0.2710
31145W        W46276   4.935   0.781  11.823  0.0029  0.0351  0.3007
31146W        W46277   4.315  11.329  15.868  0.2003 -0.2098  0.1498
31147W        W46278   8.337   5.744  14.638 -0.0328 -0.3537 -0.0337
31148W        W46279   2.520   9.772   0.339  0.2656 -0.1637  0.0087
31149W        W46280   9.025   8.886   1.908 -0.2984  0.1553 -0.0322
31150W        W46281   0.262   1.292   2.048  0.2323  0.2699 -0.0870
31151W        W46282  12.092   6.047   1.084  0.3332  0.1965 -0.0018
31152W        W46283   8.060   9.415   2.734  0.3289 -0.0017 -0.0379
31153W        W46284  16.934   4.159  11.261  0.1932 -0.1538  0.2624
31154W        W46285  17.090  15.697  13.510  0.1548  0.0994  0.2227
31155W        W46286   4.481  10.410  16.031 -0.2422 -0.1714 -0.0602
31156W        W46287   9.265   4.717   5.929  0.0778 -0.2641 -0.0149
31157W        W46288   0.139  14.849   3.842  0.2708 -0.0588  0.1144
31158W        W46289  14.136  15.520   4.976  0.1628 -0.1904 -0.0170
31159W        W46290  17.705  15.341   0.730  0.2341  0.1487 -0.2287
31160W        W46291   8.561   0.112   1.514 -0.3251  0.2439  0.0023
31161W        W46292   3.009  11.939   1.539  0.1700 -0.1097 -0.0925
31162W        W46293   5.248   3.504  12.023  0.1613  0.1804 -0.0295
31163W        W46294  14.923   9.146   0.946 -0.1041 -0.0286  0.0936
31164W        W46295  17.154  17.687  13.669  0.2100  0.0367 -0.1935
31165W        W46296  14.963   2.965   2.407  0.2026 -0.1816  0.0851
31166W        W46297   5.203  15.771   5.660 -0.1355  0.0406  0.0239
31167W        W46298   8.416   0.593   1.537 -0.0482 -0.3489  0.0935
31168W        W46299  16.121  11.795  12.692  0.2553  0.1855 -0.3470
31169W        W46300   5.308   5.122  14.172  0.0980  0.1099  0.1057
31170W        W46301   0.857  14.251   5.140  0.0142 -0.1129 -0.0046
31171W        W46302   8.351  15.183   4.995 -0.2293  0.5006 -0.1300
31172W        W46303   2.631   1.713  12.203  0.1337  0.0530 -0.1583
31173W        W46304   1.892   3.206  13.964  0.0300 -0.0814  0.0990
31174W        W46305   6.228   3.533   4.221 -0.0163 -0.4188  0.0604
31175W        W46306   8.839  10.403   0.541 -0.2537 -0.1361  0.0755
31176W        W46307   8.343   8.281  11.452 -0.0044 -0.1418 -0.0318
31177W        W46308  10.220   9.075  16.419  0.1892 -0.1025  0.0565
31178W        W46309   0.228  13.142  15.955  0.0406 -0.1612  0.1411
31179W        W46310   6.096   5.654   4.105 -0.1042  0.1631 -0.0965
31180W        W46311  13.954  13.192   1.952  0.3191 -0.0978 -0.2384
31181W        W46312   3.387   7.140   1.160 -0.2652  0.3021  0.2213
31182W        W46313   5.328   9.952   2.652  0.0451 -0.0191 -0.0661
31183W        W46314   0.085   7.148   5.506  0.1754 -0.3394 -0.1315
31184W        W46315   7.243   8.007   4.320 -0.0167 -0.2175  0.1080
31185W        W46316  11.170   8.731  15.907  0.2409 -0.2960 -0.0499
31186W        W46317  14.388  15.835   5.431 -0.0908 -0.1659 -0.1146
31187W        W46318  11.728   9.069   4.809 -0.1777  0.1949 -0.1780
31188W        W46319   6.025  11.441   3.254 -0.1102  0.1675 -0.1126
31189W        W46320   3.968   1.492  12.326  0.1140  0.1304  0.1061
31190W        W46321   5.277  11.761  16.272  0.0183 -0.1768 -0.3184
31191W        W46322  15.637  17.160   3.938 -0.1589  0.0857 -0.0437
31192W        W46323   6.001   9.290  15.534  0.0838  0.2261 -0.1953
31193W        W46324  17.005  11.498   3.921  0.1072 -0.1712 -0.1272
31194W        W46325   2.226   1.157   1.232  0.0553  0.1116 -0.1071
31195W        W46326   5.933  11.247  14.731 -0.0455  0.0219  0.0372
31196W        W46327   4.970  12.712  11.214  0.3135 -0.1624 -0.4460
31197W        W46328  10.658  16.868  15.607 -0.2288 -0.0070  0.0818
31198W        W46329  17.047   9.069   0.722 -0.1079  0.0706 -0.1612
31199W        W46330  15.810   8.609   5.234 -0.1890  0.2948 -0.0221
31200W        W46331   6.770   3.951  11.029  0.1841 -0.0955  0.0389
31201W        W46332  16.823  15.044   4.691 -0.0344 -0.1091  0.1315
31202W        W46333   2.365   0.944   4.494  0.3199  0.1499  0.3580
31203W        W46334  15.856  10.569  10.765  0.0029  0.3685  0.0835
31204W        W46335  12.987   6.331   5.862  0.2717  0.2993  0.2653
31205W        W46336  11.949   0.428   0.120  0.2455 -0.1946 -0.3411
31206W        W46337   2.646   7.157  14.274  0.1381  0.0808  0.2740
31207W        W46338   5.754   0.088   4.897  0.2094  0.0311 -0.2344
31208W        W46339   7.046  12.638  13.161 -0.1924  0.1782  0.0238
31209W        W46340   9.826   5.948   4.667 -0.1206 -0.2630 -0.0620
31210W        W46341   8.454  10.816  12.985  0.1456  0.3805 -0.0307
31211W        W46342  12.841   7.565  13.124 -0.0726 -0.0594  0.2073
31212W        W46343   7.151   0.580  12.715  0.1173  0.0874  0.1854
31213W        W46344  15.226   8.189   0.883  0.0135  0.1489  0.1467
31214W        W46345   1.015  15.141   3.497  0.0274  0.2125 -0.1828
31215W        W46346  13.835  10.190  14.231 -0.2364 -0.2587  0.0095
31216W        W46347  10.778  13.892  14.033  0.1375 -0.2791  0.1440
31217W        W46348   7.969   7.850   4.915  0.1241  0.2710 -0.1928
31218W        W46349  17.289   9.435  13.617 -0.1608 -0.1433 -0.0315
31219W        W46350   2.470  10.132  13.621 -0.0632  0.0229 -0.2119
31220W        W46351   7.673  13.481  13.068 -0.2626  0.1376 -0.3756
31221W        W46352   7.942   8.481  13.295 -0.0576  0.3186  0.0574
31222W        W46353   2.793   1.507  15.191 -0.3472  0.0697 -0.0184
31223W        W46354  11.224  16.372   3.894  0.1272  0.2942  0.1556
31224W        W46355  12.993  12.004   6.442 -0.1746 -0.3034  0.2653
31225W        W46356  15.095   8.696  12.264  0.3259  0.0072 -0.0565
31226W        W46357   3.214   7.024  11.697  0.1792  0.0517  0.0517
31227W        W46358   3.697  15.426   2.611  0.1793  0.0995 -0.0247
31228W        W46359  12.243  11.993  13.767 -0.2582  0.1202 -0.0243
31229W        W46360   2.364   9.962   4.086  0.0550 -0.1630  0.1232
31230W        W46361   4.956   6.872   0.222 -0.0128  0.1557  0.1211
31231W        W46362  10.380  16.862  11.252  0.2880  0.2970  0.0307
31232W        W46363   9.752  10.582  15.792 -0.0566  0.4427  0.1193
31233W        W46364   7.430   9.998  15.126  0.0043  0.0722 -0.0354
31234W        W46365  11.418  17.559   1.867 -0.2126 -0.0276 -0.2499
31235W        W46366  14.830   8.408   4.160 -0.1348 -0.3704 -0.4070
31236W        W46367   1.659  17.541  12.509  0.0148  0.0276 -0.0393
31237W        W46368   5.428   3.775   2.821 -0.0814  0.2717 -0.2485
31238W        W46369  16.425   0.669  11.567  0.4294  0.1341  0.3050
31239W        W46370  17.388   6.062   3.091  0.0464  0.0470  0.2103
31240W        W46371  15.139   0.956  12.063  0.0349  0.0404  0.3702
31241W        W46372   1.054  14.696   1.877  0.0816 -0.1503 -0.2037
31242W        W46373   2.118   5.855   0.875  0.0396 -0.4142 -0.0224
31243W        W46374  12.875  17.452   4.560  0.3400  0.0900 -0.0938
31244W        W46375  15.521  15.232   2.333  0.0647 -0.1865 -0.1297
31245W        W46376  11.399  16.348  12.510  0.0005  0.0336  0.2150
31246W        W46377  12.579   9.265   4.677  0.3411  0.0093  0.1493
31247W        W46378   4.862   1.605  15.650  0.0090 -0.2044  0.0929
31248W        W46379  10.707   8.419  12.567 -0.2011 -0.2760  0.2431
31249W        W46380   1.288  11.104  13.864  0.1234 -0.2591 -0.3151
31250W        W46381   0.562  17.147  11.855  0.2807 -0.2329 -0.0208
31251W        W46382   2.703   8.397   3.744 -0.0293 -0.3240  0.0221
31252W        W46383   4.803  16.643   3.358  0.4046  0.2761  0.1469
31253W        W46384  14.120  15.032   3.692 -0.2524 -0.0298 -0.0323
31254W        W46385  17.967   7.590  16.254 -0.0760 -0.1680  0.4960
31255W        W46386  17.209   4.517   3.659 -0.0796  0.2154 -0.0675
31256W        W46387  17.818   2.857  11.098 -0.0157 -0.0201  0.0582
31257W        W46388   1.741  15.125  12.474 -0.0396 -0.0646  0.2855
31258W        W46389   5.449   4.712   2.946 -0.0655 -0.0027  0.0527
31259W        W46390  13.184   4.958   3.395 -0.0351  0.0711  0.2466
31260W        W46391   9.866   5.785  13.301  0.0185  0.0910 -0.1059
31261W        W46392  18.045   7.724   4.515  0.0981 -0.0156 -0.0861
31262W        W46393  17.668   1.450   5.544 -0.0036 -0.0377 -0.0601
31263W        W46394  11.023  11.246  15.487  0.2882 -0.3764  0.1873
31264W        W46395   6.655   6.048   0.523 -0.2538  0.0725  0.2710
31265W        W46396   2.699   0.867   4.091  0.3119  0.1048 -0.0355
31266W        W46397  11.612   3.323   5.640  0.1131 -0.1327 -0.0083
31267W        W46398   9.720  13.605  12.893 -0.1416 -0.1167 -0.0690
31268W        W46399  16.972   9.674  15.811 -0.3899 -0.2449  0.2637
31269W        W46400   9.697   1.111   0.742 -0.0293  0.1891  0.0779
31270W        W46401   9.710  17.993  15.708 -0.2111 -0.0618 -0.1992
31271W        W46402   8.386  11.148   3.347 -0.2606 -0.2790  0.0494
31272W        W46403   2.480  13.855  12.532 -0.0096  0.1214  0.0980
31273W        W46404   6.403  11.320  11.121  0.0325 -0.2963 -0.2000
31274W        W46405   6.050   6.178   2.812 -0.2512  0.5149 -0.0785
31275W        W46406   5.359  16.170  10.907  0.0318 -0.2379  0.0826
31276W        W46407  13.125  10.507   2.840  0.1027 -0.1754 -0.0503
31277W        W46408  10.145   8.134   3.729  0.1495  0.0334  0.0691
31278W        W46409   0.234  15.487   5.926  0.2416 -0.2472 -0.1500
31279W        W46410   0.323  11.786  11.358  0.2416  0.0089  0.3519
31280W        W46411  12.541   5.364  15.934  0.1349 -0.2304  0.1783
31281W        W46412   7.281   0.162  15.241 -0.2810 -0.4188  0.1818
31282W        W46413  15.507   1.930  12.559 -0.3009  0.1743 -0.1570
31283W        W46414  14.911   3.118   5.563 -0.1450  0.0547  0.4187
31284W        W46415  17.171   9.316  12.301  0.3939  0.1307 -0.0017
31285W        W46416   9.797  14.442   1.772  0.3798 -0.4057 -0.2685
31286W        W46417   9.511  14.476   5.155 -0.1103  0.4198 -0.1737
31287W        W46418   4.921   8.094  14.547 -0.1136 -0.0953 -0.0131
31288W        W46419  15.684  10.130  14.944  0.0872 -0.2039  0.0392
31289W        W46420   3.873  16.658   3.020  0.0200  0.0588  0.1592
31290W        W46421   8.236   9.088   0.042  0.0646  0.1456 -0.2394
31291W        W46422  17.564   5.393   0.068  0.2055 -0.1725  0.3400
31292W        W46423   7.045   9.567   1.827 -0.1005 -0.0068 -0.0056
31293W        W46424   7.483   6.829   4.115  0.0482  0.1132  0.1644
31294W        W46425   6.990   5.934   4.619  0.1446  0.1922  0.3080
31295W        W46426   7.921  13.340   4.829  0.0351 -0.2012  0.0646
31296W        W46427   2.746   0.139  15.798 -0.3084 -0.2799  0.1253
31297W        W46428   5.434   8.252  13.710 -0.3048 -0.2980 -0.1496
31298W        W46429  11.341   7.732  14.559 -0.0581  0.2038 -0.0020
31299W        W46430  16.675   7.050  15.287 -0.1590 -0.0484 -0.2281
31300W        W46431   8.720   5.445  11.555  0.1976  0.0332  0.0780
31301W        W46432  11.207   3.083   0.304 -0.0232  0.1239  0.0067
31302W        W46433  10.394   3.375   2.136 -0.0743 -0.0223  0.0855
31303W        W46434   4.484  11.307   3.599 -0.0932  0.2227 -0.1035
31304W        W46435   6.191  14.975  16.321  0.3158 -0.2675  0.0553
31305W        W46436   5.002  12.797  13.065 -0.1701 -0.2004  0.3970
31306W        W46437  16.432   1.799   3.063  0.1053  0.0467 -0.0773
31307W        W46438   0.353   4.048   2.924 -0.4974  0.0931  0.2251
31308W        W46439  10.855   2.024  12.864 -0.1716 -0.0616 -0.0182
31309W        W46440  16.454  11.513   5.580 -0.1060 -0.0339  0.0107
31310W        W46441   7.511   1.382  14.523  0.0389  0.1434  0.3346
31311W        W46442   4.624  13.370   0.310 -0.0216  0.1241 -0.1078
31312W        W46443   9.792   3.727   1.878 -0.0830  0.0368 -0.0862
31313W        W46444  18.000   4.239   2.776 -0.0538  0.0400 -0.0649
31314W        W46445   8.617   2.960   0.501 -0.1676 -0.0712  0.2119
31315W        W46446  11.690  12.058  14.581 -0.0135 -0.1412 -0.2624
31316W        W46447  10.741  17.675   2.007  0.2920 -0.1446  0.1909
31317W        W46448  16.954   1.164  13.078 -0.2213 -0.0394 -0.1012
31318W        W46449  17.255   4.916   4.485 -0.0101  0.0713 -0.2026
31319W        W46450  12.848   4.777   4.364  0.1530 -0.2189 -0.1872
31320W        W46451  12.820   4.633  12.264  0.0914 -0.0610 -0.0161
31321W        W46452   8.991   4.879   0.440  0.0181 -0.3268 -0.3279
31322W        W46453  10.110  14.819   1.708  0.0786 -0.0586 -0.0269
31323W        W46454  15.630  12.721  16.229 -0.2572  0.0150 -0.0967
31324W        W46455  17.349   6.153  10.975  0.0324  0.1136  0.0882
31325W        W46456   6.294  10.651   3.546 -0.0223 -0.1869  0.1991
31326W        W46457  11.673  13.925   0.889 -0.0019 -0.2161  0.1523
31327W        W46458   6.152  16.254   2.983  0.0613 -0.0616 -0.2058
31328W        W46459   0.010  17.179   6.013 -0.0978 -0.1685  0.1305
31329W        W46460  16.964  11.210   3.237  0.1200 -0.3128  0.2777
31330W        W46461  16.675   8.535  12.657 -0.3206 -0.2394  0.0646
31331W        W46462   6.673  12.584   4.810  0.0551  0.4393  0.0457
31332W        W46463  13.684  12.089  14.795 -0.0843 -0.0081  0.0691
31333W        W46464  18.087  17.259   5.373 -0.1677  0.0476  0.0904
31334W        W46465  14.818  16.371  15.380 -0.3377 -0.0363  0.1048
31335W        W46466  17.667  15.058  15.076  0.0521 -0.0340  0.0034
31336W        W46467   4.158   0.430  14.469 -0.0603 -0.0579 -0.2421
31337W        W46468   3.566  11.788  14.308  0.1839  0.0245  0.0635
31338W        W46469   0.147  12.675   0.957 -0.0421  0.0062  0.0144
31339W        W46470   8.019  10.132   5.509 -0.0169  0.4130 -0.0713
31340W        W46471   1.406  17.138   1.295  0.1254  0.0861  0.2584
31341W        W46472   7.583  15.643  14.554 -0.1173  0.1162  0.3863
31342W        W46473   9.079  11.106   4.099  0.2299 -0.3636  0.0840
31343W        W46474   8.248   8.953  12.533  0.2361 -0.0798  0.0935
31344W        W46475   7.508  12.456  12.256  0.0166  0.3262 -0.2209
31345W        W46476  17.263   1.656   1.926  0.1669  0.5164  0.2584
31346W        W46477   8.977  17.098  12.179 -0.1356 -0.1194 -0.1716
31347W        W46478   8.513  10.274  11.426  0.1121 -0.0268 -0.0401
31348W        W46479   7.481  13.835   1.497  0.0387 -0.1302  0.2607
31349W        W46480   6.935  14.655  11.128 -0.0469  0.3618  0.2710
31350W        W46481   2.385  12.072   4.164 -0.1490  0.0279  0.2196
31351W        W46482   7.895  12.232   1.475 -0.4728  0.3484 -0.0084
31352W        W46483  12.739  12.788  14.354  0.0343 -0.1146 -0.0455
31353W        W46484   8.157  13.758   4.623  0.2070 -0.1238 -0.1407
31354W        W46485   6.845   0.836  16.257 -0.0560 -0.4693 -0.0368
31355W        W46486   8.550   7.575   0.735  0.1659  0.1863 -0.0906
31356W        W46487  14.081  12.231  12.769  0.0443  0.1204  0.0985
31357W        W46488   5.731   6.468  10.490  0.0354 -0.0811 -0.1032
31358W        W46489   9.502   9.781   3.806  0.1232  0.1375 -0.0577
31359W        W46490  10.097  17.055   2.071  0.0494 -0.0993 -0.2881
31360W        W46491   2.797   9.231   1.836  0.1100  0.1410 -0.0776
31361W        W46492  16.724  11.651  14.820  0.5144 -0.2180  0.2978
31362W        W46493   7.980  10.391   0.802  0.0105 -0.5183 -0.0089
31363W        W46494   2.978   2.272   6.383 -0.1767  0.1478  0.1849
31364W        W46495   5.953   6.763   2.139 -0.0284  0.1222  0.0284
31365W        W46496  14.224  16.013  12.904  0.1329 -0.3856 -0.0973
31366W        W46497  13.341   6.523  14.206  0.4002 -0.1591 -0.0386
31367W        W46498  12.428   4.807   2.973 -0.3460 -0.0806 -0.1412
31368W        W46499  13.245   9.912   4.021 -0.2816 -0.2022  0.0967
31369W        W46500   2.308   6.426   3.924  0.0227 -0.2627 -0.4247
31370W        W46501   5.253  10.679   1.876  0.0759 -0.0566  0.1256
31371W        W46502   6.045   5.451   1.263 -0.0662  0.0972 -0.1587
31372W        W46503  12.147  16.148  11.905 -0.3507  0.4164  0.1495
31373W        W46504  12.410  11.781   4.997 -0.0296  0.3297  0.1105
31374W        W46505   1.378   5.095   2.056 -0.2072 -0.2839 -0.0514
31375W        W46506  17.464   2.596   2.601  0.0362  0.2992  0.1074
31376W        W46507  12.222   2.908  10.690 -0.2389 -0.1531 -0.0859
31377W        W46508  14.182  16.175  14.594 -0.1835 -0.2036  0.0633
31378W        W46509   2.855   2.616  14.110  0.1750 -0.2132 -0.2161
31379W        W46510  12.045   9.341   4.520  0.1262 -0.1497 -0.2505
31380W        W46511   9.585   7.200  16.261  0.2278 -0.0266 -0.1974
31381W        W46512  16.877  12.783   4.556 -0.0303  0.1617  0.5266
31382W        W46513   8.236   8.762  13.970 -0.2380  0.2179  0.0339
31383W        W46514  15.185   3.301   1.578  0.0322 -0.1921  0.0288
31384W        W46515   2.164   8.666   2.324 -0.1669 -0.0950 -0.2276
31385W        W46516  15.374   8.866   4.479 -0.0814 -0.0809 -0.4128
31386W        W46517  16.717   5.485   1.563  0.1361 -0.1005 -0.1362
31387W        W46518   3.553  12.609   4.373 -0.0318  0.0887  0.0836
31388W        W46519   9.363  14.441  12.488  0.0959 -0.3692  0.1895
31389W        W46520   3.197   3.082  14.182  0.3550  0.2133 -0.2126
31390W        W46521  11.659  12.235   4.944  0.0863  0.0017  0.0658
31391W        W46522  12.824  17.027   4.163 -0.4003  0.3079 -0.2418
31392W        W46523   1.013  10.528   2.888 -0.3254  0.1808  0.1610
31393W        W46524  17.393  14.620  11.652  0.3063  0.1066 -0.0712
31394W        W46525   5.256  15.138   3.241 -0.1166 -0.0917  0.0855
31395W        W46526   6.936  10.962  13.231 -0.0058  0.1136  0.2357
31396W        W46527   3.787   6.389  11.123 -0.2864 -0.1038  0.1134
31397W        W46528   0.298  16.896  14.505 -0.2458  0.1921 -0.2569
31398W        W46529   8.008  14.343   1.315  0.1094  0.1569 -0.2308
31399W        W46530  16.674   6.570   3.767 -0.0389 -0.0580  0.0661
31400W        W46531   0.297  10.975   3.137 -0.0674  0.0660  0.0157
31401W        W46532  17.626  16.319  13.077  0.0721 -0.0292  0.1645
31402W        W46533   0.093   5.257  13.632 -0.1309  0.3049 -0.2124
31403W        W46534  17.528  12.383   5.069 -0.0862 -0.0692  0.0954
31404W        W46535  14.394   4.801  11.664 -0.1093 -0.3228  0.1718
31405W        W46536   2.629   8.161  10.395 -0.0410  0.2778 -0.0997
31406W        W46537  18.033   1.763  15.180  0.0005 -0.0257  0.0666
31407W        W46538   8.714  15.372   1.417  0.2164 -0.3078  0.0167
31408W        W46539  13.708   2.716  13.659  0.3229  0.0884 -0.1618
31409W        W46540   7.139   0.153  13.249  0.2356  0.1742  0.1804
31410W        W46541  12.704  13.257   1.850  0.2126  0.0932 -0.1633
31411W        W46542   5.310  11.948  14.649 -0.0537 -0.0922  0.1128
31412W        W46543   7.412  17.169  11.743 -0.0192  0.1726 -0.0358
31413W        W46544   0.555  10.539   2.971 -0.1326  0.0239  0.2077
31414W        W46545  16.262  17.544  16.211 -0.1341  0.2431  0.0705
31415W        W46546  10.951   3.225  11.435 -0.1776 -0.1572  0.0589
31416W        W46547   3.693   3.874  16.142  0.2122 -0.2309 -0.0724
31417W        W46548   9.381   0.739   4.313 -0.0663  0.0899  0.3761
31418W        W46549   0.407   4.679  14.071 -0.2575  0.2477 -0.0000
31419W        W46550  10.572   3.148   4.379 -0.1949  0.0327 -0.2875
31420W        W46551   8.004   7.270   3.474  0.2501 -0.2112  0.0452
31421W        W46552   2.920  14.679   4.631 -0.0568  0.1125  0.1010
31422W        W46553  12.638   2.555  12.602 -0.4408  0.0062 -0.1509
31423W        W46554  14.857  13.472   3.372  0.0011 -0.1843  0.1563
31424W        W46555   2.125  11.250  11.141 -0.0629  0.0154 -0.2319
31425W        W46556  11.542   8.235   4.362  0.1266 -0.2332 -0.2595
31426W        W46557   8.468   8.287  11.922  0.0366  0.0401  0.2301
31427W        W46558   7.926  11.545  13.424 -0.0471  0.1675  0.0380
31428W        W46559   9.549  10.228  13.656 -0.1993 -0.0980  0.0646
31429W        W46560   6.582  14.636   2.942  0.2200 -0.0121 -0.1078
31430W        W46561  17.856  13.072   4.439 -0.4592 -0.0681  0.0652
31431W        W46562   1.115  15.101   4.871 -0.1668 -0.0160  0.3037
31432W        W46563  11.161  13.764  14.956 -0.2405  0.1930 -0.2625
31433W        W46564   6.056  13.843   1.175 -0.0130 -0.1773 -0.1446
31434W        W46565  14.417  14.873  15.939 -0.0107  0.1544 -0.0213
31435W        W46566  15.751  12.796   5.232  0.0887 -0.2817  0.1748
31436W        W46567   4.367  11.812  10.068 -0.1931 -0.1040  0.1174
31437W        W46568  10.199   5.622   0.931  0.0701  0.1184  0.3610
31438W        W46569   8.105   4.215  10.848 -0.0592  0.0159 -0.1304
31439W        W46570  14.218   1.858  13.872  0.4163  0.0206  0.0119
31440W        W46571   1.613  11.282  13.071  0.1825 -0.2252  0.3206
31441W        W46572   5.909   1.042  16.312  0.0403  0.0505 -0.0355
31442W        W46573  16.080  15.563  14.290  0.0554  0.0523  0.5250
31443W        W46574  15.363   3.070  15.139  0.0151  0.0771 -0.4319
31444W        W46575   5.834   0.161   5.787 -0.0701  0.1784 -0.0926
31445W        W46576  15.753   9.180  15.195  0.1314  0.0052  0.3125
31446W        W46577   8.355  14.216  15.947 -0.1991  0.1964 -0.3741
31447W        W46578   5.319  14.859   2.355  0.3655 -0.3048 -0.1587
31448W        W46579  11.592   9.236  11.928  0.0887  0.0057  0.0589
31449W        W46580   1.852   5.201   3.328 -0.0292  0.0650 -0.2444
31450W        W46581   8.531   8.517   5.068 -0.0782 -0.1018  0.0461
31451W        W46582  15.019   5.344   4.444 -0.1061  0.3036  0.2953
31452W        W46583   5.640   0.028   3.529  0.0248  0.1094  0.0047
31453W        W46584   6.344   4.061   0.400 -0.1367  0.0065 -0.2685
31454W        W46585   0.190  10.743   5.252 -0.0528  0.1184 -0.0090
31455W        W46586  11.014  14.797  16.162  0.1672 -0.0209  0.3548
31456W        W46587  15.205  15.874  14.563 -0.3176 -0.0497 -0.0679
31457W        W46588   6.321  12.599   4.437 -0.1993 -0.0097  0.3691
31458W        W46589  15.095   9.654   5.280  0.0975  0.1537  0.0208
31459W        W46590   9.001   9.589   2.571 -0.1847  0.1616 -0.1118
31460W        W46591   9.299   4.396  12.675  0.1364 -0.0190  0.0428
31461W        W46592  10.668   6.801  14.427 -0.0860  0.0231 -0.0305
31462W        W46593   4.496  14.188   1.077  0.0784  0.0286  0.0359
31463W        W46594   3.754   5.819  11.554  0.1610 -0.0032 -0.0994
31464W        W46595   9.402  12.206   2.801  0.2753  0.4508 -0.2762
31465W        W46596  11.311   2.358   4.226  0.1476  0.1495 -0.1210
31466W        W46597  15.924   9.231  12.018 -0.1139 -0.2536  0.0881
31467W        W46598   0.084  15.885   3.850 -0.1842  0.3308  0.0827
31468W        W46599  15.662   5.436  12.997 -0.0770 -0.3170 -0.4178
31469W        W46600  12.915   2.432   3.059  0.0721 -0.0777  0.1264
31470W        W46601   8.478   9.914   0.285  0.5410 -0.0991  0.0234
31471W        W46602  17.881  12.481  13.609 -0.1690 -0.3478  0.0627
31472W        W46603   9.532  13.682   4.546  0.1129  0.0064 -0.1076
31473W        W46604  11.598  15.899  14.870  0.0503  0.3112 -0.1343
31474W        W46605  13.486   7.053   1.510 -0.0324  0.0856 -0.3075
31475W        W46606  17.085  14.065   4.860  0.0834 -0.0151 -0.1372
31476W        W46607   2.498   5.412   1.929  0.3208  0.2893 -0.2050
31477W        W46608  16.883   1.298  14.569 -0.2978 -0.0192  0.1279
31478W        W46609   4.798  10.861  13.747 -0.2185  0.0334  0.0152
31479W        W46610   4.991  17.981   5.655 -0.1998  0.0083 -0.1250
31480W        W46611  12.685  12.007   5.406 -0.4037  0.1382  0.0238
31481W        W46612   2.695   7.181  12.264 -0.0720  0.1030 -0.1318
31482W        W46613  12.624   1.756   0.592  0.3230  0.1136 -0.0815
31483W        W46614   2.801  10.788   0.440 -0.2063  0.0788  0.1954
31484W        W46615   0.737   0.156  14.991 -0.3237  0.1159  0.0225
31485W        W46616   2.661   4.040  11.564 -0.0591 -0.0397  0.0178
31486W        W46617  16.208   9.720   2.839  0.0511 -0.0741 -0.0770
31487W        W46618   9.872   5.060   1.279 -0.2881  0.0557 -0.0160
31488W        W46619   3.733   2.215   0.059 -0.2299  0.0353 -0.0267
31489W        W46620   1.139  12.734  11.747  0.1181 -0.0360 -0.1586
31490W        W46621  16.860   2.938  10.858 -0.2374 -0.1054 -0.2493
31491W        W46622   6.775   3.332   0.473 -0.0407 -0.0978  0.1133
31492W        W46623   8.942   3.198   4.380  0.2585  0.0180  0.1667
31493W        W46624   0.363  13.952   1.002  0.0433 -0.0599 -0.0301
31494W        W46625   1.480   0.103   4.216 -0.1571  0.0597 -0.1119
31495W        W46626   6.615   0.196  11.588  0.0724  0.2129  0.2586
31496W        W46627  16.278  13.334  14.731 -0.1862  0.0483  0.0291
31497W        W46628   9.482   9.427  14.320 -0.1805 -0.1856  0.3782
31498W        W46629  14.683   8.905   4.004  0.0742 -0.2721  0.4643
31499W        W46630  15.487  10.392  16.361  0.2601  0.2011  0.0102
31500W        W46631  10.912   4.490   5.160  0.1927  0.1484  0.4432
31501W        W46632   4.126  13.648  15.377 -0.1477  0.1881  0.2055
31502W        W46633   0.411  14.856   1.195  0.1158 -0.1878  0.0518
31503W        W46634   4.047  13.720  10.649  0.1853 -0.1146  0.0453
31504W        W46635  12.957  16.032   5.219 -0.0004  0.1061 -0.1074
31505W        W46636   7.758   3.106   2.095  0.2599  0.2671  0.0928
31506W        W46637  12.025  16.099  15.566  0.2188  0.1670 -0.2258
31507W        W46638   1.765   1.037   1.315  0.3203 -0.2851  0.1432
31508W        W46639  13.586   9.681  14.239 -0.2103 -0.1405 -0.3049
31509W        W46640  11.825  12.250  11.270 -0.0594  0.0144 -0.0360
31510W        W46641  12.082  14.202   4.309 -0.1108  0.1533 -0.0430
31511W        W46642   4.564  15.174   5.677  0.1398  0.1113  0.0240
31512W        W46643   3.280  13.714  11.450  0.2621 -0.0658 -0.3838
31513W        W46644  16.314   8.391  10.872  0.1006  0.2416  0.0298
31514W        W46645  15.992   4.381   3.576  0.2721  0.4240  0.0121
31515W        W46646  16.472  16.018  13.110 -0.1064  0.0907 -0.0825
31516W        W46647  12.964  14.003  14.480  0.0060  0.0612 -0.2537
31517W        W46648  11.177   8.502   1.203  0.1317  0.0106  0.0081
31518W        W46649  12.539  12.487   0.636 -0.1947 -0.3580 -0.3252
31519W        W46650  17.777   8.477  16.006  0.0073  0.1114 -0.2217
31520W        W46651  10.069   7.892  10.947  0.2823  0.1983  0.5376
31521W        W46652   0.912   8.250   3.362  0.1726 -0.0768 -0.2243
31522W        W46653  17.137  15.296   5.528  0.2579 -0.0039  0.1029
31523W        W46654  16.010   7.644   1.557 -0.0601  0.5418 -0.3727
31524W        W46655   4.869  10.505   0.360 -0.1907 -0.0382 -0.0690
31525W        W46656  15.108   8.018   6.259 -0.0226  0.0433  0.0853
31526W        W46657   3.707   7.221   3.229 -0.2313  0.1931 -0.0093
31527W        W46658  13.688   3.193  14.575  0.3184 -0.1578  0.3723
31528W        W46659   3.070   1.967   2.959  0.3375  0.0700  0.0338
31529W        W46660   8.542  14.126  12.463  0.0773 -0.0096  0.1608
31530W        W46661   5.567   3.395   3.821  0.0850  0.1349 -0.1665
31531W        W46662  15.582   9.855   0.000 -0.0287  0.0204  0.2682
31532W        W46663  10.523  12.102  11.551 -0.0360 -0.2419  0.0532
31533W        W46664   5.813  16.342   4.234 -0.1140  0.1117 -0.2404
31534W        W46665   7.718  12.234   3.554 -0.0831  0.2945  0.1994
31535W        W46666   7.911   2.110  14.454  0.3171  0.0910  0.3116
31536W        W46667   2.887   3.527   5.827 -0.1176  0.0097 -0.1573
31537W        W46668   8.205   0.302   5.053  0.0158  0.2134 -0.3806
31538W        W46669   6.437  17.883   3.637 -0.2663  0.0631  0.2219
31539W        W46670  16.509   3.875   3.135 -0.0674 -0.4321 -0.1438
31540W        W46671   8.439  15.702   2.844 -0.0543  0.0618 -0.1435
31541W        W46672   6.543  14.044   4.586 -0.2540 -0.1164  0.1089
31542W        W46673   0.592   2.467  15.322 -0.1088 -0.0849  0.0776
31543W        W46674   2.811   7.860  11.200  0.2743 -0.2295 -0.1501
31544W        W46675   0.924  14.961   1.211 -0.1701 -0.1986 -0.3210
31545W        W46676   2.770  15.041  13.168 -0.2165 -0.0527 -0.2470
31546W        W46677   8.022   7.738   0.055 -0.1181 -0.4960 -0.1248
31547W        W46678  12.931  12.209   0.299 -0.1619  0.0686 -0.0166
31548W        W46679   7.131  14.956   3.494  0.1045  0.1137  0.1486
31549W        W46680  16.763   2.018  12.949 -0.0799 -0.1501 -0.2804
31550W        W46681  17.537   5.734   3.518  0.2909  0.2819 -0.1787
31551W        W46682   9.367   1.172  13.869  0.1434 -0.1076  0.2300
31552W        W46683   5.470   6.301   5.809 -0.0041  0.3241  0.0552
31553W        W46684   9.107   2.757   4.845 -0.1467 -0.1938  0.1458
31554W        W46685   0.653   7.455  14.724  0.2778 -0.0939  0.1997
31555W        W46686   2.253   3.268  13.644 -0.2013 -0.1171 -0.0427
31556W        W46687   9.684   2.932  12.724  0.0094  0.0862  0.1627
31557W        W46688   7.268   0.153   4.857  0.1029 -0.0226  0.2299
31558W        W46689   9.759   1.386  15.999 -0.0560 -0.0615 -0.1782
31559W        W46690   7.624  10.195  14.456 -0.1004  0.2994 -0.0294
31560W        W46691  12.400  10.942   2.806  0.2367  0.2060 -0.1008
31561W        W46692   0.366   4.087  11.525 -0.0092  0.1737  0.0085
31562W        W46693   8.597   8.251  15.049  0.1563 -0.5009  0.4648
31563W        W46694  13.787  13.682   6.187  0.2619  0.0868  0.0637
31564W        W46695  10.200   4.718  16.316 -0.0314 -0.3357  0.2522
31565W        W46696  17.713   2.964   6.230  0.1752 -0.0393 -0.0912
31566W        W46697  12.109  15.809  16.056  0.1166 -0.2531  0.0031
31567W        W46698   7.406   9.032  15.296  0.3198  0.0160 -0.1419
31568W        W46699   6.253   0.530  11.715  0.0687 -0.0215 -0.1728
31569W        W46700  13.456  13.109  14.700 -0.0067 -0.1273  0.1052
31570W        W46701  10.498   7.292  13.587  0.3277 -0.1583 -0.3122
31571W        W46702  16.628   0.685  13.326 -0.0778 -0.1638 -0.1454
31572W        W46703   8.782   5.864  16.371  0.1725 -0.0325 -0.0257
31573W        W46704   5.777   3.767   4.089  0.2785 -0.1534 -0.6061
31574W        W46705  17.948   9.852   3.999  0.0416  0.3086 -0.0239
31575W        W46706   0.084   0.824   1.919 -0.2982 -0.0077 -0.0567
31576W        W46707   2.156  16.310   0.627 -0.0321 -0.1987  0.0489
31577W        W46708  17.747   5.018  13.843  0.1530 -0.0861 -0.0618
31578W        W46709  16.096   3.563   4.168 -0.0844  0.2319  0.1029
31579W        W46710  13.931  11.831  10.828  0.2923 -0.1129  0.0471
31580W        W46711   8.243  13.785   0.283 -0.3052  0.0019  0.1247
31581W        W46712   2.711  15.575   0.761  0.0520 -0.0565  0.2030
31582W        W46713  14.225   3.825  14.347  0.0474 -0.0375  0.1586
31583W        W46714  17.706   8.053   5.194 -0.0919  0.0485  0.0767
31584W        W46715  12.968  12.661   0.830 -0.0701 -0.2481 -0.0959
31585W        W46716  18.048  14.985   5.075  0.1582 -0.3323 -0.1520
31586W        W46717  14.127   8.815  12.009 -0.1848 -0.0554 -0.0507
31587W        W46718  10.650   7.418   5.048 -0.2956 -0.0101 -0.0676
31588W        W46719   7.394  17.847   0.152 -0.0999  0.0988 -0.3059
31589W        W46720  13.171   6.694   1.470 -0.0651 -0.1753  0.0808
31590W        W46721   0.782   3.945   2.126  0.2633  0.0138  0.4374
31591W        W46722   8.455   2.021   1.746 -0.2027  0.4411 -0.0314
31592W        W46723   2.845   8.436   4.305  0.1262 -0.1070  0.1041
31593W        W46724   4.973   3.604   3.395  0.3563 -0.0984  0.1500
31594W        W46725   0.162  10.223  12.330  0.1024 -0.3929  0.2264
31595W        W46726   6.947  17.413   2.819  0.1563 -0.2931  0.2957
31596W        W46727   4.191   4.710  15.850  0.2948  0.0426 -0.0289
31597W        W46728   7.237   1.977  14.045 -0.4178 -0.0811  0.0213
31598W        W46729   0.847   9.883   1.966  0.0190 -0.1035 -0.2886
31599W        W46730  12.177  16.424  14.761 -0.0054  0.1522 -0.1814
31600W        W46731   9.443   3.830   4.329 -0.0787 -0.1519  0.2449
31601W        W46732  17.935   3.039  15.859  0.3081 -0.0146 -0.0172
31602W        W46733   0.369   5.444   3.847 -0.0660  0.0654  0.1094
31603W        W46734  17.934   6.879   3.320  0.2242 -0.1528 -0.1077
31604W        W46735  15.336  14.657  13.156 -0.0048 -0.0244 -0.2296
31605W        W46736  11.228   7.814  12.485  0.2393  0.1990 -0.0500
31606W        W46737   6.231   6.269  12.725 -0.2738 -0.1107 -0.3742
31607W        W46738   7.329  11.190  11.384 -0.0703 -0.1493 -0.1427
31608W        W46739  11.179   2.063   0.097 -0.1840 -0.2458 -0.2045
31609W        W46740  12.882   5.159  13.096  0.0132  0.2025 -0.4589
31610W        W46741  14.425   8.294   0.042  0.2789 -0.1136  0.0017
31611W        W46742   8.041   4.737   9.364 -0.1303  0.1875  0.2144
31612W        W46743   0.670  12.328   1.661 -0.1071 -0.0790 -0.0391
31613W        W46744   9.219  15.562   2.267 -0.1024  0.2352 -0.3579
31614W        W46745   4.850  12.311  13.694  0.1043  0.0498  0.1941
31615W        W46746   5.317   5.338   3.089 -0.2894 -0.0636  0.0017
31616W        W46747   3.155  11.779   5.349 -0.0017  0.1144  0.0251
31617W        W46748   2.692   5.273   4.806  0.0795  0.4968  0.1592
31618W        W46749  11.524  12.620   3.008 -0.3336  0.0660  0.1488
31619W        W46750   3.824   5.196   3.826 -0.0916 -0.1502  0.4141
31620W        W46751   0.021   8.093   5.703  0.0115 -0.0306  0.0614
31621W        W46752  15.079   8.475  14.167 -0.0921  0.0314  0.1651
31622W        W46753  11.541   3.795   2.251 -0.0140  0.0856  0.1902
31623W        W46754  16.287   6.375   0.562 -0.0198 -0.1122 -0.2500
31624W        W46755  13.087  16.753  11.367 -0.2432 -0.3062 -0.0360
31625W        W46756  13.356   7.669   0.170 -0.0836  0.4767  0.0033
31626W        W46757   9.081  14.002  12.538 -0.2579  0.3191  0.3251
31627W        W46758  16.838  10.488   4.019  0.2168 -0.0770  0.0059
31628W        W46759   0.754   0.316  16.434 -0.0742  0.0289  0.0330
31629W        W46760   4.548  13.357  12.004  0.3028  0.0013  0.2567
31630W        W46761   3.773   4.019  15.609 -0.0525  0.0260 -0.1257
31631W        W46762  10.201  12.994   1.865 -0.0288 -0.0059 -0.1059
31632W        W46763   1.997   9.208   4.005 -0.1577 -0.3246  0.1118
31633W        W46764   9.767  16.422  14.972  0.0343  0.3227  0.0471
31634W        W46765   7.929  16.467   4.506  0.0780 -0.1960  0.1560
31635W        W46766  10.073  15.497   4.739 -0.0602 -0.1047  0.0691
31636W        W46767   4.462   2.856  15.765  0.0286  0.0674 -0.1388
31637W        W46768  14.157  15.291   2.686  0.0331  0.3101  0.0326
31638W        W46769   4.231  12.736   9.929  0.0281  0.1661 -0.0810
31639W        W46770  12.586  16.821  11.625 -0.2663  0.0127 -0.0457
31640W        W46771  14.516   7.784   1.437  0.1894 -0.1321 -0.3274
31641W        W46772  16.617   5.515  12.556  0.0153  0.0336 -0.3987
31642W        W46773  12.478   2.861   4.169  0.1079  0.2606 -0.3126
31643W        W46774  13.011   2.165   3.494  0.0512  0.1736 -0.3321
31644W        W46775  12.504  10.811   3.470  0.2853  0.0603  0.3796
31645W        W46776   9.706  17.808   4.271  0.2307  0.0025  0.0138
31646W        W46777   5.483   7.497   2.216  0.6117  0.2867  0.2162
31647W        W46778  13.603   7.863  12.548  0.1030  0.1172 -0.4158
31648W        W46779  10.741   9.640  12.214 -0.2888 -0.0044 -0.1187
31649W        W46780   5.486  14.615   4.537  0.0499 -0.2608  0.0410
31650W        W46781  17.762   5.461  13.501  0.0027  0.0162  0.1236
31651W        W46782  17.409  17.423  11.554 -0.2377  0.2137 -0.0079
31652W        W46783   4.518   9.026  12.124 -0.3747  0.1511  0.1719
31653W        W46784   6.516  14.246   3.492 -0.1310  0.0167  0.2133
31654W        W46785   7.954  14.213   4.867  0.0685 -0.0441  0.0318
31655W        W46786   5.420   9.912  16.016 -0.4645 -0.0428 -0.1116
31656W        W46787  14.368  15.652  13.231 -0.0535  0.2034  0.0069
31657W        W46788  17.125  15.736  14.521  0.0373 -0.1581  0.1572
31658W        W46789  17.132   7.892  16.127  0.1331  0.0711  0.1274
31659W        W46790   4.552   7.167  16.310 -0.1183 -0.1929 -0.2567
31660W        W46791  10.632   9.592  10.288  0.0007 -0.0755 -0.0693
31661W        W46792   7.574   1.391   3.305 -0.1962 -0.0469 -0.2142
31662W        W46793  11.062  11.112   2.819 -0.2563 -0.0619  0.3234
31663W        W46794   2.685   1.046  13.437  0.0070 -0.2511 -0.1015
31664W        W46795  12.995  11.258  13.969 -0.1132  0.1263 -0.1331
31665W        W46796  10.487   7.371   3.070  0.0272  0.1180  0.1163
31666W        W46797   0.245  10.207   3.180  0.1096  0.1846  0.2372
31667W        W46798   7.914   5.656  14.370 -0.2135 -0.2200 -0.1932
31668W        W46799  13.668   0.223  15.195  0.3356 -0.1649 -0.1191
31669W        W46800  17.639   3.004  11.959  0.6320 -0.2770 -0.0994
31670W        W46801   8.533   9.210   4.817 -0.0091 -0.1585 -0.0046
31671W        W46802  14.672   9.789  12.968 -0.2467 -0.2058  0.3364
31672W        W46803   3.778   6.603  13.438 -0.0415 -0.1372  0.1185
31673W        W46804   7.339  11.296   4.566  0.1662  0.0704 -0.4216
31674W        W46805  11.562   4.027  16.008  0.0869  0.2394  0.1750
31675W        W46806  12.011  13.206  10.897 -0.0816  0.0460  0.0461
31676W        W46807   0.086   5.653   3.024  0.1136 -0.0478 -0.0511
31677W        W46808   9.477  15.315   4.164 -0.1582 -0.0773 -0.1978
31678W        W46809   7.981  14.479  13.659  0.1740 -0.2504 -0.1243
31679W        W46810   1.978  16.288  10.811  0.1312  0.0726  0.2377
31680W        W46811   1.106   4.076   2.860  0.0414 -0.0033 -0.1813
31681W        W46812  16.550   0.691   1.754 -0.0379 -0.1131 -0.0191
31682W        W46813  11.033   2.289   4.806 -0.0397 -0.0047 -0.1627
31683W        W46814  17.663   5.004  10.440 -0.0790 -0.0469 -0.0024
31684W        W46815   7.971  12.653   5.511 -0.0470 -0.0778 -0.1456
31685W        W46816   1.621  10.622   2.877  0.1079 -0.0479 -0.1173
31686W        W46817  10.319   1.037   5.102  0.1567 -0.0453  0.3707
31687W        W46818  12.992   5.171  13.926  0.2920  0.1971  0.1024
31688W        W46819   5.929   0.660  16.000 -0.1831 -0.2742  0.3537
31689W        W46820   3.957   7.124  13.477 -0.2270  0.1401  0.1713
31690W        W46821  12.403   6.895   5.002  0.0362 -0.1376  0.2511
31691W        W46822   7.053  15.294   0.199  0.1995 -0.1753 -0.1243
31692W        W46823   9.113   5.590   1.020 -0.1756  0.0417 -0.2130
31693W        W46824  17.164  11.023  10.675 -0.1912  0.2878  0.2208
31694W        W46825   6.508  13.485   0.060  0.0907 -0.1709  0.1933
31695W        W46826   3.338   4.952  13.974  0.2132  0.0690 -0.0190
31696W        W46827   3.502   6.876   5.889  0.1283  0.2603  0.4776
31697W        W46828   2.645   7.762  14.192 -0.0256 -0.0697 -0.1428
31698W        W46829  10.229   6.065   2.840 -0.2192  0.2096  0.3617
31699W        W46830  17.308  11.961   3.030  0.0559 -0.1258 -0.0952
31700W        W46831   4.977   0.566  14.509 -0.1753  0.1698  0.1629
31701W        W46832  12.849  12.932  11.881 -0.1130 -0.1536 -0.0067
31702W        W46833  14.429   0.780   5.227 -0.0108 -0.0083  0.0912
31703W        W46834  16.418   9.106  14.735 -0.2267 -0.1273  0.2022
31704W        W46835   2.001   3.055   5.213 -0.0800 -0.0166  0.0475
31705W        W46836  15.264   2.935   5.948 -0.1790 -0.0819  0.0658
31706W        W46837   3.062  17.243   3.650  0.0645 -0.2530 -0.2050
31707W        W46838   8.751  10.555  15.246  0.0495  0.0471 -0.1548
31708W        W46839   6.868   4.416  13.433 -0.1396 -0.0526 -0.0413
31709W        W46840   6.165   5.118  13.913  0.0519 -0.2006  0.0484
31710W        W46841  15.794   5.066   5.302 -0.1233 -0.2478 -0.1854
31711W        W46842  12.310   3.422  14.361 -0.3525 -0.0170  0.0787
31712W        W46843  12.297  15.113   0.547 -0.1843 -0.1059 -0.1301
31713W        W46844  17.269   7.866  13.641  0.2273  0.1634  0.0563
31714W        W46845   3.460  13.909  13.650 -0.0611 -0.0463 -0.0510
31715W        W46846  13.842   6.759   0.071 -0.0562 -0.0173  0.0508
31716W        W46847  17.828  12.696  14.093  0.4219 -0.0013  0.0823
31717W        W46848   0.173  16.498   4.941 -0.3219 -0.1874 -0.5115
31718W        W46849   0.099   5.805  12.621  0.2026 -0.3074  0.0498
31719W        W46850   8.021  16.716  15.362 -0.2039 -0.0769 -0.3427
31720W        W46851   8.282  16.026  16.030 -0.0063  0.1322 -0.1477
31721W        W46852   0.737   2.040  13.456 -0.2102 -0.2974  0.1778
31722W        W46853  17.520   1.709  15.239 -0.4922  0.1610 -0.1247
31723W        W46854   3.570  16.300   3.928 -0.1867  0.2023 -0.0333
31724W        W46855   2.155   4.339   2.670  0.1988  0.0010  0.0973
31725W        W46856  16.329   4.421  14.099 -0.0287 -0.5442 -0.2864
31726W        W46857   4.257   7.553   1.012  0.1316 -0.0979  0.0082
31727W        W46858  13.765   1.695   2.243 -0.0951  0.0814  0.4528
31728W        W46859   9.459  14.725  15.492  0.1165 -0.1866  0.3000
31729W        W46860  15.608   0.194  15.143  0.2007 -0.3664 -0.0741
31730W        W46861   0.245  10.957  11.853 -0.2250 -0.3894  0.0543
31731W        W46862  11.832  11.599   3.124  0.0219  0.1884  0.2154
31732W        W46863   5.300  15.865  15.775 -0.1333 -0.0730  0.0927
31733W        W46864  13.642   5.836   1.858  0.2370 -0.1125 -0.2008
31734W        W46865  16.329  12.535   2.086  0.1608  0.0082 -0.1039
31735W        W46866   9.137   9.252  13.110  0.0106  0.0635 -0.0245
31736W        W46867   1.437  18.015  13.173  0.2203  0.1089 -0.0149
31737W        W46868  11.611   5.282   4.349  0.0800 -0.1307  0.0493
31738W        W46869  10.815  13.250  11.690  0.0804  0.3201 -0.1728
31739W        W46870   8.894  13.055   1.439  0.1437  0.0623 -0.0424
31740W        W46871   1.067   5.119   1.038 -0.1263 -0.1737 -0.1515
31741W        W46872  15.192  10.707  12.312  0.1219  0.0313 -0.1489
31742W        W46873   2.689   0.800   4.949  0.1171 -0.1901  0.2780
31743W        W46874   5.761   8.495   5.000  0.0722  0.2105  0.0001
31744W        W46875   2.239   9.996  15.292 -0.1736 -0.0498  0.1801
31745W        W46876   7.531  10.846  12.836  0.5344  0.2321  0.1895
31746W        W46877   7.747   0.925  14.659  0.2586 -0.3786  0.2176
31747W        W46878  10.638   2.623  10.964  0.0275  0.1237 -0.0173
31748W        W46879   0.521   3.918  14.642 -0.0427 -0.1254  0.1294
31749W        W46880  17.378  14.488   0.438  0.0722 -0.0196  0.1802
31750W        W46881   9.583   2.404   5.062 -0.1222 -0.0711  0.2872
31751W        W46882   9.382  14.911   2.930 -0.1906 -0.0142 -0.1272
31752W        W46883   5.941   0.332   3.135 -0.1257  0.2719  0.1529
31753W        W46884   7.842   9.499  15.656  0.5822  0.3634 -0.1065
31754W        W46885   8.355   2.404   5.356 -0.2348  0.2254  0.0186
31755W        W46886  16.704  13.929  12.457 -0.0335  0.2451 -0.1091
31756W        W46887  13.756   9.823   3.718  0.5487  0.1458  0.1095
31757W        W46888   1.706  17.594  13.867 -0.1314  0.0969  0.1168
31758W        W46889   3.149   8.442   1.208  0.0359  0.0458  0.2424
31759W        W46890   1.536  14.177   0.641  0.1299 -0.1435  0.0958
31760W        W46891  10.258   8.802  14.855  0.0483 -0.0888  0.2557
31761W        W46892   0.135  17.212  14.134 -0.1927 -0.2061  0.1508
31762W        W46893   1.393   6.605  16.303 -0.5674  0.1588  0.1204
31763W        W46894   1.576   4.358   0.375  0.1211  0.3388 -0.1819
31764W        W46895  11.102  10.038  15.056  0.0071  0.1677 -0.1378
31765W        W46896  16.761   7.902  13.611  0.2215 -0.1280 -0.2465
31766W        W46897   8.899   5.514   3.116  0.1082 -0.0421  0.1111
31767W        W46898   7.031   1.705   5.504  0.0119  0.0375 -0.2458
31768W        W46899   8.377   3.487   5.374  0.2827 -0.0096 -0.0236
31769W        W46900   0.282  13.173  12.649 -0.2369 -0.0916  0.0404
31770W        W46901   2.898  10.809  13.060 -0.1379 -0.4484  0.2109
31771W        W46902   0.176  10.609   3.796  0.0341  0.0968  0.0158
31772W        W46903  16.624   5.364  15.157  0.1501 -0.1201  0.0596
31773W        W46904   8.890   3.273   0.816 -0.0671 -0.0930  0.0144
31774W        W46905   1.547  12.486   5.150 -0.1425  0.1625  0.1104
31775W        W46906  16.531  14.589  15.594  0.1445 -0.2196 -0.1778
31776W        W46907  13.278  13.162  12.824  0.1626 -0.0467  0.1984
31777W        W46908  11.259  15.203   3.691  0.1279  0.0076 -0.1614
31778W        W46909  10.005  13.994  12.500  0.1636 -0.3463 -0.1165
31779W        W46910  17.157   3.049   2.941 -0.2140  0.3228 -0.0598
31780W        W46911  13.971  16.058   1.396  0.0572 -0.3732  0.3034
31781W        W46912   5.477  13.135   2.833 -0.1624  0.0005 -0.1088
31782W        W46913   3.012   6.891   5.993 -0.0442  0.0155  0.1007
31783W        W46914  10.051  15.844   1.114 -0.1492 -0.1480 -0.0789
31784W        W46915   4.520   3.867   3.464  0.1486  0.3586 -0.0862
31785W        W46916  11.787   6.933   1.426  0.0253 -0.2129 -0.1500
31786W        W46917   0.220   0.510   3.626  0.0358 -0.1155 -0.3677
31787W        W46918  14.369  10.986   4.978 -0.0988  0.1497 -0.0343
31788W        W46919   6.966   7.771  11.025  0.1110 -0.1905  0.0064
31789W        W46920   2.427  13.677   3.485  0.0435  0.2508 -0.0164
31790W        W46921  16.448   4.172  11.377 -0.1394 -0.1790 -0.1128
31791W        W46922  14.690  15.730  15.277  0.0026  0.2845  0.0390
31792W        W46923  14.278  12.113   4.361 -0.0380 -0.0363  0.0582
31793W        W46924  15.097  17.567   1.012  0.1844 -0.2499  0.2723
31794W        W46925  17.328   6.475  13.258  0.1067  0.0895 -0.0807
31795W        W46926  16.295   7.371  15.086 -0.3256  0.1201 -0.2114
31796W        W46927   4.269  17.339  13.949  0.0337  0.3753 -0.2935
31797W        W46928  17.399   9.711  14.981  0.2127 -0.1215  0.1424
31798W        W46929   5.873   6.922  11.930 -0.0733 -0.2792 -0.1210
31799W        W46930   1.223   7.766   5.174  0.2071  0.2654 -0.2655
31800W        W46931   0.654   4.606  12.183 -0.0337  0.0642 -0.2031
31801W        W46932  10.216  11.455   3.424  0.0507  0.1297  0.1246
31802W        W46933   5.656   3.300  13.242  0.2065 -0.0425 -0.2199
31803W        W46934  16.052  14.918   1.866  0.1315  0.2822  0.3410
31804W        W46935   3.961   6.530   0.070  0.1394  0.0057  0.3517
31805W        W46936  14.631  12.602   0.671 -0.0348  0.3040 -0.0810
31806W        W46937  17.232  14.636   2.081  0.1256 -0.1445 -0.4505
31807W        W46938  16.862   0.450   4.207 -0.4589 -0.1478 -0.0164
31808W        W46939   2.681  12.693   1.287 -0.1733  0.0194 -0.0082
31809W        W46940  14.210   1.034   1.530 -0.0761 -0.0069  0.0921
31810W        W46941  16.694   9.342  11.375 -0.2203  0.2785  0.1547
31811W        W46942  11.226   0.956   3.372 -0.1843  0.0991 -0.0807
31812W        W46943   2.092   8.692  14.855  0.0693  0.1640 -0.0571
31813W        W46944  15.072  16.800  12.912  0.3049 -0.2360 -0.3986
31814W        W46945   9.828  17.204  11.281  0.3140  0.1996 -0.5273
31815W        W46946   6.697   7.297   4.369  0.1839 -0.2006 -0.1151
31816W        W46947  15.768  16.638  12.308  0.0047 -0.0136 -0.0318
31817W        W46948   0.625  15.564   2.279  0.1284 -0.0958  0.3078
31818W        W46949   5.806   2.407   2.022 -0.0090  0.1577  0.0154
31819W        W46950  17.800   9.308  13.846 -0.0995 -0.2139 -0.0248
31820W        W46951   5.927   1.208  11.207 -0.1260 -0.0811  0.2907
31821W        W46952   1.307  15.507   4.629 -0.2167  0.0273 -0.3417
31822W        W46953   4.970  13.030  15.457 -0.0694 -0.1865 -0.1413
31823W        W46954   2.868  17.538   3.261 -0.1801  0.1329 -0.0744
31824W        W46955   8.540  15.229   5.578 -0.1886 -0.0232 -0.1303
31825W        W46956   7.078   4.140   4.024  0.1091 -0.1425 -0.0701
31826W        W46957   3.867  15.009   4.371  0.0154 -0.0466 -0.1262
31827W        W46958   2.949   4.220   0.529 -0.0563  0.2577 -0.1839
31828W        W46959   8.514  11.194  14.336  0.0109 -0.0657  0.1075
31829W        W46960   5.712  17.274   1.144  0.0546 -0.0462  0.1189
31830W        W46961  11.158   9.098  14.844  0.0825 -0.1137  0.1153
31831W        W46962  16.989  10.289  15.211  0.1084 -0.2589  0.3555
31832W        W46963   4.194   2.029   3.497  0.0811  0.1314  0.1510
31833W        W46964   9.665  13.038  15.622  0.1956  0.1035  0.0542
31834W        W46965   3.320  13.995  12.984  0.1132 -0.0728 -0.4259
31835W        W46966   2.714   1.753  12.664  0.0275  0.1810 -0.3003
31836W        W46967  16.879  11.257  11.556 -0.1538 -0.0175 -0.2590
31837W        W46968  13.882   9.303   4.392 -0.3370 -0.3039  0.0122
31838W        W46969  11.310  17.103  12.785 -0.0826 -0.1339 -0.3136
31839W        W46970  15.935   0.860  14.286 -0.0575  0.0139 -0.2098
31840W        W46971   0.790  10.172  13.416 -0.0138  0.2020  0.0201
31841W        W46972  13.800  11.227  12.632 -0.3514 -0.0209 -0.1174
31842W        W46973  11.458  16.620  15.880  0.1672 -0.1324  0.2534
31843W        W46974  15.360   6.792   4.475  0.0375 -0.2812 -0.2798
31844W        W46975   5.543  17.512   5.569 -0.1086 -0.1197  0.1030
31845W        W46976   4.813   0.338   3.774  0.3641  0.1699  0.0191
31846W        W46977  17.080  16.952   2.795  0.0078  0.1958 -0.1340
31847W        W46978   0.477   3.002   2.197  0.2973 -0.5929  0.0541
31848W        W46979  16.947   9.823  12.084 -0.0060  0.0818 -0.0618
31849W        W46980   4.638   2.706   4.954  0.0723  0.0842  0.0671
31850W        W46981   1.330   1.412  14.725  0.1421 -0.0979 -0.0386
31851W        W46982  14.462  16.317  10.239 -0.1441  0.0197 -0.0508
31852W        W46983   7.449   3.124   4.393  0.1953 -0.0630 -0.1714
31853W        W46984   1.850  14.305  12.633  0.0014  0.1674  0.3522
31854W        W46985   0.113  12.555  11.930 -0.1170 -0.0850  0.1110
31855W        W46986   6.100  10.732  14.811 -0.1340 -0.1847  0.1015
31856W        W46987   0.300  14.891  11.911  0.3386 -0.0049  0.2162
31857W        W46988  12.973   7.385   0.194 -0.0402 -0.0913 -0.3092
31858W        W46989  14.805  16.277  11.546  0.4170 -0.0796  0.1662
31859W        W46990   6.576   8.423  11.713  0.1912  0.0454 -0.0839
31860W        W46991   4.323   7.443   2.548  0.0122  0.0617 -0.5735
31861W        W46992  14.079   4.495   2.648 -0.1306  0.0538  0.0150
31862W        W46993  16.200  12.544   2.617  0.0479 -0.0041 -0.1414
31863W        W46994   3.853  11.875   0.958 -0.1687 -0.3831 -0.0771
31864W        W46995   6.054  13.873   4.238  0.0501 -0.1903  0.2441
31865W        W46996  12.642   1.555  16.097 -0.1478  0.0114  0.1766
31866W        W46997   5.307  10.070   4.619  0.1455 -0.0337  0.0084
31867W        W46998   3.454  16.526  11.677  0.3023  0.4477  0.1586
31868W        W46999  13.534   8.533  16.426  0.0940  0.2367  0.1014
31869W        W47000  13.012  14.167  12.735 -0.1566  0.0878 -0.3631
31870W        W47001   1.265  14.701  11.218  0.0998 -0.2134 -0.2411
31871W        W47002   5.775  15.518  14.002 -0.3668 -0.3712  0.2493
31872W        W47003   1.301   3.907   0.677  0.2482 -0.1813 -0.1633
31873W        W47004  10.462  11.625   5.520  0.0535  0.2830  0.1396
31874W        W47005   3.109   2.283   5.082 -0.0954  0.1782 -0.1268
31875W        W47006  15.948   2.544   3.188  0.0374 -0.1002  0.0936
31876W        W47007  11.495  13.813   3.749 -0.0583  0.3615  0.0976
31877W        W47008   1.848   4.333  11.912 -0.0701  0.0899 -0.3677
31878W        W47009  12.126  11.461   2.722  0.0006  0.2155  0.1379
31879W        W47010   3.862   0.479   3.156  0.2001 -0.0470  0.3957
31880W        W47011  10.638   6.054   0.355  0.2431  0.0261 -0.0435
31881W        W47012   3.323   5.337   3.700  0.1394  0.0597 -0.1446
31882W        W47013  15.916   0.549  13.877  0.3308 -0.0557  0.0723
31883W        W47014  15.994   9.480  13.878 -0.4091  0.2395 -0.1249
31884W        W47015   4.683  17.800   6.488  0.0258 -0.0541 -0.1026
31885W        W47016  15.587   7.316  13.475 -0.0203  0.0714  0.0294
31886W        W47017   6.177   5.053   4.049 -0.3853  0.1236  0.2436
31887W        W47018   6.204   5.409  10.806 -0.0509 -0.2256  0.0864
31888W        W47019   6.629  10.584   0.442  0.2602 -0.3448 -0.1626
31889W        W47020   7.267  14.021   3.703  0.0392 -0.2015  0.3098
31890W        W47021  17.517  11.483   5.366  0.4542  0.2973  0.1864
31891W        W47022   0.533  12.637  11.580  0.2233  0.1000 -0.0019
31892W        W47023   9.005  10.206   2.590  0.2043 -0.0968 -0.0067
31893W        W47024  10.822  12.058  13.218  0.1631  0.0196 -0.0501
31894W        W47025   6.114  12.359  10.898 -0.0586  0.0284  0.1724
31895W        W47026  10.571   0.621  16.045 -0.1104 -0.2077 -0.2558
31896W        W47027  18.035   3.899  15.414  0.1086 -0.0183 -0.3228
31897W        W47028   1.031   5.933   4.468 -0.1558 -0.0977 -0.0052
31898W        W47029  14.506   8.907   4.934 -0.0473  0.4109  0.0076
31899W        W47030  15.831   6.938  16.438  0.0168 -0.0236  0.0410
31900W        W47031   4.598   7.189   3.368  0.0063 -0.0837  0.3180
31901W        W47032  17.317  17.357  10.305  0.1910  0.0073 -0.2580
31902W        W47033  11.390   5.399  15.317  0.2375  0.1174 -0.1326
31903W        W47034  15.095  10.831  11.844  0.0488  0.1410 -0.0735
31904W        W47035  11.485  15.948   4.949  0.1209  0.0122  0.0001
31905W        W47036   7.466   1.009   1.020  0.1922  0.4528 -0.0153
31906W        W47037  10.338   9.488  16.181  0.1803  0.0778  0.0894
31907W        W47038  14.836  13.905  15.917  0.1651  0.0530 -0.1956
31908W        W47039  17.174  17.573  13.171 -0.2345  0.2462 -0.2537
31909W        W47040   1.905  11.548   3.375 -0.0922  0.0361 -0.0758
31910W        W47041  14.748   8.981   1.487 -0.0352 -0.0249 -0.3158
31911W        W47042  15.721  16.276   3.341 -0.5560  0.0402 -0.0100
31912W        W47043   7.191  15.810   1.849 -0.0918  0.0697  0.0148
31913W        W47044   1.796  17.448  15.218  0.1562 -0.2251 -0.0656
31914W        W47045   3.458  15.625  15.569  0.1522 -0.2596 -0.0056
31915W        W47046   5.799   2.178   4.441 -0.1055 -0.0760 -0.1880
31916W        W47047   6.091  11.377  12.601  0.1625  0.0174 -0.0461
31917W        W47048   7.586  15.057   3.718  0.0140  0.2866 -0.0045
31918W        W47049   6.790   2.449   5.774  0.1014  0.0629  0.0859
31919W        W47050  12.848  12.853   5.787 -0.0831 -0.0373 -0.2589
31920W        W47051  10.634  17.339  16.370  0.0433  0.0882  0.2004
31921W        W47052   9.868   4.087   1.441 -0.0839 -0.2716 -0.1304
31922W        W47053  10.825  17.105  11.368  0.0109  0.1253 -0.1255
31923W        W47054  17.267   8.621  14.128  0.1492 -0.1284 -0.2749
31924W        W47055   9.770  13.414  16.034  0.2646 -0.1915 -0.0224
31925W        W47056   1.165   6.164   2.788 -0.1075  0.1158  0.0143
31926W        W47057  12.756  15.980   0.474  0.0334  0.0641  0.3301
31927W        W47058  12.650  12.101  13.522 -0.0151 -0.0240  0.0562
31928W        W47059   8.812   3.768   1.952  0.2263  0.1245  0.0851
31929W        W47060   2.531  17.999  10.933  0.2485 -0.0761  0.2600
31930W        W47061  15.428   5.710   3.397  0.0602 -0.3734 -0.0596
31931W        W47062   2.491   4.504  15.152  0.1129 -0.1810  0.1337
31932W        W47063   4.102  16.409   0.531  0.1117 -0.2839  0.0426
31933W        W47064  17.019  11.224  10.154 -0.0138 -0.1069  0.0185
31934W        W47065  13.695   2.702  10.702  0.0718  0.0900 -0.0573
31935W        W47066   1.693   9.530  11.098  0.1204 -0.0568 -0.1057
31936W        W47067  18.063   3.737   2.400 -0.1654 -0.1216 -0.0117
31937W        W47068  11.329   3.287   2.205  0.5455 -0.5011 -0.0954
31938W        W47069  16.606  17.321  12.771  0.1146 -0.2513  0.1244
31939W        W47070  17.704  17.721  15.472  0.1005 -0.2820  0.1817
31940W        W47071   4.827  10.998   0.467  0.0235  0.0308  0.0773
31941W        W47072   9.745  13.894  11.203  0.1307 -0.0410 -0.2186
31942W        W47073   8.014  12.224   1.943  0.0322  0.0221 -0.1211
31943W        W47074   4.284   3.084   5.025  0.2967  0.0169 -0.3600
31944W        W47075   7.997  17.874  16.355 -0.3471  0.3588 -0.0958
31945W        W47076  14.789  16.920   3.060 -0.0794 -0.0207 -0.2797
31946W        W47077   9.065  14.222   6.225  0.2670 -0.0856  0.1068
31947W        W47078   1.916  17.357  13.477 -0.1838  0.0803 -0.0530
31948W        W47079   5.275   6.846   2.924  0.2213  0.2019  0.0824
31949W        W47080  14.390   1.794  12.414 -0.0593  0.1864 -0.2475
31950W        W47081  13.350  10.580  14.982 -0.0264  0.1917 -0.0229
31951W        W47082  13.200   1.240  12.563  0.0508  0.1556  0.2163
31952W        W47083   4.299  15.963   4.398 -0.0019 -0.2639 -0.1739
31953W        W47084  12.144   3.764   2.114 -0.1444  0.0440 -0.1066
31954W        W47085   8.107  12.049  13.358 -0.3100  0.2820  0.4958
31955W        W47086  17.561   7.014  11.300 -0.0306  0.0868 -0.0911
31956W        W47087   9.900  17.525  13.459  0.3460  0.1688  0.3248
31957W        W47088   5.544  13.618   4.478 -0.0870  0.0390  0.3678
31958W        W47089  14.220   8.046   2.279  0.0894  0.1627 -0.1471
31959W        W47090  10.374   6.738   0.749 -0.0635 -0.3159  0.1673
31960W        W47091  12.422   3.754   4.508 -0.1266 -0.1671  0.1338
31961W        W47092   2.235   8.483   5.242 -0.1826 -0.1049  0.2598
31962W        W47093  14.370  11.568  16.227  0.2507  0.0229 -0.0937
31963W        W47094  17.978  14.754  12.228  0.3448  0.0819  0.0580
31964W        W47095  10.281  14.750   4.042 -0.1098  0.1926  0.1208
31965W        W47096   8.220   0.438  13.856 -0.0782  0.0072 -0.0726
31966W        W47097   1.455   5.925  12.498 -0.0562  0.0808 -0.0625
31967W        W47098   2.807  14.151  13.564 -0.4447  0.0795  0.0239
31968W        W47099   4.698  15.292   3.186  0.0404 -0.4171  0.0058
31969W        W47100  11.425  10.496   1.644 -0.1389  0.1590 -0.2680
31970W        W47101   8.416  15.802   1.109  0.3367  0.0521  0.0470
31971W        W47102  11.136   8.874   4.152  0.1956  0.1820 -0.1778
31972W        W47103   9.629   0.030   5.222 -0.1185  0.0984 -0.0265
31973W        W47104   7.998   3.937  13.798 -0.1813  0.0302 -0.1446
31974W        W47105   8.317  17.739  11.737  0.1053 -0.0655 -0.2618
31975W        W47106   1.757   3.155  16.035  0.1430 -0.4367  0.4270
31976W        W47107  11.761   7.850  11.649 -0.0002  0.0668 -0.0127
31977W        W47108  12.854  16.733   3.191  0.0717  0.1668 -0.0827
31978W        W47109   5.616   7.762   5.774 -0.0706  0.1654  0.2274
31979W        W47110  11.107  12.415   4.962 -0.0639 -0.0540 -0.2830
31980W        W47111  16.640  14.448   2.296  0.0987  0.1175 -0.0807
31981W        W47112   2.977  15.672   1.796  0.2280 -0.2268 -0.2209
31982W        W47113  13.761  17.455  16.444 -0.0980  0.2682  0.1395
31983W        W47114  13.329   9.583   1.276 -0.0687 -0.0557 -0.0401
31984W        W47115   0.616   0.408  12.570 -0.0370 -0.0323  0.2949
31985W        W47116  17.825  11.802   4.019 -0.1170 -0.0614  0.2169
31986W        W47117  14.538   2.549   1.727 -0.0796 -0.3202  0.1136
31987W        W47118   6.408   5.270  13.527  0.1946 -0.2024  0.1094
31988W        W47119  11.503  14.777   1.995  0.0495 -0.0226 -0.2590
31989W        W47120  16.556   0.792   1.300 -0.1521  0.0491 -0.2644
31990W        W47121  17.366   7.999  10.635  0.2128  0.1851  0.0331
31991W        W47122   3.922  14.139   4.742  0.2083  0.0539  0.0129
31992W        W47123   3.909   1.753   5.278 -0.2587 -0.1358 -0.0298
31993W        W47124  12.273   2.211  12.943  0.1666  0.2274  0.2673
31994W        W47125  10.575  16.837  13.809  0.1726 -0.2114 -0.0528
31995W        W47126  17.952  10.944  16.209 -0.1201  0.0526  0.3416
31996W        W47127  15.277   7.660  14.234  0.2030  0.0162 -0.2076
31997W        W47128  12.580   5.244  14.629 -0.2769 -0.0670  0.2038
31998W        W47129   2.419   0.355   3.320  0.1766  0.0466  0.0652
31999W        W47130   3.070  15.624   4.270  0.0203 -0.0660  0.1601
32000W        W47131  15.941  17.067   4.388 -0.0986  0.1900  0.1573
32001W        W47132  13.262   4.719  12.003 -0.1595 -0.1398 -0.1148
32002W        W47133   4.565   1.825  13.271  0.0324  0.2317  0.2567
32003W        W47134  10.101   1.799  13.105 -0.0976  0.1580 -0.0227
32004W        W47135  10.233  12.116   2.609 -0.0234  0.1288  0.1861
32005W        W47136   6.387  13.710  13.104 -0.2366 -0.2023 -0.0694
32006W        W47137   3.596   4.858   2.495 -0.0605 -0.1197 -0.0122
32007W        W47138   7.740  17.367   2.681  0.2084 -0.0672 -0.2086
32008W        W47139   9.331   1.189  10.036 -0.3038  0.2493  0.0864
32009W        W47140   0.360  13.268   4.420 -0.1411 -0.2528  0.2324
32010W        W47141   2.343  14.678  10.146 -0.0966 -0.3482 -0.4211
32011W        W47142   2.346   1.276   3.562 -0.0374  0.0671 -0.1966
32012W        W47143   8.384   2.169  14.393  0.0552  0.1234  0.4720
32013W        W47144   6.498   8.725   1.019 -0.2170 -0.0557 -0.1886
32014W        W47145  12.412   8.889  13.613  0.2467  0.1596 -0.2061
32015W        W47146  13.616  10.902  12.271 -0.3598 -0.3430 -0.0209
32016W        W47147  10.135   0.985  14.478  0.1588  0.0315 -0.0109
32017W        W47148  11.628   9.065   1.867  0.2787 -0.3016 -0.1372
32018W        W47149  17.263  14.076   4.409 -0.0922  0.1655 -0.1447
32019W        W47150  13.546   2.469   4.814  0.1058  0.3071  0.0900
32020W        W47151  13.767   0.557   2.365 -0.0728  0.0147  0.0492
32021W        W47152   5.209   1.781  13.246 -0.0931  0.0665 -0.1012
32022W        W47153   9.103   4.367  14.409  0.1261  0.5978 -0.1962
32023W        W47154   8.628  13.700   4.315  0.0135 -0.0405 -0.1178
32024W        W47155  11.442   4.221   1.679 -0.2672 -0.0157  0.0011
32025W        W47156   1.459  12.932  15.689 -0.2324  0.2812  0.5554
32026W        W47157   8.913   4.568   4.153 -0.0988 -0.2706 -0.0405
32027W        W47158  10.680  15.771  14.434  0.2156  0.3011  0.0381
32028W        W47159  14.046   4.343  12.667  0.0160  0.0142  0.1321
32029W        W47160   5.337  16.355   0.742 -0.1718 -0.0938  0.1216
32030W        W47161  12.781   9.396  14.016 -0.0793 -0.3452 -0.1117
32031W        W47162  10.295   3.550   4.285  0.0789  0.1812 -0.0552
32032W        W47163  17.732  10.365  10.394 -0.0800  0.0621  0.1775
32033W        W47164  15.233   7.709   1.154  0.0740  0.0632 -0.0489
32034W        W47165  16.479   8.248   2.217  0.1908 -0.2346  0.0480
32035W        W47166   2.190   0.815   0.370 -0.1390  0.0589  0.0443
32036W        W47167  15.911   9.097  14.260 -0.0824  0.4201  0.2702
32037W        W47168  14.599  10.024   2.506 -0.0340  0.0295 -0.1799
32038W        W47169   7.610   5.191   4.894  0.0740 -0.0634 -0.1039
32039W        W47170   6.391   7.661   2.041  0.0816 -0.1323  0.2881
32040W        W47171   9.147  10.126  13.067  0.2187 -0.4075 -0.1836
32041W        W47172   9.204  15.216   1.909  0.3256 -0.1718  0.1180
32042W        W47173   2.751  10.208   3.879 -0.1485 -0.0415 -0.1181
32043W        W47174  17.561  11.262  16.353  0.1904 -0.1205  0.1443
32044W        W47175   3.945   8.771   0.695  0.3830 -0.2015 -0.4498
32045W        W47176  17.711  15.159  14.102 -0.2717 -0.3380  0.0215
32046W        W47177   9.443  14.109  14.575 -0.0418  0.0685  0.0468
32047W        W47178  15.378  17.143   1.352  0.0866  0.2592 -0.0398
32048W        W47179   0.988   0.950  14.365 -0.0959  0.1129 -0.0573
32049W        W47180  13.053   4.839   1.155  0.1255 -0.3132  0.0785
32050W        W47181   7.198  15.648   4.840 -0.0040  0.0355  0.2139
32051W        W47182  12.180  14.396  16.014 -0.0999 -0.0269 -0.2321
32052W        W47183  16.387  13.026   2.235 -0.1250  0.0204 -0.0720
32053W        W47184  16.997  12.067   2.651 -0.0025  0.0757  0.0193
32054W        W47185   6.632  16.830  12.435  0.3091 -0.1056  0.4423
32055W        W47186   6.280   3.592   0.592 -0.0179 -0.1580 -0.2109
32056W        W47187   5.354   0.528   1.212 -0.3043  0.0720 -0.0067
32057W        W47188  15.918  15.312  15.177 -0.1858  0.0335 -0.3642
32058W        W47189   8.739  12.670   1.687 -0.1246  0.2133  0.0529
32059W        W47190   5.147   4.957  16.151  0.0041  0.3295 -0.2049
32060W        W47191   7.304   2.704   4.142  0.3139 -0.0644  0.1158
32061W        W47192  10.202  16.676   0.992 -0.2833  0.2778 -0.0679
32062W        W47193   6.827  13.078  11.891  0.1764 -0.0687 -0.0000
32063W        W47194  16.660   7.957  16.352 -0.2845  0.2180  0.4963
32064W        W47195  11.351  12.190  11.630 -0.1963  0.1489 -0.2696
32065W        W47196  14.377   7.124   5.881  0.1088 -0.0366 -0.1294
32066W        W47197  15.869   6.052   1.475 -0.1360 -0.0567  0.3704
32067W        W47198   9.375   4.835   1.035  0.0373  0.0052 -0.4727
32068W        W47199  11.326   9.633   2.687 -0.0094  0.0439 -0.0850
32069W        W47200   4.326   0.006  12.748  0.0337  0.0439 -0.0826
32070W        W47201   1.338   3.225  13.729 -0.1646  0.1869 -0.1998
32071W        W47202  10.019  16.666  12.529  0.0853 -0.1267  0.2125
32072W        W47203  13.779  13.218   1.432  0.1310  0.0999  0.3173
32073W        W47204  13.600  14.140   0.462  0.0986 -0.0655  0.0436
32074W        W47205  11.395   2.748   2.161 -0.1171  0.2702 -0.0802
32075W        W47206   9.114  10.464  13.465  0.0071 -0.1742 -0.2540
32076W        W47207  10.675   3.105   3.809  0.2720 -0.2152  0.0541
32077W        W47208   6.700   0.384  12.901  0.1153 -0.0370  0.1759
32078W        W47209   0.763  11.709   3.721 -0.3069 -0.1689 -0.1002
32079W        W47210   2.807  13.406  15.339  0.0629  0.1977  0.1691
32080W        W47211  12.194  10.506  13.283  0.1207 -0.2116  0.0266
32081W        W47212   1.646   7.865   4.589 -0.1535  0.1074  0.2502
32082W        W47213  12.679   5.983   3.569 -0.0503  0.2609 -0.0015
32083W        W47214  12.924  15.624   1.639 -0.0064 -0.3263 -0.2876
32084W        W47215  15.299   7.220  14.757  0.1724  0.0957 -0.0371
32085W        W47216  17.324   8.522   0.302 -0.1237 -0.2691  0.0024
32086W        W47217   0.088  16.364   1.955  0.0736  0.2790 -0.0032
32087W        W47218   7.679   6.243   4.842  0.1799  0.1878  0.2911
32088W        W47219   1.923   9.139   3.435 -0.0961 -0.4761 -0.3664
32089W        W47220   0.748  12.789   2.879  0.0313  0.0854  0.3177
32090W        W47221  10.165   9.889   1.052  0.0551  0.1354 -0.1759
32091W        W47222   1.583   2.830   0.443 -0.2966  0.1297  0.1324
32092W        W47223   1.670  12.993  11.037  0.3033 -0.1584  0.0566
32093W        W47224  16.550  12.965   2.741  0.2306 -0.0550  0.0438
32094W        W47225  14.120   6.468   3.419  0.3202  0.2295 -0.0131
32095W        W47226   7.882  14.958  11.433  0.0534 -0.0931 -0.0163
32096W        W47227  13.884  12.669  13.605 -0.3915 -0.1533 -0.2036
32097W        W47228  16.672   4.740   5.356 -0.1338 -0.0777  0.2053
32098W        W47229   6.274   3.999   3.371 -0.0934 -0.3165  0.0336
32099W        W47230   1.219   2.137  14.536 -0.3691  0.3206 -0.1664
32100W        W47231   5.053   5.874   6.253 -0.1595 -0.0646 -0.2907
32101W        W47232  16.417   7.472  16.297  0.1786 -0.0267  0.2823
32102W        W47233   6.087   7.769  12.596 -0.1255 -0.1213  0.0226
32103W        W47234   6.699  17.934   1.123 -0.0521 -0.0850  0.1276
32104W        W47235   3.396   7.355  13.841  0.0926  0.0922  0.0952
32105W        W47236   5.440   5.776  12.403  0.0484  0.0236  0.0305
32106W        W47237   7.719  11.323  10.140  0.2667 -0.4369 -0.0428
32107W        W47238   8.422   8.991   3.449  0.1619 -0.2243  0.0529
32108W        W47239   0.253   1.316  16.406  0.0773 -0.2006  0.0613
32109W        W47240  15.943   2.787  13.853  0.1933  0.0437 -0.0011
32110W        W47241   0.260   6.486   5.392  0.0792 -0.0508  0.1299
32111W        W47242  15.852   0.180  11.010 -0.3933 -0.1144  0.1694
32112W        W47243   9.857  16.320   0.957  0.2916  0.1993  0.1125
32113W        W47244   5.324   1.622   2.492 -0.1349 -0.3394 -0.4222
32114W        W47245  17.993  14.714  13.859 -0.0424  0.0597  0.2107
32115W        W47246   6.458   0.019  12.489 -0.0576 -0.2100  0.0655
32116W        W47247  17.496   6.283  13.933 -0.2414 -0.3968 -0.1901
32117W        W47248   3.345  18.037   2.070 -0.0222  0.2013  0.0913
32118W        W47249  14.191   5.750   5.896  0.0379  0.2448  0.2090
32119W        W47250   9.001  15.056  11.733 -0.1412 -0.1105 -0.1572
32120W        W47251   1.524   3.868  11.091 -0.2553 -0.0211  0.1950
32121W        W47252  13.280  14.134   3.368  0.1127 -0.0706 -0.0653
32122W        W47253   9.553   3.333   0.257  0.0013  0.0409 -0.0492
32123W        W47254   5.195  15.970   2.971  0.3017  0.1090 -0.0181
32124W        W47255   8.357  18.048   2.793  0.1256  0.3201  0.1150
32125W        W47256  13.913  10.604  11.307  0.0367  0.1414  0.1757
32126W        W47257  11.009  12.841   2.797 -0.1802  0.0217  0.1202
32127W        W47258   7.332   8.097   5.446 -0.3383  0.1135  0.1840
32128W        W47259   7.711   2.272   5.507  0.0590  0.0969  0.0894
32129W        W47260   7.073   7.558   4.618  0.0782 -0.0695  0.0418
32130W        W47261   3.196  18.103  11.577  0.0253  0.3435  0.0534
32131W        W47262   5.739   1.171  12.889  0.0434  0.0833  0.1183
32132W        W47263   4.327  17.158  12.706  0.0273 -0.0877  0.1373
32133W        W47264   6.417   0.955   1.190 -0.0528 -0.0900  0.2989
32134W        W47265   6.072   8.633  15.587 -0.1021  0.0368  0.1107
32135W        W47266   8.902  10.461   1.886 -0.1833  0.1708  0.3778
32136W        W47267   0.261   7.247  12.118 -0.3477 -0.1600  0.0350
32137W        W47268   0.698   2.751   5.064 -0.2297 -0.1680 -0.0674
32138W        W47269   5.039   7.592  14.681 -0.1786  0.1022  0.2443
32139W        W47270  16.757   2.277  14.847  0.4164 -0.1690 -0.0978
32140W        W47271   8.823   1.900  13.605 -0.1736 -0.1017 -0.2385
32141W        W47272   8.032   6.299  15.983 -0.0290  0.0127 -0.3301
32142W        W47273   7.900   0.031  13.868  0.3253  0.2146  0.0534
32143W        W47274   7.195   3.365   4.744  0.3084  0.2838  0.3143
32144W        W47275  12.274  17.304   5.374  0.2759 -0.0797  0.1612
32145W        W47276   9.033   0.704   4.746 -0.0362  0.2370  0.1586
32146W        W47277   0.566   6.541   1.570 -0.0301  0.2601 -0.1788
32147W        W47278   2.919   1.019  15.560  0.1233 -0.0710  0.2513
32148W        W47279  10.694   9.900   4.031  0.1577 -0.0037 -0.0493
32149W        W47280  12.650   2.812  13.736  0.1844  0.0925  0.0317
32150W        W47281  18.076   0.586   0.615  0.1243 -0.1882  0.1185
32151W        W47282   9.829  13.414  11.200 -0.2358 -0.2523 -0.0770
32152W        W47283   9.389   4.914  13.647  0.1727 -0.0205 -0.1051
32153W        W47284   7.642  12.423  14.663 -0.0459 -0.1571  0.1769
32154W        W47285  14.697  12.791   2.310  0.0238  0.0908  0.2497
32155W        W47286   3.320   0.740   2.774 -0.2446  0.1040  0.1587
32156W        W47287   0.693   4.249  13.058 -0.2180 -0.1739  0.2392
32157W        W47288   8.671   5.334  12.114  0.0806 -0.2730  0.1299
32158W        W47289  14.251   7.116  12.148 -0.2090  0.2709 -0.4212
32159W        W47290   0.317   3.514  13.028  0.1341 -0.1335  0.0568
32160W        W47291   9.722  10.055  13.203  0.1393 -0.1866  0.1123
32161W        W47292   4.835   1.769  12.167  0.0133 -0.2029  0.0800
32162W        W47293   2.441   6.668  11.131  0.0373  0.1839 -0.3453
32163W        W47294   2.170   0.849   3.850  0.1891 -0.0749 -0.1290
32164W        W47295   6.225   1.618  12.561  0.1018  0.2713 -0.0903
32165W        W47296   9.744  12.395  12.443  0.0194  0.1534 -0.1747
32166W        W47297  18.090  16.794   4.176  0.0549  0.4077  0.0925
32167W        W47298   7.391   3.621  14.467  0.1903  0.0209  0.3110
32168W        W47299  16.279   9.041  11.121 -0.3843  0.2519 -0.1489
32169W        W47300  15.337   0.015  14.441 -0.0275  0.0447 -0.4460
32170W        W47301   0.641   7.938  13.554  0.0833  0.1381  0.0420
32171W        W47302   0.333  10.774  12.927 -0.2038  0.1802  0.0624
32172W        W47303   8.646   8.284  13.993 -0.1800 -0.0298  0.0473
32173W        W47304   5.978  13.155  10.932  0.2872  0.0256 -0.0144
32174W        W47305   3.399   1.304   0.906  0.1796 -0.2532 -0.1369
32175W        W47306   3.509   7.372  11.358 -0.2022  0.0667 -0.2131
32176W        W47307   5.693   9.173   3.963  0.2533 -0.5076  0.2058
32177W        W47308  14.321   0.862   3.497 -0.1767  0.0851 -0.0524
32178W        W47309   1.850   4.852  15.642  0.1120  0.0541  0.0191
32179W        W47310  13.663  14.499  10.970 -0.0457 -0.0194  0.1530
32180W        W47311   5.304  14.619   3.424 -0.0504  0.1397  0.2023
32181W        W47312  16.150  15.260   0.547  0.2368  0.1085  0.1875
32182W        W47313   3.848   3.397  11.152  0.3136  0.5509  0.2834
32183W        W47314   1.338   9.150  11.858 -0.0977 -0.1737 -0.2785
32184W        W47315   9.577  10.566  14.232 -0.0466 -0.3133 -0.1167
32185W        W47316   5.868   8.258   0.341  0.3434 -0.2506 -0.2016
32186W        W47317   7.440   6.718   0.703  0.0080 -0.1741  0.0713
32187W        W47318  17.082   7.073   4.065  0.0075 -0.0666  0.0517
32188W        W47319  12.142  15.771  13.405 -0.0103  0.0901  0.0055
32189W        W47320   3.282  17.692   3.596  0.2279  0.0608 -0.0751
32190W        W47321  11.662  12.611  12.559 -0.2574  0.3242  0.1689
32191W        W47322   5.728  13.776  14.419 -0.2503 -0.2706  0.0029
32192W        W47323  12.288   9.537   2.803  0.0290  0.1850 -0.2575
32193W        W47324  17.180   2.442  12.418 -0.0732 -0.3263  0.1101
32194W        W47325  13.569   1.957  14.988  0.2392 -0.0612  0.0910
32195W        W47326  10.099  11.887  16.132 -0.1106 -0.0556  0.0909
32196W        W47327  15.087  12.856  16.026  0.2799  0.0120 -0.2509
32197W        W47328  13.496   6.347  14.678 -0.2637  0.1471  0.0874
32198W        W47329   7.771   3.282  12.995  0.0314  0.1915 -0.1172
32199W        W47330   1.310   6.172  13.943  0.0841  0.1490  0.2456
32200W        W47331   2.570  13.191   0.236  0.0833  0.1437  0.2518
32201W        W47332   8.625   9.927  16.110  0.0986 -0.0004 -0.0560
32202W        W47333  12.318   4.578   0.070 -0.4793  0.3466 -0.0668
32203W        W47334  15.947   4.672   6.320 -0.0760 -0.3094 -0.2130
32204W        W47335   6.781  16.588  15.756 -0.1248 -0.0532  0.0166
32205W        W47336  10.996  12.708   2.226 -0.1292 -0.1893 -0.1723
32206W        W47337   2.209  16.102   6.088 -0.0966  0.1894 -0.0642
32207W        W47338  16.684  16.383   4.678  0.0031  0.2400 -0.0289
32208W        W47339   2.798   5.184  11.788  0.0683  0.0188  0.3479
32209W        W47340  16.086  11.861  11.541  0.0355 -0.1213  0.0455
32210W        W47341  10.498   4.493   3.379 -0.0395 -0.0779 -0.1469
32211W        W47342  11.017   2.767   3.580  0.2740  0.1037  0.1089
32212W        W47343  16.217   6.889   0.632 -0.2683  0.2094 -0.2991
32213W        W47344  16.603   9.314  10.842 -0.1730 -0.5976  0.2283
32214W        W47345  11.436   9.604  12.702  0.2693 -0.1709 -0.0807
32215W        W47346  12.800  14.458   0.232 -0.2676  0.0088  0.0876
32216W        W47347  13.658   4.385   2.318 -0.2471 -0.1256  0.1618
32217W        W47348  15.575  17.478   5.287  0.0310 -0.1698  0.2514
32218W        W47349  15.786  16.927   5.279 -0.0811  0.1077 -0.1075
32219W        W47350   6.832   7.839  12.347 -0.3580 -0.2842  0.1116
32220W        W47351  11.735   0.302   4.073  0.3150  0.0713 -0.0836
32221W        W47352   8.903  12.955   2.145  0.1323 -0.0438 -0.0598
32222W        W47353   3.120   5.268  15.523  0.0285 -0.1887 -0.0395
32223W        W47354  10.022  11.715  15.275 -0.0402  0.0352  0.0952
32224W        W47355  14.186   0.015  11.643 -0.0320  0.1871 -0.0769
32225W        W47356   1.514   1.766   3.982  0.3290  0.0776  0.3739
32226W        W47357   8.857   6.964  13.260  0.0967  0.0595 -0.0338
32227W        W47358   1.657   7.058   3.077 -0.0117 -0.1079 -0.1956
32228W        W47359   1.513   0.595   4.604  0.1909  0.1342 -0.1235
32229W        W47360   3.418  12.228   0.961  0.1840  0.1291 -0.0403
32230W        W47361   8.567   7.050   5.654 -0.1104  0.0729  0.3511
32231W        W47362   0.470  16.648   3.610  0.1170 -0.2989 -0.0775
32232W        W47363  11.593   6.622  12.588 -0.0993  0.3144 -0.0103
32233W        W47364  13.825   3.202   1.863  0.1825 -0.1118 -0.0735
32234W        W47365  11.728  14.329   3.311  0.2241 -0.0847 -0.1200
32235W        W47366   7.233   7.957  14.836  0.0247  0.2128  0.1945
32236W        W47367   1.657  13.544  14.392 -0.0091 -0.2770 -0.3434
32237W        W47368   0.306   3.065   4.067  0.0891  0.2052  0.3064
32238W        W47369   5.671  10.451   0.586 -0.1648 -0.0161  0.0098
32239W        W47370  14.760  12.278   4.504  0.1758 -0.1397  0.0092
32240W        W47371   5.937   2.375  11.723 -0.1306 -0.1537 -0.2027
32241W        W47372   8.971   2.413   0.903  0.1663 -0.0738 -0.1237
32242W        W47373   4.616   1.810  14.215 -0.1272 -0.0759  0.1507
32243W        W47374   6.032   9.396   2.159 -0.3138 -0.2459  0.1301
32244W        W47375  15.849   8.052  16.197 -0.0606  0.1982 -0.2417
32245W        W47376   9.873   1.393   6.298  0.1665  0.2221 -0.1122
32246W        W47377  16.197   4.308   3.011  0.2949 -0.0964  0.2051
32247W        W47378  14.054   6.713   2.875  0.2553  0.5991 -0.3491
32248W        W47379  15.755   4.663   2.791  0.1912  0.1382  0.2594
32249W        W47380  13.787  15.990  16.417  0.3410 -0.3312 -0.1542
32250W        W47381   0.792  10.539  12.166  0.1174 -0.0519 -0.1788
32251W        W47382  11.829   6.826  16.282  0.0180  0.0229  0.0661
32252W        W47383   3.388   3.531   4.886  0.0786  0.2655  0.2082
32253W        W47384  14.413  14.516  11.769  0.1904 -0.1017 -0.0585
32254W        W47385  14.986  16.790   2.602 -0.1121 -0.0645 -0.2615
32255W        W47386   8.656   8.784  15.836 -0.0740  0.1070 -0.2296
32256W        W47387  13.309   6.111   5.544 -0.0636 -0.1235  0.0799
32257W        W47388  12.191   7.883   3.466 -0.0016  0.0172  0.1576
32258W        W47389  16.437  13.925   4.897 -0.0428 -0.2220 -0.2421
32259W        W47390   5.911  16.556  13.160  0.1983  0.2421  0.0419
32260W        W47391  16.854  17.329   5.242  0.2645  0.5385 -0.1075
32261W        W47392  12.634   2.858  16.449  0.0931 -0.1854 -0.0457
32262W        W47393  10.585   5.453   0.181 -0.2897  0.4110  0.1529
32263W        W47394   6.710  12.891   1.575  0.0861 -0.1426  0.0583
32264W        W47395   9.576   7.826  15.724 -0.1176  0.0663 -0.3454
32265W        W47396   3.782  17.882  16.435 -0.0330  0.3256 -0.0244
32266W        W47397  12.650   2.216   2.688 -0.3300  0.2306  0.0318
32267W        W47398   8.398  10.388   0.308  0.2018 -0.0194  0.3720
32268W        W47399  15.571  13.609  12.226 -0.0570  0.1166  0.2559
32269W        W47400   7.514   1.095   3.862 -0.2550 -0.3080 -0.0154
32270W        W47401  15.514  12.280   3.326 -0.1620  0.2750  0.0704
32271W        W47402  12.324  11.545   1.548  0.0908 -0.1231  0.3328
32272W        W47403   6.343  17.067  12.014 -0.3575  0.1867  0.0949
32273W        W47404  16.542   4.772   1.656 -0.0601  0.1722 -0.2004
32274W        W47405   6.382  16.563  13.943  0.1393  0.0399 -0.0499
32275W        W47406  12.027  14.593  15.326  0.0901 -0.0444  0.1484
32276W        W47407   0.044   2.454   4.938  0.4696 -0.0548  0.1119
32277W        W47408  12.310  10.269   0.916  0.1349  0.0511 -0.0264
32278W        W47409  11.259   5.561   0.916 -0.0741 -0.0543 -0.2225
32279W        W47410  12.038  15.976   1.253 -0.2704  0.2440  0.0445
32280W        W47411  15.604   5.086   1.822 -0.1768  0.2524 -0.0501
32281W        W47412   7.279  12.504  15.711  0.2552 -0.2289  0.0508
32282W        W47413   6.356   1.977   4.321  0.3605  0.0818  0.0280
32283W        W47414   5.672  16.135  14.831  0.3677  0.2210  0.0520
32284W        W47415   9.830  10.880  12.538 -0.1206 -0.2924  0.3908
32285W        W47416   6.324  11.655   2.915 -0.1068  0.1252 -0.0601
32286W        W47417   6.831   7.668  15.077 -0.1948  0.0058  0.2402
32287W        W47418  10.886   3.493   2.359  0.2196  0.2734 -0.0607
32288W        W47419   7.296  15.115  15.896  0.1500  0.2904  0.0394
32289W        W47420   8.881   0.635  15.450  0.0041  0.1307 -0.0303
32290W        W47421   5.194  16.086   6.475  0.0468  0.2453  0.1580
32291W        W47422  10.292   2.303  11.120  0.1852  0.0085 -0.1551
32292W        W47423   7.970  12.639   1.189  0.1327  0.1921  0.2299
32293W        W47424  13.629  12.090   3.004 -0.1727  0.3620  0.0315
32294W        W47425   9.522  15.212  12.504 -0.0931 -0.1468 -0.0509
32295W        W47426  11.645   4.099   0.849  0.1042  0.0451  0.2255
32296W        W47427   4.962   6.541   3.909  0.1809  0.0362  0.0843
32297W        W47428   2.242   2.296  13.735 -0.1168  0.0410  0.2596
32298W        W47429  16.275   3.475   2.790 -0.2025 -0.0504 -0.1499
32299W        W47430   5.320   5.653   2.510  0.1637  0.0317 -0.2128
32300W        W47431  14.387  16.900   3.442  0.0980 -0.0111  0.0716
32301W        W47432  12.489   5.530  13.488  0.1907  0.1544 -0.1433
32302W        W47433   7.923  17.649  15.070 -0.0592 -0.0692  0.0023
32303W        W47434   9.267   3.323   1.717 -0.0885 -0.0777 -0.0648
32304W        W47435   4.787   5.153  13.314 -0.0604  0.0239  0.2012
32305W        W47436  15.538  15.250   1.842 -0.0025 -0.1760 -0.2575
32306W        W47437  13.659   7.763  14.271 -0.2000  0.0581 -0.0809
32307W        W47438   2.146  16.478   4.093  0.4285 -0.2943  0.2952
32308W        W47439   7.685   6.332   0.365 -0.2089  0.0478 -0.0988
32309W        W47440  11.584   1.751  11.131 -0.3251  0.0885  0.0722
32310W        W47441   4.225  17.920   0.959  0.2024 -0.1784 -0.2908
32311W        W47442  18.022   4.236   3.275 -0.0487  0.0408  0.1465
32312W        W47443  13.632   6.679   3.367 -0.0935 -0.3446 -0.2660
32313W        W47444   4.897   1.020  14.901  0.0406  0.2978  0.1717
32314W        W47445  10.321   1.314  15.865  0.1434  0.1210 -0.0030
32315W        W47446   3.315   6.345  14.655 -0.3617 -0.3530  0.1235
32316W        W47447  16.262   4.814   2.834 -0.2315  0.0433 -0.0782
32317W        W47448   2.097  13.264   1.057 -0.0259  0.0923 -0.2265
32318W        W47449   3.560   1.971   0.437  0.0759  0.1519  0.1336
32319W        W47450   2.648   5.329   0.510  0.1572 -0.1613 -0.1409
32320W        W47451   6.354  17.897  13.477 -0.2580 -0.1491 -0.4710
32321W        W47452  15.318   0.321  11.385  0.0945  0.3115 -0.0876
32322W        W47453   3.660   9.201   2.278  0.0538  0.1596 -0.1878
32323W        W47454   1.464  14.756  16.268 -0.1074  0.1709 -0.2643
32324W        W47455   0.155   2.024  11.549  0.1772 -0.1715 -0.0620
32325W        W47456   6.537  10.294  13.550  0.1324 -0.1176 -0.2456
32326W        W47457   4.427   3.959  12.842  0.3364  0.1003  0.0519
32327W        W47458  12.735   2.546   3.854 -0.3475  0.0482 -0.0115
32328W        W47459   8.679   8.887   4.364  0.1058 -0.0168  0.2817
32329W        W47460   9.655   8.093   3.992  0.1529  0.1029  0.2081
32330W        W47461  14.149   7.239   3.834  0.1898  0.1519  0.0621
32331W        W47462   8.989   6.545  13.567 -0.1708  0.0645 -0.0465
32332W        W47463   4.360   6.064   2.179 -0.2140  0.0129 -0.0352
32333W        W47464   2.553  14.719  14.116 -0.0388 -0.1247  0.1834
32334W        W47465  13.518   4.044   4.464  0.2540 -0.2002  0.1411
32335W        W47466  17.166   4.023   3.756 -0.0650  0.0121 -0.1815
32336W        W47467   0.757  13.428   5.336  0.0691  0.0526 -0.4207
32337W        W47468  11.374   3.750  13.053  0.1225 -0.0607  0.3854
32338W        W47469   6.135   7.662   5.119  0.2373 -0.2072 -0.0130
32339W        W47470  13.256  10.261   5.312 -0.2957  0.0413 -0.2514
32340W        W47471   8.047   0.973   4.887 -0.1229  0.2301 -0.2224
32341W        W47472   1.841   1.118  12.095  0.0020  0.1588  0.1321
32342W        W47473   5.657   3.453   3.139  0.0033 -0.2470 -0.1695
32343W        W47474  10.253   0.326   1.597 -0.0892 -0.1250 -0.1004
32344W        W47475  14.029   8.419  13.372 -0.0731  0.0972 -0.1051
32345W        W47476  11.880  17.687   1.570  0.2093  0.0354  0.0749
32346W        W47477   3.981   0.202   5.048  0.0775  0.1321 -0.3799
32347W        W47478   7.995   9.910  12.554 -0.1512 -0.0334 -0.0602
32348W        W47479  15.218  17.232   2.398  0.2076  0.0735  0.0225
32349W        W47480  16.931   8.733   5.052  0.0098 -0.2942 -0.0187
32350W        W47481  11.883  14.924   1.678 -0.0996 -0.0366  0.0192
32351W        W47482  16.793   8.915  15.701  0.5441  0.1205  0.0246
32352W        W47483   2.204  16.789   4.567 -0.0047 -0.2123  0.2458
32353W        W47484   0.889  12.960  14.277 -0.0283  0.4464 -0.2521
32354W        W47485  13.450   9.951  13.317 -0.1747 -0.3922  0.1781
32355W        W47486   0.677   9.282  13.232  0.0138 -0.2668  0.1870
32356W        W47487   1.388  13.758   1.875 -0.2255  0.2317  0.1279
32357W        W47488   3.439  10.417  13.836  0.0999  0.2291  0.2380
32358W        W47489   1.943  15.192   5.926  0.1511  0.3391 -0.3175
32359W        W47490  17.883   2.018   3.645  0.1132  0.2319 -0.0722
32360W        W47491   1.291   0.412   5.067 -0.0688 -0.1340 -0.0321
32361W        W47492  14.014   3.829   2.823 -0.2967 -0.0889 -0.2642
32362W        W47493   1.384   4.221  11.417  0.0417 -0.1962  0.0149
32363W        W47494   4.997   0.407  16.286  0.0551 -0.1411 -0.0755
32364W        W47495   1.062   8.893   2.804 -0.1912  0.2115 -0.2183
32365W        W47496   5.903  11.851   4.057  0.0969 -0.1852 -0.4124
32366W        W47497   5.967  17.168  14.161  0.2076 -0.3974  0.0208
32367W        W47498   1.206   0.266   0.377  0.0337  0.1775 -0.0736
32368W        W47499  11.405  16.538  12.040  0.1970  0.1029 -0.2912
32369W        W47500  17.303  13.048  14.075  0.0073 -0.2282  0.1980
32370W        W47501   3.787   6.498   3.373 -0.0738 -0.0097 -0.1516
32371W        W47502  14.776   6.276  14.295  0.2888 -0.1282  0.1254
32372W        W47503  14.259   4.161   0.958 -0.2074  0.3036  0.2412
32373W        W47504   9.664   5.802   3.288  0.0288 -0.1576 -0.1398
32374W        W47505   0.377   2.621  11.547  0.0696 -0.3041 -0.1837
32375W        W47506   0.496   7.863   0.234 -0.3427  0.2310 -0.3993
32376W        W47507   4.859  15.768  15.397  0.2537 -0.4122  0.0448
32377W        W47508   2.770  11.812  14.683  0.0302  0.3086 -0.3426
32378W        W47509  12.077   0.129   5.496  0.0174  0.3613 -0.2007
32379W        W47510   9.611  13.525   1.106 -0.4642  0.1339  0.1919
32380W        W47511  17.125   6.950  13.253  0.0606  0.1920  0.1961
32381W        W47512   7.867   2.710   5.296  0.2488 -0.0538  0.1511
32382W        W47513   6.672   4.354   1.121  0.5459 -0.2096 -0.2490
32383W        W47514   1.591   7.424  12.597 -0.0167  0.0739  0.1305
32384W        W47515   2.681   8.874   4.058 -0.0044  0.1101  0.1766
32385W        W47516  11.378  10.361  16.318  0.0642 -0.0120 -0.0337
32386W        W47517   3.716   6.988   4.223 -0.0335 -0.0832  0.0429
32387W        W47518   8.310   7.342   1.197 -0.0187 -0.0684 -0.0519
32388W        W47519  10.990   6.566   2.922  0.0514 -0.1017 -0.0622
32389W        W47520  13.648  16.427   4.418 -0.1573 -0.2306  0.1688
32390W        W47521   0.660   7.442  13.147 -0.1356  0.0038  0.2393
32391W        W47522  12.111  10.233  12.893  0.0558 -0.1248  0.0298
32392W        W47523  17.353  11.056   1.199 -0.2915 -0.0780  0.0725
32393W        W47524  14.733   3.802   0.815 -0.1788  0.3395 -0.3343
32394W        W47525   0.515  14.673  12.632 -0.1333 -0.0355 -0.0414
32395W        W47526  15.717   5.476   2.702 -0.0096 -0.0941 -0.0357
32396W        W47527  14.466   3.080   1.180  0.1945 -0.1300 -0.0832
32397W        W47528   6.672   9.041  16.332 -0.0183 -0.2200 -0.0308
32398W        W47529   6.145  16.489   3.910  0.0737  0.1944  0.1740
32399W        W47530   4.195   5.350   3.225 -0.0371 -0.0036 -0.0030
32400W        W47531   6.086  17.663   2.392 -0.1189  0.0935  0.1042
32401W        W47532  11.450   8.545   6.110 -0.0367 -0.0144  0.2513
32402W        W47533   3.181  10.158  14.928 -0.1213  0.0607 -0.0828
32403W        W47534   1.755  16.488  13.491  0.0594  0.0836 -0.3288
32404W        W47535   0.130   6.278  15.294  0.0907  0.0395 -0.0336
32405W        W47536   9.764   4.090  12.699 -0.1211 -0.0532  0.1082
32406W        W47537  13.860   7.896   5.743 -0.0064  0.0091 -0.1013
32407W        W47538  13.055   6.622   2.781  0.1207  0.1360 -0.2331
32408W        W47539   5.944  17.489  12.949 -0.0019  0.2861  0.1999
32409W        W47540   3.622   5.861  13.955  0.3895 -0.1112 -0.1909
32410W        W47541  13.023  16.452   0.315  0.1084 -0.2232  0.0703
32411W        W47542   9.528   5.448   3.927  0.1178  0.2521  0.0271
32412W        W47543   1.441  10.543   4.902 -0.0549 -0.0888 -0.0689
32413W        W47544   7.350  15.494   2.216 -0.3896  0.0881 -0.3000
32414W        W47545  14.876   6.274   2.962 -0.0609  0.0760 -0.0382
32415W        W47546  14.309  14.826  10.456 -0.0290 -0.1802  0.1170
32416W        W47547   9.339   1.872  12.010 -0.1131 -0.1764 -0.0736
32417W        W47548   9.257  12.669  12.385  0.1331  0.2142  0.1457
32418W        W47549   5.685  14.827  15.538 -0.1453 -0.1178 -0.0566
32419W        W47550   7.179   3.601  15.684  0.0476  0.1280  0.0707
32420W        W47551   2.870   7.172   1.164  0.1362 -0.2476 -0.1215
32421W        W47552   1.140  17.411   0.523 -0.1684  0.0905  0.1578
32422W        W47553  10.049  15.641  15.934  0.0653 -0.0186  0.1036
32423W        W47554  13.225  11.231  14.487 -0.3252 -0.1015  0.0899
32424W        W47555   1.931  13.846  12.725 -0.1401 -0.0644  0.1441
32425W        W47556   1.037   4.654   5.062 -0.0132 -0.3070 -0.0748
32426W        W47557   7.150  17.726   5.954 -0.0362 -0.1324  0.1052
32427W        W47558   8.440   8.637   2.753  0.0189 -0.0650 -0.0719
32428W        W47559  14.971  11.525  15.206  0.2942  0.0985 -0.0382
32429W        W47560   4.748   8.627  15.471 -0.2643 -0.0077 -0.0812
32430W        W47561  16.740   5.970   1.396 -0.0560  0.1874  0.1349
32431W        W47562   4.911   2.243  14.302  0.0294  0.1403  0.1195
32432W        W47563   5.876   9.788   3.840 -0.3047 -0.2173  0.1850
32433W        W47564  13.004  14.294  14.922 -0.1040 -0.2286 -0.0237
32434W        W47565   1.714   9.372  15.414  0.1375 -0.0787  0.2015
32435W        W47566   7.638  15.144  11.880  0.2754  0.2116 -0.1738
32436W        W47567   2.235  16.238   2.835 -0.1033 -0.0204 -0.1504
32437W        W47568   3.787   5.051  15.025 -0.0032 -0.4192  0.1520
32438W        W47569  17.588   7.339  14.303  0.2382  0.0415 -0.3908
32439W        W47570  10.094   7.644   3.324 -0.2605  0.0387 -0.2344
32440W        W47571   5.595  11.613  12.661  0.0360 -0.1510 -0.0782
32441W        W47572   3.435  13.956  15.195  0.1733 -0.0053 -0.1611
32442W        W47573  12.608  15.944   5.590 -0.0311 -0.3335 -0.2001
32443W        W47574   6.179   7.776  14.652 -0.1251 -0.1041  0.0150
32444W        W47575  12.612   8.455   0.180  0.0890 -0.0575  0.0784
32445W        W47576   0.484   8.577   5.169  0.0979 -0.0394  0.0175
32446W        W47577   6.309  13.237   3.138  0.2431  0.1763  0.1164
32447W        W47578   6.835   0.847   4.454  0.1500  0.0589 -0.1985
32448W        W47579   1.230  14.812   3.861 -0.1300 -0.1375  0.0031
32449W        W47580  12.939  11.866  11.184 -0.0235 -0.0101  0.0611
32450W        W47581  11.574   8.987   3.920  0.0311 -0.1500  0.0442
32451W        W47582   7.173  16.636  12.299 -0.2420 -0.0542  0.3129
32452W        W47583   9.772   8.202  12.410 -0.0680 -0.1847 -0.5271
32453W        W47584   7.367  15.471   3.493 -0.1500  0.0502  0.1134
32454W        W47585   3.846   9.277  15.700  0.0575  0.1858 -0.2595
32455W        W47586   5.274   0.270   1.758 -0.2933 -0.0370  0.0379
32456W        W47587   9.785  15.945   6.270  0.0220 -0.2253  0.0498
32457W        W47588   6.259   8.612   2.067 -0.1743 -0.0385  0.1213
32458W        W47589   7.954  11.951   4.877 -0.2958  0.3110 -0.2835
32459W        W47590   8.385   3.296  11.823 -0.1692 -0.0537  0.1008
32460W        W47591   6.086  13.415   4.402  0.0649  0.2451  0.1131
32461W        W47592   9.840  16.018  16.121  0.2206  0.1826 -0.0262
32462W        W47593   8.208   0.385  11.179 -0.1238 -0.0704  0.1321
32463W        W47594   5.337  13.909  15.825  0.3204 -0.0253  0.0901
32464W        W47595   9.223   1.675   4.626  0.1347  0.3479 -0.1814
32465W        W47596  17.048   9.806  15.316  0.1315  0.1856 -0.4466
32466W        W47597   2.541   9.694  11.116  0.1365  0.0067 -0.1043
32467W        W47598   3.399  10.018   0.626 -0.0639  0.1785 -0.3023
32468W        W47599  16.843  14.453   5.648 -0.1255 -0.1928 -0.1254
32469W        W47600   6.808  13.562  15.941 -0.3207  0.1254  0.0130
32470W        W47601  11.833  14.319   0.632  0.3096  0.1701 -0.0569
32471W        W47602   0.224  14.142   4.322  0.0162  0.1116 -0.2456
32472W        W47603  12.639   3.786   1.826  0.3051 -0.1058 -0.1464
32473W        W47604   6.579   7.175  15.541 -0.0347  0.1634  0.2428
32474W        W47605   9.636   0.863   6.016 -0.0876 -0.0209  0.2456
32475W        W47606   6.726   7.877   4.369 -0.0382  0.0193 -0.0371
32476W        W47607   9.390  11.205  15.601 -0.0195  0.0565 -0.2355
32477W        W47608   2.755   0.994   6.643  0.2139  0.0964 -0.1554
32478W        W47609   6.427  14.565  11.856 -0.0582  0.2417  0.0130
32479W        W47610  10.262   0.389   3.267 -0.0503 -0.0594 -0.3083
32480W        W47611   6.133  14.973  12.771  0.1412 -0.0566  0.1742
32481W        W47612   4.913  15.917   5.248  0.0979  0.1959  0.7476
32482W        W47613   4.984  16.573   2.384  0.0325  0.0033  0.4098
32483W        W47614  11.566  12.904   3.526  0.4663 -0.1625 -0.1139
32484W        W47615   8.660  11.785   4.586  0.1346 -0.3766  0.1159
32485W        W47616  12.864   6.740   4.852  0.0679 -0.4793  0.3350
32486W        W47617  10.855   9.177  15.967 -0.1591 -0.2348 -0.0755
32487W        W47618  15.421   8.832  14.860 -0.0274 -0.1913 -0.0812
32488W        W47619   6.006   7.474   2.826 -0.1428  0.0977 -0.2997
32489W        W47620  17.096  11.363   0.200  0.2115  0.0706 -0.1777
32490W        W47621   1.769   7.006   1.832  0.3129  0.1453  0.3763
32491W        W47622  10.575   9.050   5.400 -0.2930  0.1407 -0.0903
32492W        W47623  12.119  10.730  15.738  0.3040 -0.0421  0.1289
32493W        W47624  10.421  10.676   3.986  0.0734  0.1099 -0.0782
32494W        W47625   8.801   9.620  15.036 -0.2148 -0.0005 -0.2624
32495W        W47626  16.511  12.609   3.487 -0.2676  0.3291 -0.1998
32496W        W47627  14.484  14.487  12.698 -0.0615  0.0186  0.2112
32497W        W47628   5.638  11.666  14.404  0.1323  0.0963  0.1517
32498W        W47629  17.454  16.793   4.895  0.2515 -0.0116  0.2233
32499W        W47630  13.749   4.414  15.618 -0.0059 -0.4372  0.0660
32500W        W47631  12.169   4.072  11.606 -0.2320  0.0686  0.1811
32501W        W47632   4.870   9.069  12.545  0.2818  0.1051 -0.0914
32502W        W47633  11.691  10.733  13.429  0.0279 -0.1343 -0.1125
32503W        W47634   1.901  15.039   2.082  0.0790  0.1721 -0.0623
32504W        W47635  13.455   5.366  13.732  0.1672  0.0499 -0.0026
32505W        W47636   1.681   4.438   0.910 -0.0619  0.0215 -0.1252
32506W        W47637  11.689   7.622  12.750 -0.0048 -0.1596  0.1419
32507W        W47638  12.540  13.958   2.942 -0.3645  0.0292 -0.0539
32508W        W47639  16.077   8.089  13.330  0.1505 -0.0846 -0.0648
32509W        W47640   6.452   6.978  13.311 -0.6756 -0.1100 -0.0612
32510W        W47641  16.187   2.132   4.212 -0.2758 -0.0314 -0.1977
32511W        W47642   4.333   9.095  12.559 -0.1946 -0.1822 -0.0237
32512W        W47643  10.392  12.175   4.276  0.0424  0.0267  0.3014
32513W        W47644  16.658   3.185  12.706 -0.2896 -0.0659  0.0280
32514W        W47645   1.530  16.254  10.433 -0.2050  0.1245  0.0544
32515W        W47646   6.082  15.578  12.639  0.0834 -0.2347 -0.3543
32516W        W47647   2.304  10.935   2.167  0.1489  0.0631  0.0103
32517W        W47648   2.537  11.314  11.860  0.1796  0.1408 -0.0957
32518W        W47649  11.541   1.379  14.054  0.2549  0.0587  0.0689
32519W        W47650   0.722  16.781   0.094  0.1673 -0.1498 -0.4096
32520W        W47651   2.598  14.786   0.782  0.3550 -0.4414 -0.1439
32521W        W47652   0.062  14.995   5.883  0.2682  0.0485 -0.0699
32522W        W47653   3.167  14.599  13.862  0.1432  0.0500  0.0907
32523W        W47654   1.855   4.022   5.512  0.1018  0.0202 -0.0204
32524W        W47655  13.015   4.963   5.922  0.0597 -0.1203 -0.0511
32525W        W47656   6.340   6.023   2.419  0.3267 -0.3419  0.1556
32526W        W47657   6.380   0.068   4.861 -0.1534 -0.1924 -0.1534
32527W        W47658   6.078  12.742  13.369 -0.0015 -0.0724  0.0662
32528W        W47659  14.795   6.339  10.625 -0.0862 -0.0689 -0.2244
32529W        W47660   8.336   2.333   2.151 -0.1463 -0.0619  0.1001
32530W        W47661  16.311   4.918  11.773 -0.1875 -0.5440  0.0016
32531W        W47662   0.694   9.533   0.393  0.0577 -0.1548  0.2397
32532W        W47663  17.794   1.466  10.948 -0.1630 -0.2360  0.1736
32533W        W47664  11.874  10.866   1.520 -0.1386  0.2912 -0.0418
32534W        W47665   0.452  12.746  16.373 -0.1842 -0.1032  0.0166
32535W        W47666   1.015  11.791  15.902 -0.0625  0.3010 -0.1463
32536W        W47667  15.801  16.383   4.740 -0.1013  0.0484  0.0991
32537W        W47668   4.022  10.576   0.778  0.1978 -0.3270 -0.2343
32538W        W47669   6.686  14.822   1.077 -0.0659  0.0797  0.1810
32539W        W47670   1.324  12.526  11.176  0.1627  0.0408 -0.2993
32540W        W47671  17.242   4.958   3.461 -0.1443 -0.0934 -0.1214
32541W        W47672   8.630  15.461  11.818  0.0805  0.2310  0.0837
32542W        W47673   3.646  11.866  14.786 -0.0065 -0.1617 -0.3398
32543W        W47674   9.112  17.839   0.739 -0.0945  0.2161 -0.1980
32544W        W47675   3.929   9.785  12.726 -0.0437 -0.1010 -0.3874
32545W        W47676   4.096   1.656  14.431 -0.1005  0.1030  0.0345
32546W        W47677  10.640   2.497   2.207 -0.0254 -0.0433  0.1147
32547W        W47678  10.610   2.227  16.285  0.0002  0.1109  0.0382
32548W        W47679   4.933  10.904   4.348  0.4263  0.3808 -0.0643
32549W        W47680  14.469   9.509  14.081 -0.0328  0.2125  0.0231
32550W        W47681   2.215  10.698   3.741  0.0454 -0.0955 -0.2281
32551W        W47682   9.264  17.535  14.071  0.1110  0.2482 -0.1836
32552W        W47683   3.207  10.601   9.581 -0.2711  0.0717 -0.3333
32553W        W47684   7.076  17.563   1.073  0.2831 -0.1367 -0.0095
32554W        W47685  10.521   5.885  15.422  0.1527  0.1213  0.1709
32555W        W47686  17.904   9.388  13.251  0.3229 -0.0541  0.0647
32556W        W47687  14.496  15.544  15.721  0.1724  0.0982 -0.0986
32557W        W47688  14.759   9.009   0.527  0.1963  0.0716 -0.2943
32558W        W47689   1.019   3.388  10.671 -0.3106  0.1331 -0.2718
32559W        W47690   3.609   6.921   3.687  0.0015  0.1436  0.0172
32560W        W47691  10.115  11.822  14.831  0.0284  0.1850 -0.0130
32561W        W47692  13.386   0.683   0.342 -0.0246 -0.1742  0.4437
32562W        W47693   2.266   7.658   2.487 -0.0691  0.3645  0.0779
32563W        W47694  17.613  12.450  11.643  0.2284  0.0975  0.0304
32564W        W47695  11.458   4.725  11.993  0.1910  0.1444  0.0952
32565W        W47696   0.268   7.199  13.355  0.0164 -0.1149 -0.0883
32566W        W47697  12.307   5.976   5.130  0.1677  0.0624 -0.1275
32567W        W47698  11.681   2.525  15.970 -0.0136  0.1895 -0.2097
32568W        W47699   1.249   1.840   2.192 -0.0318 -0.1287  0.3964
32569W        W47700  13.028  15.067   0.091  0.3244  0.1112  0.3895
32570W        W47701  15.581  12.068   2.474 -0.0680  0.0164 -0.1449
32571W        W47702   4.900  13.999  11.013  0.0284  0.1556 -0.0037
32572W        W47703   5.290   0.116  12.427  0.3475 -0.0168  0.2987
32573W        W47704  10.506   3.131   0.644 -0.0257 -0.1679  0.2904
32574W        W47705  11.944  15.729   3.576  0.0239 -0.0616 -0.0835
32575W        W47706   2.537  13.223   3.818  0.4239 -0.1087 -0.3752
32576W        W47707   6.980  12.933   2.450  0.1666 -0.0075  0.0995
32577W        W47708  13.061   0.657   3.494 -0.1355 -0.1049 -0.0045
32578W        W47709   3.457  14.914   5.635 -0.2127  0.0495  0.1275
32579W        W47710   8.507   7.466  15.412  0.3617  0.1737  0.1801
32580W        W47711   2.037  17.408   5.570 -0.0265  0.4381 -0.2517
32581W        W47712   2.093   4.103  14.431  0.3267 -0.0286  0.1238
32582W        W47713   5.256  12.196  13.050  0.1651 -0.1190 -0.1067
32583W        W47714  15.651   9.810  13.940 -0.0278  0.1102  0.1948
32584W        W47715   6.689   7.012  12.725 -0.1307 -0.2746 -0.1554
32585W        W47716   2.259   6.995  12.605 -0.1218  0.1494  0.0187
32586W        W47717   3.585  13.175   1.260 -0.0470  0.3074  0.0322
32587W        W47718   3.638  15.275  12.896  0.1017 -0.3449 -0.1123
32588W        W47719  16.794  14.358   2.744  0.1368 -0.0470 -0.1653
32589W        W47720  14.623   1.962   4.618 -0.1817 -0.3720  0.0101
32590W        W47721  17.175  11.657   0.645  0.1115  0.1420 -0.1109
32591W        W47722  12.887  11.547   3.389 -0.2721  0.0413 -0.0672
32592W        W47723  16.719   8.055   3.618  0.2598  0.1292  0.1135
32593W        W47724   6.651   7.941  13.141 -0.2462  0.1749 -0.0771
32594W        W47725  11.306   5.043  13.004 -0.0359 -0.1375 -0.1784
32595W        W47726  12.112   7.281  10.838 -0.1009  0.1991  0.0392
32596W        W47727  15.998  13.301  16.359  0.1080  0.0305 -0.2180
32597W        W47728  15.356   5.535   0.879  0.2240  0.0530 -0.2517
32598W        W47729  12.139   2.580  11.517  0.0339  0.2700 -0.2143
32599W        W47730   3.400   7.630  15.262  0.1136  0.1127  0.3223
32600W        W47731   5.668  12.269   0.834  0.3146 -0.0090  0.0853
32601W        W47732  13.348  15.474   0.927 -0.0885  0.1761 -0.3653
32602W        W47733  15.327  12.920  13.909 -0.1658 -0.0782 -0.0563
32603W        W47734   4.621  12.359   3.528 -0.0775  0.0396  0.2234
32604W        W47735  15.248   4.090  14.693  0.1423 -0.1691 -0.3699
32605W        W47736  12.706   6.136   4.225 -0.0317 -0.0580 -0.0801
32606W        W47737  11.566  10.798  10.109 -0.2824 -0.0940 -0.1133
32607W        W47738   0.789  14.793   0.667 -0.0855 -0.2695  0.0744
32608W        W47739   4.781  11.876   0.361 -0.0047  0.1129 -0.0145
32609W        W47740  13.865   8.402   1.379  0.1368  0.1114  0.2380
32610W        W47741   0.006   6.234  13.485 -0.0233 -0.2263  0.4259
32611W        W47742   4.229  16.785   1.435 -0.1942  0.2373 -0.2670
32612W        W47743   6.684   6.335   4.436 -0.1575  0.2235  0.0692
32613W        W47744   1.609   2.762  12.542  0.1150 -0.1374  0.0528
32614W        W47745  10.132  13.305   2.240 -0.1005  0.0883 -0.1837
32615W        W47746   3.551  13.863   5.093  0.3616  0.3108 -0.1648
32616W        W47747  11.541   3.865  15.100  0.1108 -0.1905  0.0385
32617W        W47748   6.144  11.035  15.600 -0.1899 -0.2647 -0.0437
32618W        W47749  15.262   2.222  14.769 -0.0179 -0.0285  0.0331
32619W        W47750  13.298   2.185  12.960  0.0994  0.2420  0.1089
32620W        W47751  15.208  15.782   2.838  0.0390  0.1820 -0.1286
32621W        W47752  16.916  10.131   5.457  0.1114 -0.1335 -0.0195
32622W        W47753   2.590   9.642  11.630  0.1120  0.0338 -0.0379
32623W        W47754  14.500   7.661   2.702  0.1157  0.1595  0.0274
32624W        W47755   2.893  11.975   2.597  0.1685 -0.1728  0.0553
32625W        W47756   2.140   1.352  15.506  0.1093 -0.0000 -0.0640
32626W        W47757  15.007  11.901  11.526 -0.0248 -0.0529 -0.2495
32627W        W47758   7.123  15.051  11.858  0.0679 -0.1852 -0.2517
32628W        W47759   3.068  13.171   3.895  0.1924 -0.0525  0.2190
32629W        W47760   1.116  16.820   5.670 -0.1814  0.3767  0.0373
32630W        W47761   0.307   5.158   3.358  0.1671  0.2765 -0.1912
32631W        W47762   4.628  14.719   4.601  0.0708  0.3408 -0.1711
32632W        W47763  11.025   4.154  11.543  0.0934  0.0750 -0.2108
32633W        W47764   0.483  13.996  15.285  0.0156 -0.1541  0.1523
32634W        W47765  17.686   9.767  13.596  0.0809  0.0057  0.0520
32635W        W47766  15.244  15.119  13.936  0.1203 -0.0365 -0.0067
32636W        W47767  11.221   4.223   4.227 -0.0104 -0.1405 -0.0595
32637W        W47768   3.556   6.629  15.239 -0.1824  0.1532  0.0610
32638W        W47769   9.507  15.656  15.974  0.0437 -0.1291  0.2117
32639W        W47770  14.228  17.034   3.891 -0.1010  0.1787  0.1801
32640W        W47771  17.655  11.290  14.535 -0.3959  0.0905  0.2652
32641W        W47772   9.218   3.158  11.254  0.2587 -0.0455  0.2399
32642W        W47773  11.183   1.937  15.170 -0.2009 -0.1881  0.3995
32643W        W47774  15.699  11.340  13.447  0.0018  0.1839  0.0633
32644W        W47775   0.283  12.783   5.752  0.1481 -0.0283 -0.2663
32645W        W47776   4.197  11.053   5.749 -0.0357 -0.0232  0.1712
32646W        W47777   5.624  12.347   6.045 -0.1019  0.1037  0.0997
32647W        W47778  11.002   0.066   5.546 -0.0570 -0.0508  0.1051
32648W        W47779   3.247  11.033   3.441 -0.1492  0.1299 -0.0548
32649W        W47780   7.776  15.774  14.070 -0.2955 -0.1383  0.2397
32650W        W47781   1.334   0.297  16.365  0.0903  0.0260 -0.1572
32651W        W47782   7.046  13.354   6.088 -0.0411  0.0128  0.2982
32652W        W47783  11.785   2.183  12.821 -0.0121  0.1133  0.1061
32653W        W47784  15.688  10.188   4.550  0.1915  0.2191  0.0301
32654W        W47785   2.616  10.635  11.817  0.0060 -0.0032 -0.3744
32655W        W47786   8.496   6.757  11.848  0.3387 -0.2114  0.0116
32656W        W47787   0.391  14.392   2.396  0.2582 -0.0514  0.1209
32657W        W47788  10.644  12.811   3.153 -0.2347  0.1189 -0.2113
32658W        W47789   4.283  12.314  11.290 -0.1532  0.1627 -0.0592
32659W        W47790  10.258  12.263   0.813 -0.3393 -0.1012  0.1348
32660W        W47791  16.511  14.294  12.850  0.0910  0.1857 -0.0160
32661W        W47792   8.832   1.182  11.988  0.0260  0.2707 -0.1058
32662W        W47793   6.790   3.847   5.469  0.1097  0.0537  0.1623
32663W        W47794  12.298   0.446   0.620  0.3590  0.3939 -0.0160
32664W        W47795  14.090  16.281   4.119  0.2193  0.0545  0.0533
32665W        W47796   7.461  16.058   4.872 -0.0556  0.1438 -0.0610
32666W        W47797  13.605   9.446   3.345 -0.2174  0.3186 -0.1481
32667W        W47798  13.861   7.984  11.086 -0.1236 -0.0382  0.0916
32668W        W47799  13.818  12.169   0.133  0.1620  0.0629  0.0236
32669W        W47800   1.555  17.778  14.418 -0.0592 -0.0980 -0.0654
32670W        W47801   7.171  14.138  12.096 -0.3915  0.0055  0.2171
32671W        W47802   7.680  17.928   5.022 -0.1671 -0.0676  0.0390
32672W        W47803  13.475   6.540  10.930 -0.1006 -0.0329  0.4265
32673W        W47804  11.209   0.395   2.121 -0.1724  0.0119  0.1061
32674W        W47805   0.881  12.038   4.071  0.1400 -0.2867  0.2533
32675W        W47806   1.879   7.722   5.623 -0.1426  0.2869  0.0532
32676W        W47807  16.963   8.103   0.895  0.1280  0.0812 -0.1964
32677W        W47808  12.243   7.661  14.000 -0.0707  0.1875  0.2869
32678W        W47809   6.261   8.977   2.447  0.0754  0.3022 -0.0813
32679W        W47810   0.793  16.281  16.229  0.0270 -0.2022 -0.2082
32680W        W47811  11.957   8.970  14.282 -0.2716 -0.2227 -0.1116
32681W        W47812  17.787   9.335  12.349 -0.2378  0.0382 -0.2106
32682W        W47813   0.665   6.962   1.899 -0.1956  0.1435 -0.0334
32683W        W47814  10.107   5.587  14.967  0.0076  0.0146  0.2771
32684W        W47815   2.071   1.494   2.006 -0.2297 -0.1132 -0.1849
32685W        W47816   8.521  16.974   3.824 -0.0938 -0.1560  0.1056
32686W        W47817  15.021  16.927   4.788  0.3591 -0.1545 -0.1002
32687W        W47818   9.883   1.591   2.709 -0.2565 -0.0766  0.3106
32688W        W47819   5.118   2.499  14.693 -0.0474  0.2825  0.1117
32689W        W47820   5.008   3.976  16.147  0.0539  0.0644 -0.0394
32690W        W47821   7.051   3.255   2.926 -0.2120 -0.2949  0.1602
32691W        W47822   5.985   2.779   0.273  0.0470  0.1449  0.1754
32692W        W47823   8.608   3.352  15.119  0.2071 -0.1610  0.0355
32693W        W47824  16.811   4.369  14.821 -0.1187  0.1368  0.1439
32694W        W47825  15.935   1.476  15.173  0.2748 -0.1420 -0.0431
32695W        W47826   9.301   6.281  12.549 -0.0819  0.2744 -0.0586
32696W        W47827  10.759  15.227   3.665 -0.0717 -0.0609 -0.1318
32697W        W47828   5.022   7.580  15.481  0.0055 -0.0897  0.2251
32698W        W47829  14.776   0.058   5.125 -0.4264 -0.0891  0.0968
32699W        W47830  16.742  15.565   1.390 -0.0487  0.3429  0.1604
32700W        W47831   3.567   1.068  13.898  0.2851  0.0243  0.2384
32701W        W47832   0.142  15.446   0.731 -0.1346  0.2131  0.0810
32702W        W47833  13.323   0.332   2.214 -0.2438  0.0474  0.5800
32703W        W47834   2.807   9.242   2.402 -0.0770  0.0919  0.3408
32704W        W47835   7.032   7.512   0.908 -0.3593  0.3616 -0.0515
32705W        W47836   1.258   1.693   0.943 -0.3795  0.2259 -0.2838
32706W        W47837   8.707   3.995  11.075 -0.1363  0.1976 -0.0773
32707W        W47838   9.998   5.957  13.737 -0.0620 -0.1847  0.0050
32708W        W47839   0.398   8.956   6.117  0.1658  0.0103  0.1898
32709W        W47840  16.255   7.181  14.050  0.0644  0.1855  0.0938
32710W        W47841   2.719  11.512   2.813 -0.2767 -0.0731  0.3066
32711W        W47842  10.432   2.730  13.266  0.0201 -0.0948  0.3606
32712W        W47843   9.574   8.865  11.765 -0.0465 -0.0658 -0.1012
32713W        W47844  12.339  11.161   1.115  0.0404 -0.1984 -0.1659
32714W        W47845   6.620   0.543  10.648 -0.3693  0.2269 -0.2956
32715W        W47846  13.881  12.805  14.995 -0.0999 -0.0143  0.0433
32716W        W47847  11.021   4.903  10.749 -0.0064  0.0974  0.1713
32717W        W47848   3.989  18.052   4.526  0.1242  0.1030 -0.0370
32718W        W47849   3.526   9.145  12.871  0.1083  0.1829 -0.3183
32719W        W47850   8.729  13.453   3.232  0.0082  0.2987  0.1029
32720W        W47851   4.836   4.394  11.241 -0.2179 -0.1524  0.1438
32721W        W47852   0.025  17.244  11.162  0.3269  0.1322 -0.1458
32722W        W47853  15.136  16.346   4.969  0.1815  0.1683 -0.3779
32723W        W47854  11.010  11.688   4.776 -0.0075 -0.0371  0.0673
32724W        W47855  13.530  15.768  11.680 -0.2845 -0.2142  0.0486
32725W        W47856   8.253   9.255  13.918  0.0987  0.2360  0.0667
32726W        W47857  13.816   7.482  15.815 -0.0103  0.3570 -0.0086
32727W        W47858   0.379   2.700   1.111 -0.0605 -0.1394 -0.1681
32728W        W47859  17.472   9.159   3.474 -0.1195  0.3900 -0.4488
32729W        W47860  15.342   2.252   0.586  0.3441  0.1671  0.0734
32730W        W47861  16.687   7.256   5.334 -0.1550  0.1449  0.2389
32731W        W47862   3.731   8.577   5.831 -0.0489 -0.4233  0.0416
32732W        W47863   1.049  15.972   3.334 -0.1405 -0.1665 -0.1459
32733W        W47864   2.913   3.902   1.289  0.2094 -0.0959  0.1165
32734W        W47865  13.093   6.320   3.599  0.0781 -0.2100 -0.0311
32735W        W47866   1.730   6.596   0.585  0.2005 -0.0337 -0.0973
32736W        W47867   2.582   6.491  16.358 -0.0912 -0.0451 -0.0222
32737W        W47868   0.351  17.711   0.705  0.2085 -0.0040  0.0854
32738W        W47869   8.778   2.312   3.121 -0.1101 -0.0338 -0.1344
32739W        W47870   9.591  17.388  15.467 -0.1965  0.0677  0.0524
32740W        W47871  12.513  11.654   5.683  0.2145  0.1143  0.1362
32741W        W47872  11.430   3.951   4.733  0.0272  0.0428 -0.0120
32742W        W47873   0.463  13.530   1.583 -0.1034 -0.4682  0.3191
32743W        W47874  11.352   3.746  15.573 -0.1040  0.2055  0.3163
32744W        W47875   2.802   8.877   1.444  0.2209 -0.2196 -0.2229
32745W        W47876   6.742  15.719  15.050 -0.0211 -0.1958 -0.1046
32746W        W47877  13.230   8.253  12.584 -0.2612  0.1326  0.0449
32747W        W47878   9.958   9.202   4.955 -0.2487 -0.2559  0.2742
32748W        W47879   3.208   4.927  15.859 -0.1496 -0.1676  0.1509
32749W        W47880  13.172   4.485   4.751 -0.0262  0.3010  0.0538
32750W        W47881   4.057   5.217   0.579 -0.2547  0.1717 -0.0155
32751W        W47882  17.071  13.335   5.416 -0.0436 -0.0009 -0.2624
32752W        W47883  13.437   6.277   1.282  0.1272  0.2346 -0.1802
32753W        W47884  10.227   4.024   4.015  0.1148  0.1470 -0.0437
32754W        W47885   8.739  14.222  15.111 -0.0449 -0.0895  0.0057
32755W        W47886   6.329   1.941   3.172 -0.1056 -0.5272  0.0414
32756W        W47887   5.080  17.824   4.205  0.1197 -0.2580 -0.0529
32757W        W47888   0.317  10.071  13.320  0.0410  0.0499 -0.1867
32758W        W47889   0.276  14.529   1.824 -0.2033  0.0319 -0.0315
32759W        W47890   0.311  14.948  15.543  0.1533  0.1247  0.2083
32760W        W47891   7.478  15.589   5.351 -0.1407 -0.0741  0.0874
32761W        W47892   2.679   0.370   0.304  0.0003 -0.2451  0.1281
32762W        W47893  10.077   8.775  11.204 -0.0740  0.0837  0.2645
32763W        W47894   0.406   8.028  14.079  0.1101  0.0374  0.4841
32764W        W47895   3.891  15.841  16.282  0.1848  0.1645  0.0880
32765W        W47896  12.851   4.749  10.730  0.2453 -0.0413 -0.1199
32766W        W47897   2.845   5.975  15.612  0.0822  0.2349 -0.2584
32767W        W47898   9.868  10.196   4.484  0.2335  0.1493 -0.1429
32768W        W47899   9.022  17.412  13.346 -0.0200  0.1756 -0.0993
32769W        W47900  11.588  17.224  14.876 -0.0588  0.1388 -0.1872
32770W        W47901   6.961   5.801  15.706 -0.0670  0.1340 -0.0692
32771W        W47902   2.609  11.709   4.634  0.1774  0.1231 -0.0819
32772W        W47903  15.160  10.689  15.629  0.0330 -0.1079 -0.2753
32773W        W47904  15.034   0.938   5.881 -0.0168 -0.2911 -0.0943
32774W        W47905  10.007   2.589  11.771  0.1161 -0.0035  0.2118
32775W        W47906  11.832   2.225   1.163 -0.0139 -0.1911 -0.2628
32776W        W47907   4.586   5.029   3.354 -0.0520  0.0349 -0.0884
32777W        W47908   8.198   6.445   0.318  0.2768  0.0528 -0.1619
32778W        W47909  14.645   7.581  12.605 -0.2179 -0.0677 -0.5013
32779W        W47910   1.733   1.130  13.976 -0.0028 -0.2340 -0.2947
32780W        W47911  13.487   4.252  11.733  0.1931 -0.1535 -0.0936
32781W        W47912   5.063   6.345   1.682 -0.0455  0.2403  0.2289
32782W        W47913  13.569   5.891  14.952  0.3503  0.3409 -0.3368
32783W        W47914  16.498   2.614   4.531  0.0049  0.0070 -0.0360
32784W        W47915  13.972  10.750   3.415  0.0999 -0.2305 -0.1000
32785W        W47916  12.427   3.843   2.526  0.2832  0.2170 -0.1353
32786W        W47917  14.698   5.476  12.993  0.0273 -0.0694  0.1816
32787W        W47918  10.974  16.245  11.031  0.2248  0.1651 -0.1791
32788W        W47919  15.052  14.086   4.928  0.1080 -0.0158  0.2275
32789W        W47920   8.563  15.614  10.879 -0.1095 -0.1773 -0.1058
32790W        W47921   0.214   8.742   3.704  0.2635  0.1130 -0.1442
32791W        W47922   6.659  12.691   1.032 -0.1041  0.0996 -0.0458
32792W        W47923   4.545   2.523  14.557 -0.3613 -0.1228  0.1098
32793W        W47924   6.624  14.784  16.050 -0.1463  0.0582  0.0300
32794W        W47925   6.078  14.559  15.091  0.0127  0.0977 -0.3304
32795W        W47926  14.972   4.453   1.450  0.0878  0.3276 -0.4828
32796W        W47927  13.953   2.892   1.174  0.1709 -0.3852  0.1970
32797W        W47928  15.112   8.719  16.018  0.1464  0.1287 -0.0109
32798W        W47929  15.547  11.614  12.348 -0.0087  0.0404  0.0614
32799W        W47930  17.144   0.453  14.764  0.2356 -0.2353  0.2091
32800W        W47931   5.266  10.371  14.991 -0.3429  0.5401  0.1245
32801W        W47932  17.358  11.702   1.717 -0.3117 -0.3415  0.1621
32802W        W47933  11.765  17.422   3.890  0.0137 -0.0011  0.1326
32803W        W47934   5.408   8.566  11.571  0.1509 -0.0601 -0.1593
32804W        W47935   3.968  13.405   1.546 -0.1388  0.3816  0.1712
32805W        W47936  13.043  11.408  13.037  0.6452 -0.2116 -0.1673
32806W        W47937  11.897   2.098   2.061 -0.0291  0.0191 -0.2690
32807W        W47938  17.267   7.396  13.011  0.2555  0.0958 -0.1409
32808W        W47939  10.560   4.739  14.488  0.2316  0.0096 -0.1067
32809W        W47940  13.304   0.030  14.756 -0.2211 -0.1029 -0.1094
32810W        W47941  14.840   3.043  12.963  0.1595 -0.3173 -0.0505
32811W        W47942   6.988  10.045  15.481 -0.0493  0.2709  0.1514
32812W        W47943   0.931   4.314   4.060 -0.0968  0.4355  0.1800
32813W        W47944   8.317   0.619  15.351 -0.4712 -0.1871 -0.2269
32814W        W47945   3.622   6.334   1.551  0.0971 -0.0952 -0.2377
32815W        W47946  10.463   5.432  14.558 -0.3754  0.3308 -0.1038
32816W        W47947   3.156   9.513  16.260 -0.0960 -0.2623 -0.1154
32817W        W47948  15.335  11.726   1.697  0.1190  0.0284  0.0583
32818W        W47949  17.902  14.379   1.637 -0.0006  0.1303  0.2040
32819W        W47950   6.097   6.659   3.590  0.0909 -0.1061 -0.3378
32820W        W47951  13.526  16.070  15.964  0.3504 -0.2887  0.1505
32821W        W47952  12.242   2.998   0.363 -0.1822  0.0075  0.0380
32822W        W47953  12.490   7.278  14.790 -0.0327  0.3439  0.1677
32823W        W47954   7.345   7.312  15.203  0.4927  0.0737  0.3165
32824W        W47955  13.651   7.612   0.642  0.0228  0.0571  0.2727
32825W        W47956   3.137  14.325   2.027 -0.0836 -0.1044  0.0919
32826W        W47957  14.111  11.625  11.830 -0.2394 -0.2065  0.1663
32827W        W47958  18.085   8.234   3.583  0.0344 -0.4145 -0.2169
32828W        W47959  17.021   5.954   5.393  0.1010  0.3543  0.1653
32829W        W47960  11.602   9.213  14.648  0.0062 -0.4062 -0.2878
32830W        W47961  14.336   7.934   3.971  0.0779  0.0972 -0.2307
32831W        W47962   0.846   1.822   1.518 -0.0541 -0.1513 -0.1661
32832W        W47963   8.166  13.630  11.828 -0.0123  0.1304  0.2937
32833W        W47964  10.595  11.154   5.565 -0.0858 -0.0627  0.1410
32834W        W47965  14.053   7.625  14.495  0.0845  0.1192 -0.1035
32835W        W47966   1.759  13.499   5.092 -0.4115  0.0431 -0.0537
32836W        W47967   8.099  15.350   2.887 -0.1365 -0.0974 -0.2097
32837W        W47968   9.107   5.698   2.651  0.1188 -0.2400 -0.0986
32838W        W47969  15.419   7.176  11.297  0.0072  0.1615 -0.0162
32839W        W47970  17.166  16.393   2.066  0.2097 -0.0511 -0.0742
32840W        W47971  10.024  16.070   0.326 -0.3259  0.0928 -0.2595
32841W        W47972   9.463  15.137  13.480 -0.0650  0.0876  0.2832
32842W        W47973  14.567  14.082  15.527 -0.0701 -0.0074  0.1852
32843W        W47974  15.899   8.043   1.812  0.2246 -0.2547  0.0296
32844W        W47975   9.253   5.471  13.662 -0.0056  0.2289  0.1536
32845W        W47976   4.718   9.519   3.281 -0.4173 -0.1502 -0.0713
32846W        W47977   3.659  16.345   4.699  0.0078  0.0351  0.0623
32847W        W47978  11.477   8.193   0.954 -0.1309  0.1327 -0.1398
32848W        W47979   7.165  14.984  14.101 -0.0174 -0.0530 -0.1189
32849W        W47980   2.476   5.280  10.295  0.0284  0.2705  0.0880
32850W        W47981   0.672   6.956   0.803  0.0349 -0.1945  0.0293
32851W        W47982  11.490   1.256   1.961 -0.2201 -0.0371 -0.2512
32852W        W47983  13.625  12.248  13.279  0.0036  0.0969 -0.3108
32853W        W47984   1.884  15.386  14.282  0.2667  0.0664 -0.1046
32854W        W47985   3.952   6.429   1.938 -0.1300  0.0333  0.1179
32855W        W47986  14.096   5.263  10.541 -0.2094 -0.1184 -0.3190
32856W        W47987   2.650   5.967  13.109  0.0061 -0.1924 -0.1516
32857W        W47988  16.430   4.374   0.512  0.0060 -0.2615  0.0643
32858W        W47989  15.241   1.661  15.385  0.0476 -0.0794 -0.1523
32859W        W47990   9.463  13.207   4.658  0.0288  0.0969  0.2255
32860W        W47991  10.360  11.689   2.504  0.1736  0.1014  0.0514
32861W        W47992  10.436   3.904  10.813 -0.0101 -0.0905 -0.0774
32862W        W47993  11.622  11.644   2.095 -0.1152 -0.1953  0.0295
32863W        W47994   7.329  16.779  13.010  0.1890 -0.2208  0.0109
32864W        W47995  11.583  11.104   5.799 -0.1588  0.0184  0.0396
32865W        W47996  16.022   0.446  11.363 -0.3062  0.2290 -0.1561
32866W        W47997   2.493   2.614   4.823  0.2127  0.0025  0.1461
32867W        W47998  17.819  11.145  11.752  0.1957  0.1366  0.3159
32868W        W47999  10.789  13.619  12.645  0.3795  0.2463  0.0772
32869W        W48000   7.732   6.793   2.608 -0.0294  0.1346  0.1813
32870W        W48001   3.282  17.103  16.094  0.0132 -0.0760  0.1836
32871W        W48002  16.597  12.577  14.112  0.1702  0.0679  0.0282
32872W        W48003  16.554  11.797  13.039  0.2363 -0.0387  0.1616
32873W        W48004   2.444   3.222   0.360  0.1373 -0.0530 -0.0560
32874W        W48005  16.387  15.928   4.768  0.0869  0.0480 -0.0923
32875W        W48006   0.144   8.930   5.248 -0.3938  0.1329  0.0488
32876W        W48007  10.826  14.027   2.183 -0.1201 -0.2215  0.1271
32877W        W48008  16.382   0.799  10.433  0.1662  0.1420 -0.0474
32878W        W48009  16.122  12.351   5.066  0.3130 -0.0417  0.1631
32879W        W48010  11.850  12.809  16.407 -0.0767 -0.0621 -0.0175
32880W        W48011   5.871  15.053  15.940 -0.0117 -0.2621  0.2076
32881W        W48012  10.334  17.091  12.789 -0.3662 -0.1074  0.0228
32882W        W48013   7.844   9.226  12.658  0.0683  0.0385  0.3042
32883W        W48014  14.336   1.324  12.116 -0.1994  0.0866 -0.0541
32884W        W48015  17.785   8.656   2.289 -0.0640 -0.0813 -0.0412
32885W        W48016   6.849   6.316   3.199  0.3114 -0.2396 -0.0075
32886W        W48017   2.724   2.413   5.459 -0.0813  0.0505 -0.1704
32887W        W48018   8.008  15.809   1.577 -0.4063 -0.4071 -0.0332
32888W        W48019   4.080  10.212  16.266  0.2118  0.0494  0.1825
32889W        W48020  13.403  15.235   4.747 -0.0391 -0.1249 -0.0369
32890W        W48021   9.218   2.167  13.698 -0.2473  0.0880 -0.3296
32891W        W48022  11.175   7.328   2.117  0.2373 -0.1963 -0.2194
32892W        W48023   3.408   5.442  13.819  0.0552 -0.1379  0.1308
32893W        W48024  14.792  16.821  13.619 -0.2387 -0.1279  0.1651
32894W        W48025   1.325   0.626  15.609 -0.2916  0.1007 -0.0665
32895W        W48026   1.254   8.503  15.062 -0.0234  0.2088  0.0365
32896W        W48027   6.732  14.984   5.726  0.2535 -0.0774  0.0674
32897W        W48028  13.194  16.307   2.561 -0.0111 -0.0303  0.1982
32898W        W48029  11.660  14.138  16.054 -0.2115  0.1200 -0.0711
32899W        W48030   9.914  12.729  14.633 -0.1686 -0.1645  0.0354
32900W        W48031   8.684   0.001   4.227  0.2245 -0.0517  0.2293
32901W        W48032   6.648   4.308  11.776  0.2171  0.1250  0.1355
32902W        W48033   2.328   1.929  14.377  0.1912 -0.1375 -0.1506
32903W        W48034  16.502  15.806  11.482 -0.0687 -0.2507  0.2559
32904W        W48035  13.778   6.618  11.360  0.1763 -0.0523  0.3502
32905W        W48036  13.034   7.192  16.219 -0.4403  0.3088 -0.0697
32906W        W48037   3.237  15.316   2.196 -0.1097 -0.0518 -0.0053
32907W        W48038   2.408   6.475   4.510 -0.1168 -0.3039 -0.1001
32908W        W48039   9.178  16.696   0.222  0.1080  0.2667  0.0859
32909W        W48040   7.765   4.622  11.961 -0.1049  0.2464 -0.0080
32910W        W48041  13.279  16.818  14.245 -0.1095  0.0473 -0.1164
32911W        W48042   7.859  15.199  14.606 -0.1931  0.0592  0.1277
32912W        W48043  10.924   1.271   1.869  0.1008 -0.0118 -0.0600
32913W        W48044   4.869  13.567  14.924  0.0669  0.1253  0.0430
32914W        W48045  17.770   0.630   1.108  0.3395 -0.0322  0.2405
32915W        W48046   4.865   6.086   4.059 -0.0090  0.3142 -0.3124
32916W        W48047  15.215  14.989   0.130  0.0736 -0.0670  0.2352
32917W        W48048   2.425  10.840   1.706  0.1179  0.2327 -0.2701
32918W        W48049  11.226  11.858   1.249  0.1218 -0.2040  0.1685
32919W        W48050   5.392   9.737  14.721  0.1916 -0.2535  0.1167
32920W        W48051  14.154   7.057  10.884 -0.1113  0.2896  0.0523
32921W        W48052  11.658  11.422  16.195  0.0082 -0.0472  0.1089
32922W        W48053   6.466   7.570   6.157  0.0611 -0.3930  0.1921
32923W        W48054  12.091  11.677   0.841  0.3397  0.5398 -0.0453
32924W        W48055  16.306   7.067   4.405  0.1702 -0.2168  0.2682
32925W        W48056  15.463  18.043   1.366 -0.1369  0.0563 -0.0465
32926W        W48057   8.932  10.329   3.556 -0.0135 -0.1810  0.1003
32927W        W48058   0.248   8.146   4.371  0.1011 -0.1225 -0.1081
32928W        W48059   0.381   8.169   6.628 -0.2106  0.0063  0.4236
32929W        W48060  10.239  12.415   5.095 -0.1367 -0.0068 -0.0857
32930W        W48061   8.308  11.525   0.173 -0.0674  0.2638 -0.2064
32931W        W48062   5.964   7.803   2.284 -0.0187 -0.1574  0.0846
32932W        W48063   2.736   5.166  15.055 -0.1711 -0.1858 -0.0461
32933W        W48064  12.613   7.069   4.529  0.0260 -0.2979  0.2552
32934W        W48065   0.400   2.373   0.738  0.3534  0.4962  0.3623
32935W        W48066  16.260   8.929  13.218 -0.1329  0.0105  0.4628
32936W        W48067  17.130   9.519   3.763  0.2330 -0.0301  0.1244
32937W        W48068  17.348  12.476   0.728 -0.2017 -0.1146  0.2418
32938W        W48069  17.977   5.835   1.797  0.1585 -0.2362  0.0708
32939W        W48070   7.695   4.219   5.630 -0.1412  0.0241  0.1097
32940W        W48071  17.609  14.593   2.418 -0.1465 -0.2874  0.1552
32941W        W48072  16.483  14.750   0.797 -0.1510  0.1110  0.0762
32942W        W48073   5.302  16.962   6.262 -0.1510 -0.1240 -0.1149
32943W        W48074  18.026   7.904  14.017 -0.1765  0.3700 -0.1453
32944W        W48075  17.873   4.389  14.609 -0.1659 -0.3845 -0.2632
32945W        W48076   7.951  11.304   0.434 -0.0700 -0.2213  0.1145
32946W        W48077  16.197   0.141  13.864 -0.0437 -0.0204  0.3031
32947W        W48078  17.122  11.463  13.100 -0.0932 -0.0668  0.0519
32948W        W48079   9.679   1.682   0.034  0.0653 -0.1547  0.0154
32949W        W48080   3.445   3.131  11.214  0.1836  0.1182  0.1322
32950W        W48081  12.413   2.184   3.818  0.1357 -0.0536  0.0104
32951W        W48082   1.635  13.873  11.219 -0.0879  0.0502 -0.0653
32952W        W48083  13.012   8.068  13.965  0.2021 -0.4724 -0.2900
32953W        W48084   9.711  10.195   0.600  0.0929  0.0973 -0.0678
32954W        W48085   5.755   6.367  12.812 -0.5934 -0.2188 -0.0565
32955W        W48086  12.245  16.782  12.629  0.0553  0.0865  0.0410
32956W        W48087   4.191  10.643  12.927 -0.0730 -0.2860  0.0484
32957W        W48088   2.470  17.993   0.502 -0.1448 -0.0561 -0.3303
32958W        W48089   8.114   4.028   5.375  0.0966 -0.0007  0.0359
32959W        W48090   0.364  17.155  12.305  0.1739  0.1228  0.1194
32960W        W48091  16.041   3.799   5.079 -0.0008 -0.0994 -0.0935
32961W        W48092  14.046   2.322   1.146  0.0434 -0.0991 -0.1417
32962W        W48093  16.904   8.426   0.090  0.0548  0.1933  0.2991
32963W        W48094  14.873  14.353  13.904  0.1288  0.1987 -0.0521
32964W        W48095   2.738  13.928   2.542 -0.0584 -0.1363 -0.0346
32965W        W48096   5.622   3.420   1.314  0.3546 -0.0422  0.0006
32966W        W48097   8.180   9.386   3.875  0.2721  0.2896 -0.0960
32967W        W48098  10.037  16.906   4.477  0.1150 -0.3213  0.0250
32968W        W48099  17.374   8.193  15.807 -0.2565 -0.0389 -0.1932
32969W        W48100   0.204  15.231  10.538  0.2215 -0.2927 -0.3699
32970W        W48101   8.946   6.922  11.326 -0.2708  0.1896 -0.0394
32971W        W48102   3.121  11.156   0.919 -0.3354 -0.1259  0.0540
32972W        W48103   9.744   0.345  12.325 -0.0436  0.1456  0.0177
32973W        W48104   4.153  15.154  14.713  0.1864  0.0602  0.2674
32974W        W48105   5.749   8.038  16.361  0.0548 -0.0544  0.0154
32975W        W48106   0.708   8.447  15.594  0.1131 -0.1843 -0.2354
32976W        W48107  13.033  14.135  16.400 -0.0818  0.3230  0.1621
32977W        W48108  17.989  13.775   0.733 -0.0408 -0.0242 -0.1105
32978W        W48109  13.937   9.408   3.917  0.1887 -0.2578 -0.0692
32979W        W48110  16.493  10.960   3.215 -0.0188  0.0681  0.0414
32980W        W48111   5.521   6.099  11.159  0.2460 -0.1733  0.1268
32981W        W48112   6.364  12.103  11.827 -0.0545 -0.2884 -0.1454
32982W        W48113   9.680   6.498   4.637 -0.1625  0.0991 -0.1797
32983W        W48114   2.064   2.194   1.165 -0.2107  0.2852 -0.1067
32984W        W48115   3.669   4.604   4.584 -0.1039 -0.1883  0.0084
32985W        W48116   8.505   7.434  13.976 -0.0214 -0.1529 -0.1487
32986W        W48117  14.024  12.665   2.631  0.1240 -0.3134  0.1743
32987W        W48118   7.283  16.946   3.542  0.0077  0.1292 -0.0288
32988W        W48119   6.800   1.431  16.149  0.0725  0.1286  0.0778
32989W        W48120   3.422   0.951   1.786 -0.1656 -0.0481 -0.0313
32990W        W48121   4.523   1.081  13.729 -0.0562 -0.2131  0.0398
32991W        W48122  17.762  10.204  12.341  0.0944 -0.1776 -0.1046
32992W        W48123  13.846   5.834  16.452 -0.3828  0.2092  0.0058
32993W        W48124   6.616  17.147  15.685 -0.1747 -0.2089 -0.1405
32994W        W48125  15.142   5.428   6.523 -0.2109 -0.2448 -0.1094
32995W        W48126  12.917  12.248  14.461 -0.1629  0.1628  0.2508
32996W        W48127   8.127  17.958   5.454 -0.0229 -0.0354 -0.1568
32997W        W48128  13.829  15.758  15.614 -0.1743  0.0507  0.1146
32998W        W48129  12.002  16.017  12.984 -0.2078 -0.1142  0.1162
32999W        W48130  13.267   5.233  15.853 -0.1552 -0.2625 -0.2568
33000W        W48131  16.253   2.986  10.215 -0.0788  0.2706  0.1223
33001W        W48132   2.185  17.956   3.630  0.0963  0.0744  0.2017
33002W        W48133   4.941   3.964  12.752  0.0376  0.0544  0.2978
33003W        W48134  14.175   9.550   1.496  0.0643 -0.0355 -0.1304
33004W        W48135  12.464  10.475   0.028 -0.0125 -0.1990  0.2110
33005W        W48136   8.961  11.324  11.337 -0.1316  0.1673 -0.2194
33006W        W48137  11.339   8.752  11.973 -0.2377 -0.2061 -0.0945
33007W        W48138  11.305   4.866  16.269  0.0255 -0.0192  0.1087
33008W        W48139  10.951   2.654  14.015 -0.0270  0.1021 -0.3060
33009W        W48140  17.348  16.560  11.501  0.2389 -0.1227 -0.0441
33010W        W48141   1.137  10.791   3.788 -0.0029 -0.0725 -0.0415
33011W        W48142   3.605   4.463  11.472 -0.1093  0.0889 -0.0665
33012W        W48143  17.313   1.599  14.519 -0.0109  0.0277  0.0650
33013W        W48144  15.294   6.618  12.351  0.2918  0.0453  0.0746
33014W        W48145  10.419   6.008   2.351  0.0889  0.0886  0.0775
33015W        W48146   7.043   0.792   0.833  0.1174  0.1645  0.0198
33016W        W48147  16.290  14.685  14.171 -0.1822 -0.3699  0.0452
33017W        W48148  15.214  11.952   0.751  0.0482 -0.2033 -0.1536
33018W        W48149   7.742   4.846  13.118  0.0040 -0.2962  0.0106
33019W        W48150   4.465  12.871   4.346  0.1397 -0.2070  0.0407
33020W        W48151  14.530   8.348  16.017  0.2829 -0.0423  0.0453
33021W        W48152   6.547   8.596   5.051 -0.0935 -0.2900 -0.1367
33022W        W48153  16.787   7.439  14.339 -0.2250  0.1811 -0.1356
33023W        W48154  13.917   9.887   1.891  0.2838 -0.0304  0.0237
33024W        W48155   9.669   9.543  12.562  0.1063 -0.1942 -0.1499
33025W        W48156   6.396   5.331   4.405  0.2199  0.4665  0.1294
33026W        W48157  13.348  11.074  15.048 -0.3707 -0.2523  0.1142
33027W        W48158  11.319   7.009   5.532 -0.4232 -0.1826  0.2070
33028W        W48159  11.342   6.720  11.171  0.1624  0.1650  0.1620
33029W        W48160  11.627   6.749   3.669  0.2197  0.0817 -0.3135
33030W        W48161   9.880  17.593   4.838 -0.0542  0.1801  0.1403
33031W        W48162   5.527   6.919  15.069 -0.1224 -0.2921 -0.0239
33032W        W48163   7.188   7.919  11.935 -0.1055 -0.0299  0.0155
33033W        W48164   5.209  13.270  12.956 -0.0380 -0.1588  0.0470
33034W        W48165   3.812  17.830  13.212 -0.2188 -0.2491  0.2156
33035W        W48166   2.437  15.253  14.022 -0.0452  0.1593 -0.2101
33036W        W48167   0.780  13.622   3.867  0.2879 -0.0082 -0.3470
33037W        W48168   7.550   7.315   3.276 -0.3012 -0.0469 -0.4223
33038W        W48169   9.913  10.539   5.402  0.0441 -0.2390 -0.0645
33039W        W48170  14.627  11.619  14.205 -0.4285  0.1735  0.0922
33040W        W48171  12.276   2.640   3.649  0.0232 -0.1495 -0.1545
33041W        W48172   9.701  15.777   4.871  0.1574  0.1549  0.1425
33042W        W48173  12.942  15.944   4.726 -0.0566  0.2540  0.1981
33043W        W48174  10.344  12.548  11.716  0.0552  0.0507 -0.0112
33044W        W48175  13.340   0.185  12.375  0.0985 -0.2417 -0.0954
33045W        W48176  17.957   5.488   3.940 -0.1140 -0.3366  0.0973
33046W        W48177   4.838  15.212   3.674 -0.0064  0.0945  0.0932
33047W        W48178   1.217  17.332   3.804  0.1556  0.1386  0.2080
33048W        W48179  10.185   4.343   2.613  0.1723 -0.1982 -0.1688
33049W        W48180   2.497   4.394   3.031 -0.0630 -0.0258  0.1082
33050W        W48181  10.379   2.426   0.774 -0.1895  0.0651 -0.0578
33051W        W48182  15.433   4.861   3.088 -0.2735  0.0518  0.1311
33052W        W48183   8.187   2.869  15.863 -0.2112  0.0288  0.2654
33053W        W48184   4.374   4.463  12.695 -0.1263 -0.1328  0.0173
33054W        W48185   0.859  13.351   4.399 -0.2096  0.2456 -0.2059
33055W        W48186  14.779  11.030   1.570  0.0830  0.0859  0.0985
33056W        W48187   5.555   2.052   2.347 -0.0396 -0.1037  0.0635
33057W        W48188   8.809   5.742  13.848 -0.1827  0.3175  0.1150
33058W        W48189   5.127   7.329   9.765  0.0750 -0.2824 -0.2638
33059W        W48190  13.655  16.976   0.957  0.1373  0.0604 -0.1329
33060W        W48191   8.724  12.590   4.920  0.0212 -0.0376 -0.1015
33061W        W48192   4.442   8.463   0.107 -0.1406  0.0978  0.2522
33062W        W48193   5.934   9.183  14.790 -0.3920  0.0360 -0.0157
33063W        W48194  11.024  17.729  15.494  0.0227  0.1263  0.3591
33064W        W48195   8.941  15.215   0.967 -0.0730  0.1825  0.2597
33065W        W48196   2.309   1.783   0.462  0.0074 -0.0341  0.0041
33066W        W48197  11.959  14.985  13.037  0.2835  0.0674  0.0380
33067W        W48198   4.471   9.934  16.044 -0.3199  0.1183  0.2944
33068W        W48199  17.035  11.410   5.156 -0.0676 -0.1579  0.2826
33069W        W48200  15.934  10.830   1.440  0.0966  0.0808  0.0189
33070W        W48201   4.785   6.592   0.878 -0.2888  0.1566  0.2621
33071W        W48202   9.783   9.284  15.417 -0.1858  0.3685 -0.2926
33072W        W48203   8.195   2.568  11.044 -0.0156  0.0031  0.1188
33073W        W48204   6.685   1.287  14.944 -0.0094  0.0740  0.1015
33074W        W48205  16.297   3.751  13.858  0.0241  0.1293  0.1462
33075W        W48206  15.429  11.060   0.978 -0.0646 -0.0009 -0.1771
33076W        W48207  13.747  12.087   1.872  0.0820  0.2851 -0.0961
33077W        W48208   1.721   5.582   4.540  0.0837 -0.0378 -0.1617
33078W        W48209   8.972  16.770   2.915 -0.2249 -0.0150 -0.1890
33079W        W48210  16.499  11.341   2.262 -0.1394  0.0001 -0.0193
33080W        W48211   1.566  15.184  11.216 -0.0033 -0.1313  0.0002
33081W        W48212   0.586   2.962  15.555  0.0457  0.2307  0.1764
33082W        W48213  13.505   9.105   0.886  0.1630  0.0165  0.0788
33083W        W48214  17.324   1.796   4.589 -0.0306  0.0609 -0.4812
33084W        W48215  12.774  11.826  13.915  0.1152  0.3385  0.2758
33085W        W48216  18.108  13.111   5.450  0.1205 -0.0581  0.2892
33086W        W48217   9.818  10.867   2.430 -0.1975  0.2687  0.1891
33087W        W48218   8.552   9.218  15.322  0.3119 -0.2541  0.4664
33088W        W48219   5.251   7.507  11.783  0.2999  0.1757  0.1432
33089W        W48220   7.804  14.188  14.956  0.1903  0.3749 -0.1505
33090W        W48221  11.349   2.561  12.032  0.1429 -0.1638 -0.0703
33091W        W48222  12.679   8.671  12.119  0.1772  0.0340  0.1375
33092W        W48223  17.937   5.667   5.857  0.2556 -0.0414 -0.0678
33093W        W48224   5.096   0.328   0.750 -0.1320 -0.2329  0.2927
33094W        W48225  17.705   3.991   5.906 -0.2233  0.0223  0.3991
33095W        W48226  11.487   1.220  14.620 -0.0542  0.4618 -0.3034
33096W        W48227  15.592   0.013   2.090 -0.0031  0.1215 -0.3005
33097W        W48228   1.504  11.307   0.695 -0.2325  0.0826 -0.4211
33098W        W48229  14.089  11.794  12.366 -0.0781  0.0451 -0.2883
33099W        W48230   3.698   9.698   2.189  0.0081 -0.0433  0.0007
33100W        W48231   8.031  14.586  14.715  0.0129  0.2801  0.0621
33101W        W48232   2.539   2.809   0.592 -0.0416  0.1800 -0.1031
33102W        W48233  14.871   2.306   1.244 -0.3072  0.3574  0.1927
33103W        W48234  13.453   1.513   0.062  0.2477 -0.0585 -0.3757
33104W        W48235  17.270  16.969   3.852  0.1566  0.0933  0.0003
33105W        W48236   8.173   3.943   4.066  0.0499 -0.1409 -0.0571
33106W        W48237   2.897  12.126   4.818  0.1599 -0.0998 -0.1049
33107W        W48238   3.800  10.678  14.010  0.1436 -0.1894 -0.0178
33108W        W48239   7.670  16.014  16.417 -0.1413 -0.0350 -0.1240
33109W        W48240  12.693   1.060  12.496 -0.0669 -0.1705 -0.0475
33110W        W48241   3.221   8.940   2.267 -0.1123  0.2450 -0.2312
33111W        W48242  15.529   1.623   0.594 -0.1959 -0.1089 -0.0999
33112W        W48243  11.003  12.990   1.777 -0.2432  0.0951  0.1642
33113W        W48244  17.585   0.671  16.115 -0.1115  0.0368  0.0460
33114W        W48245  16.613   3.421   0.495 -0.1947 -0.1225  0.0319
33115W        W48246  17.236   7.322  15.294 -0.2164 -0.2572 -0.1599
33116W        W48247  10.992   1.380   1.293 -0.2110  0.1880 -0.0643
33117ION     NA48248  17.413   6.077  14.421  0.3999  0.0274 -0.0664
33118ION     NA48249  12.389   4.638  10.515  0.2706 -0.0963 -0.3171
33119ION     NA48250  17.835  16.465  14.028 -0.3139 -0.1821  0.3498
33120ION     NA48251   5.325  11.649  10.309  0.0910 -0.1859 -0.1422
33121ION     NA48252   2.702   6.800  10.399 -0.1100 -0.2900 -0.1464
33122ION     NA48253   1.209   4.619   1.117 -0.1343  0.0455  0.1298
33123ION     NA48254   4.220   9.635   9.879  0.1437 -0.1810 -0.0965
33124ION     NA48255  10.014   3.070   9.942  0.3491  0.0098  0.2388
33125ION     NA48256   3.827  14.720   3.757 -0.0731  0.0281  0.1975
33126ION     NA48257  16.828  16.147  10.511 -0.2791 -0.1876  0.1999
33127ION     NA48258   0.328   0.396   0.292 -0.0581  0.0175 -0.1198
33128ION     NA48259   5.501   7.555  10.091  0.3021  0.4883 -0.0674
33129ION     NA48260   7.571   8.477  10.318 -0.0306  0.1199  0.2068
33130ION     NA48261   4.894   9.001   9.971  0.1853  0.2733  0.2058
33131ION     NA48262  12.127   3.150  10.239 -0.2241  0.3253  0.0886
33132ION     NA48263   4.923   8.257   9.978  0.2877 -0.0680  0.1657
33133ION     NA48264  11.735   1.315  10.276  0.0616 -0.3158 -0.3583
33134ION     NA48265  15.979   4.475  10.576 -0.0553  0.0734 -0.0635
33135ION     NA48266  15.006   4.917  10.427 -0.0536  0.2925 -0.1096
33136ION     NA48267   7.549   0.896   6.129 -0.1108  0.2397 -0.1811
33137ION     NA48268   0.522  18.024  10.229  0.0030 -0.4691  0.0730
33138ION     NA48269  14.419  15.855   5.922 -0.0426 -0.0021 -0.0075
33139ION     NA48270   2.886   7.179   2.629  0.0217 -0.3216 -0.2144
33140ION     NA48271   6.011  11.920  12.475 -0.0243 -0.2117 -0.1263
33141ION     NA48272   9.360   9.149   0.309  0.2818  0.1314 -0.1761
33142ION     NA48273   7.044   0.142  10.816 -0.0033  0.0315  0.1992
33143ION     NA48274  12.154   0.720   3.064  0.4296  0.1658 -0.1686
33144ION     NA48275   3.810   3.332  10.205  0.4065 -0.2498 -0.2577
33145ION     NA48276  15.177   5.796  10.766  0.0745  0.0993 -0.1117
33146ION     NA48277  12.266  11.572  10.492  0.3325 -0.3949  0.2443
33147ION     NA48278  15.373  15.700   5.655 -0.0297 -0.0703 -0.0482
33148ION     NA48279  16.817   5.027  10.862 -0.3121 -0.1376 -0.0177
33149ION     NA48280  16.321   3.554  12.646 -0.1605 -0.0490  0.0701
33150ION     NA48281  11.722   3.793   1.627  0.0497 -0.1971  0.0377
33151ION     NA48282  14.705   7.666   6.030  0.2288 -0.3763  0.1654
33152ION     NA48283  14.301  12.742  10.364 -0.0651  0.2223  0.1775
33153ION     NA48284   8.426   2.477  10.201 -0.2557  0.1676  0.0162
33154ION     NA48285   7.331  15.537  11.949  0.1319  0.4985 -0.0298
33155ION     NA48286  13.194   1.897  10.812 -0.0195  0.3603 -0.2358
33156ION     NA48287   2.612   0.800  12.653 -0.1752  0.1049 -0.0316
33157ION     NA48288   7.598  17.772  10.815  0.2389 -0.2820 -0.0481
33158ION     NA48289  10.648   3.728  10.031 -0.1509 -0.1193  0.1824
33159ION     NA48290   8.508  10.604  10.071 -0.2619  0.3800 -0.0300
33160ION     NA48291   9.345   7.249  10.035  0.1808 -0.1991  0.1295
33161ION     NA48292  12.018  13.448  10.469  0.2857 -0.0115 -0.3444
33162ION     NA48293  11.640   3.815  10.298 -0.1141 -0.0098  0.1766
33163ION     NA48294  10.531   7.630   9.930 -0.1880 -0.1688  0.1225
33164ION     NA48295   6.703  10.890  10.062  0.1141  0.0750  0.1695
33165ION     NA48296  16.749  15.423  10.614  0.0595 -0.3199  0.1050
33166ION     NA48297   5.012   1.235   2.724 -0.1925 -0.0729 -0.2007
33167ION     NA48298  12.903  17.490   2.561 -0.2784  0.1342 -0.0757
33168ION     NA48299   4.443   0.586  10.536  0.1920 -0.0132 -0.0505
33169ION     NA48300  17.359  17.966   1.465 -0.0091  0.0341 -0.0066
33170ION     NA48301   9.133  14.623  10.535  0.1942 -0.1514  0.1826
33171ION     NA48302   3.576   1.104  10.389 -0.3289 -0.4834  0.1651
33172ION     NA48303  14.463   7.127  10.395  0.1713  0.0740  0.1712
33173ION     NA48304   9.462  12.837   5.050 -0.0485 -0.0046 -0.0686
33174ION     NA48305   4.377  17.695  10.624 -0.3917  0.0769  0.0771
33175ION     NA48306  17.230   9.490   4.662 -0.0080  0.0175 -0.1760
33176ION     NA48307   2.242   5.803  10.484 -0.0803  0.0384 -0.2846
33177ION     NA48308   4.481   5.298  14.590 -0.2864  0.1133 -0.2642
33178ION     NA48309  16.100   3.450   6.082 -0.1837  0.3622  0.0784
33179ION     NA48310  10.493  17.067   5.833 -0.0167  0.0432 -0.1601
33180ION     NA48311  16.211  16.405   5.499 -0.1434 -0.0088  0.1065
33181ION     NA48312   7.608  13.034  16.368  0.0855 -0.0173  0.0805
33182ION     NA48313   0.545  16.410  10.506 -0.0637 -0.2262 -0.0219
33183ION     NA48314  11.391   0.405  10.402  0.2066  0.2744  0.1066
33184ION     NA48315   2.177  15.332  16.447 -0.1589 -0.4394 -0.0865
33185ION     NA48316  14.176   3.518  11.109 -0.0018 -0.1555 -0.2324
33186ION     NA48317  13.613   0.784  10.542  0.2733  0.3008 -0.2399
33187ION     NA48318  10.089   7.698   6.156 -0.3209 -0.0153  0.0392
33188ION     NA48319  12.374  17.299  12.548 -0.0604  0.0453 -0.0375
33189ION     NA48320   3.970  17.237  11.789 -0.1070 -0.0207  0.1774
33190ION     NA48321   4.864   7.498  12.302  0.1404 -0.0064  0.0373
33191ION     NA48322   8.435   4.713  12.808 -0.2038 -0.0105  0.0948
33192ION     NA48323   1.835  17.312   1.417 -0.1732 -0.0112  0.1049
33193ION     NA48324  10.223  16.126  14.493 -0.1362  0.2291 -0.1611
33194ION     NA48325   7.590   9.248  10.324  0.1394  0.0942  0.1200
33195ION     NA48326  16.816   1.396   5.997  0.1307  0.1625  0.0292
33196ION     NA48327   0.291  17.569   3.397 -0.1661 -0.5702 -0.0999
33197ION     NA48328  16.182   6.124  10.784 -0.0031 -0.1341 -0.0083
33198ION     NA48329  11.168  11.652   3.502  0.1320  0.3904  0.0796
33199ION     NA48330  11.210   5.874  10.816  0.3217  0.1262  0.1840
33200ION     NA48331  13.130   4.736   0.562  0.0890  0.1059  0.0415
33201ION     NA48332  11.449   4.826  10.106 -0.0711 -0.1100 -0.1747
33202ION     NA48333  17.666  14.681  10.511  0.2012 -0.1668 -0.2187
33203ION     NA48334  12.079   3.442   5.421 -0.0287  0.0316  0.0678
33204ION     NA48335   0.223  16.045  10.501  0.0201 -0.3477 -0.2782
33205ION     NA48336   0.686  17.099  15.094  0.0817  0.0288  0.0432
33206ION     NA48337   4.744  15.916   2.819  0.2065  0.2352  0.1240
33207ION     NA48338  12.350  17.139  10.327  0.1718  0.3240 -0.2840
33208ION     NA48339   6.076  15.755  11.097  0.0425  0.0190 -0.2979
33209ION     NA48340  14.174   8.787  10.354 -0.2879  0.0652 -0.0673
33210ION     NA48341  17.523  13.622  16.367 -0.2981 -0.1112  0.0460
33211ION     NA48342  13.092  11.009  10.165 -0.2164 -0.0202  0.1852
33212ION     NA48343  17.905  10.611   5.613 -0.0015  0.1228  0.2978
33213ION     NA48344   9.019  11.185  10.419 -0.2287  0.0240 -0.1075
33214ION     NA48345   6.442  17.188  10.687 -0.1495  0.1230 -0.0319
33215ION     NA48346  17.221   2.925  10.504  0.0037 -0.0832 -0.1467
33216ION     NA48347   0.845   4.743  13.755  0.0013  0.0945 -0.3373
33217ION     NA48348  15.305   4.725  14.039 -0.1429  0.1487  0.2517
33218ION     NA48349  12.335  10.848   5.443  0.0579  0.1792 -0.0975
33219ION     NA48350   7.247   2.079  10.296 -0.2010  0.1309  0.0005
33220ION     NA48351   2.064  13.342   5.970 -0.1353 -0.1787 -0.0623
33221ION     NA48352   9.787   3.976   9.750  0.2522 -0.1318  0.1886
33222ION     NA48353   8.648   2.348  13.292  0.0936  0.3577  0.3126
33223ION     NA48354   8.130  11.511   5.768  0.2655 -0.0615 -0.0225
33224ION     NA48355   6.849  10.456  13.185  0.2021  0.0570 -0.3896
33225ION     NA48356   5.650   3.399  10.094  0.0588 -0.2399 -0.1809
33226ION     NA48357   4.069   8.897   0.117  0.1413 -0.2096 -0.0504
33227ION     NA48358  17.677   5.452  10.786  0.2444 -0.0014  0.1978
33228ION     NA48359  16.763  16.789  15.606  0.1390 -0.0926 -0.1487
33229ION     NA48360   6.197  11.462  10.236  0.1226  0.0360  0.0612
33230ION     NA48361   0.424   1.021  10.334  0.2096  0.0560  0.2305
33231ION     NA48362  15.089   2.450   6.156 -0.2862  0.0514  0.0937
33232ION     NA48363   6.068   3.079  10.766 -0.1830  0.2597  0.0445
33233ION     NA48364  13.822  14.648  10.506 -0.1381  0.3632  0.2293
33234ION     NA48365   0.338   3.657   5.924 -0.3718  0.0033  0.3270
33235ION     NA48366  10.729   7.656   5.489  0.2784  0.1290  0.0515
33236ION     NA48367  14.190   7.525   4.235 -0.1340  0.0259  0.1684
33237ION     NA48368   6.185   7.607  10.094 -0.1054  0.1040  0.1948
33238ION     NA48369   3.450   9.197   9.628 -0.1015 -0.1527 -0.1185
33239ION     NA48370   4.633  17.650   5.621  0.1228 -0.0061  0.3612
33240ION     NA48371   3.817   1.949  10.353 -0.2691  0.0658 -0.0958
33241ION     NA48372  16.033  12.472   6.133  0.1062 -0.2040  0.0927
33242ION     NA48373   1.695  13.549  10.310  0.1182 -0.0704  0.2580
33243ION     NA48374   2.121  15.132  11.571  0.0298 -0.0896 -0.2465
33244ION     NA48375   4.102   5.472  11.666 -0.1708 -0.0571  0.2001
33245ION     NA48376  17.845   7.949  11.013  0.1841 -0.1726 -0.0484
33246ION     NA48377   5.489  18.059  10.433  0.1100  0.2514  0.1058
33247ION     NA48378  17.794   6.116   6.189  0.1067 -0.0313 -0.0129
33248ION     NA48379   9.645  11.539   0.601 -0.2402 -0.1442 -0.0102
33249ION     NA48380   8.569   4.218   9.770 -0.2209 -0.1103  0.3200
33250ION     NA48381  15.051   3.388  13.214 -0.1792 -0.1648  0.0323
33251ION     NA48382   7.296  14.715  10.204 -0.1388 -0.0045 -0.3236
33252ION     NA48383   1.633   9.525  10.257 -0.1384  0.2071  0.0384
33253ION     NA48384  17.243   8.876  10.237  0.2226 -0.1685  0.0230
33254ION     NA48385  15.689  16.170  10.384 -0.2373 -0.2137 -0.0609
33255ION     NA48386   8.613  10.575   5.580 -0.0914  0.1173  0.0811
33256ION     NA48387  13.252   3.053  10.686  0.1384  0.2091 -0.1778
33257ION     NA48388  16.491  17.389   5.553  0.0071 -0.1340  0.2730
33258ION     NA48389   0.811  11.154   5.591  0.0409 -0.0317  0.2267
33259ION     NA48390   3.549   1.677  12.586 -0.4296 -0.0316  0.0174
33260ION     NA48391   0.222   7.982   6.160  0.1413  0.1994 -0.0228
33261ION     NA48392   7.800   3.162  12.369 -0.0225  0.1734 -0.0264
33262ION     NA48393   8.288  14.704   2.507 -0.3354 -0.0953 -0.2797
33263ION     NA48394  12.000   5.983  10.345  0.1390  0.1488 -0.0301
33264ION     NA48395   9.932  16.221  10.348 -0.1158  0.0995 -0.1079
33265ION     NA48396   4.033   4.811   2.643 -0.0199 -0.2329  0.1733
33266ION     NA48397  13.158   2.392   5.999  0.3126 -0.0492 -0.2569
33267ION     NA48398  11.527  14.337  10.382 -0.0545  0.1120 -0.0620
33268ION     NA48399  11.927  12.270  10.602  0.0481  0.1593 -0.0225
33269ION     NA48400   0.311   6.255  10.744 -0.0206 -0.0500 -0.1920
33270ION     NA48401   0.499   2.531  10.496 -0.1647 -0.1810  0.0365
33271ION     NA48402   6.522   9.596  10.150  0.1685  0.2131 -0.1879
33272ION     NA48403  10.696  10.061  10.145 -0.3098  0.1612 -0.0218
33273ION     NA48404   5.294  10.682  10.100 -0.0617  0.0842  0.0160
33274ION     NA48405   6.196  15.439   4.861 -0.2726  0.0249 -0.1109
33275ION     NA48406  14.134  17.012  10.485  0.0247 -0.2278  0.1283
33276ION     NA48407   5.916   4.315   9.922 -0.0230 -0.0012  0.1051
33277ION     NA48408  12.647   7.462  10.388 -0.4331 -0.1277  0.2558
33278ION     NA48409   1.703  15.619   6.013 -0.0821  0.1896 -0.3435
33279ION     NA48410   2.808   0.113  10.504 -0.0292 -0.1144 -0.0461
33280ION     NA48411  15.871  13.208   5.733  0.2211 -0.2082  0.0133
33281ION     NA48412  17.772   7.274   5.810  0.0045 -0.1298  0.1478
33282ION     NA48413  11.486  14.539   5.902  0.2530  0.4050 -0.0560
33283ION     NA48414   0.578  14.064   6.024  0.0971  0.1519 -0.1590
33284ION     NA48415  10.719  11.385   6.007 -0.1571  0.2020 -0.1634
33285ION     NA48416  11.091  10.908  10.346  0.1117  0.2166  0.1558
33286ION     NA48417   7.669  11.627  10.535  0.2313 -0.2855 -0.0951
33287ION     NA48418   4.249   9.688  14.115 -0.1266 -0.2723  0.1491
33288ION     NA48419  14.775  11.126  10.537 -0.1648  0.0733  0.0178
33289ION     NA48420   7.721   8.484   0.028  0.0721 -0.0095  0.1044
33290ION     NA48421  11.931   9.334   5.902  0.2590  0.1372 -0.0559
33291ION     NA48422   0.855  10.417  10.437 -0.1041  0.2558  0.1751
33292ION     NA48423   4.651   8.069   5.633  0.1841 -0.0684  0.1245
33293ION     NA48424   8.981  15.936  10.546  0.1502  0.3211  0.1659
33294ION     NA48425   2.384   7.228  14.702 -0.1862  0.0467 -0.0359
33295ION     NA48426  10.465   8.439  15.337  0.2934  0.1279 -0.1190
33296ION     NA48427   3.405  12.470   3.883 -0.1696 -0.0520  0.0792
33297ION     NA48428   0.240   0.298   2.603  0.0207 -0.0120  0.0989
33298ION     NA48429   9.977   4.908   9.920 -0.3844  0.1513 -0.3475
33299ION     NA48430   9.499  11.625  15.382  0.1099 -0.1663  0.1550
33300ION     NA48431  15.165   7.103   1.390 -0.1201  0.0828  0.2065
33301ION     NA48432   0.944   7.040   0.351 -0.0029 -0.0306 -0.3086
33302ION     NA48433  11.606   9.983  10.344 -0.1175 -0.0596  0.1996
33303ION     NA48434   1.009   7.953  10.228  0.0239  0.1868 -0.5691
33304ION     NA48435   7.651  14.698  15.802  0.0665  0.1246 -0.1642
33305ION     NA48436  10.725  13.865  10.476  0.0398 -0.0498  0.1173
33306ION     NA48437  10.658   4.386   1.452 -0.2645 -0.2463 -0.0406
33307ION     NA48438   3.345   7.990   9.987  0.2013  0.1437 -0.0004
33308ION     NA48439  13.277   4.605  10.336 -0.0460 -0.1560  0.1473
33309ION     NA48440   8.691   9.062  11.804 -0.1955  0.1838  0.1419
33310ION     NA48441   5.665  16.531  10.783 -0.2752 -0.3915  0.1618
33311ION     NA48442   4.530  12.281  10.050 -0.0447 -0.0659  0.1788
33312ION     NA48443  14.427   5.264  10.907 -0.0442  0.0694  0.2505
33313ION     NA48444  12.139   9.708   4.113  0.1136 -0.0906 -0.0053
33314ION     NA48445   6.376   2.308   2.000  0.1454 -0.0139 -0.1250
33315ION     NA48446  16.981   7.676  10.688  0.2993  0.1746 -0.3011
33316ION     NA48447  12.208  10.555   6.188 -0.3079  0.3549 -0.0605
33317ION     NA48448   2.117  12.176   5.491  0.2055 -0.0108  0.0543
33318ION     NA48449   8.148  14.885  10.554 -0.1168  0.2263 -0.2086
33319ION     NA48450   4.858  15.886  10.876  0.0141  0.1436  0.1746
33320ION     NA48451  12.925   5.604  10.482  0.0378  0.1193  0.1136
33321ION     NA48452  16.825  13.774   6.155  0.1598 -0.2720 -0.0421
33322ION     NA48453   5.915   3.848   2.158 -0.2716 -0.2227 -0.0524
33323ION     NA48454   6.158  11.490  13.947  0.2459 -0.2638  0.0930
33324ION     NA48455   4.652   6.286  14.349 -0.3441 -0.0232 -0.0103
33325ION     NA48456   6.489  10.836  11.871 -0.1616  0.0056 -0.4954
33326ION     NA48457  10.824   2.895  10.127 -0.0490  0.0428 -0.0258
33327ION     NA48458   1.336   0.274   2.337 -0.0039 -0.0227  0.2546
33328ION     NA48459  10.681   4.387   9.992  0.1251 -0.0588 -0.0220
33329ION     NA48460   0.099  12.520  10.666 -0.3758  0.5365 -0.0136
33330ION     NA48461  11.673   0.209   3.603 -0.1224 -0.1749 -0.2056
33331ION     NA48462   3.288   2.111  10.267 -0.0387 -0.3407 -0.2184
33332ION     NA48463   9.046  10.127  10.400 -0.0291 -0.0051  0.1278
33333ION     NA48464   5.404   0.841  10.652  0.0935 -0.0297 -0.0533
33334ION     NA48465   8.559   8.128   5.969  0.1497 -0.1304  0.1201
33335ION     NA48466  13.811  10.782  10.393  0.1972 -0.0351 -0.1767
33336ION     NA48467   3.366   3.596   5.735  0.1016 -0.0036 -0.0213
33337ION     NA48468   2.224   7.356   5.888 -0.3102 -0.2663 -0.2091
33338ION     NA48469   2.919   4.394  10.258 -0.2830  0.0647  0.0488
33339ION     NA48470  13.607   3.761  10.436  0.0415  0.0185 -0.0659
33340ION     NA48471   2.458  10.448   5.554  0.1569  0.0708  0.2042
33341ION     NA48472  16.701  14.577  10.809  0.1577  0.1747  0.1117
33342ION     NA48473   8.153   9.921   4.044  0.2889 -0.0315  0.0419
33343ION     NA48474   5.997   6.616  10.062 -0.1242 -0.1156 -0.2539
33344ION     NA48475   4.265   3.770   5.676 -0.1526  0.2669  0.0881
33345ION     NA48476   6.913  16.290  10.642  0.1796  0.0478 -0.1297
33346ION     NA48477  12.552  17.085   0.066  0.0874 -0.0533  0.3146
33347ION     NA48478   5.541  14.634  10.231  0.2971 -0.0850  0.1928
33348ION     NA48479   4.115  10.637  10.284  0.1630 -0.0215  0.1221
33349ION     NA48480  14.503  14.546   5.859  0.0445 -0.0764  0.2568
33350ION     NA48481   3.128  15.996   1.403 -0.1004 -0.0558  0.0657
33351ION     NA48482   0.289  11.602  10.423  0.0456 -0.2571 -0.0780
33352ION     NA48483  11.056  14.462   6.239 -0.0896 -0.0202 -0.1448
33353ION     NA48484   6.856   4.427  10.116 -0.3153  0.0653 -0.2289
33354ION     NA48485   0.422   1.158   6.172  0.0917 -0.1417 -0.0758
33355ION     NA48486   7.119  16.896  15.522 -0.0015 -0.1819  0.0175
33356ION     NA48487  16.054   4.633  11.074 -0.3265  0.1757 -0.3421
33357ION     NA48488   4.781  10.587   5.418 -0.2326 -0.1795 -0.3020
33358ION     NA48489   5.462  16.325  15.694 -0.1274 -0.0196 -0.3676
33359ION     NA48490  10.579   5.384  10.024 -0.0268  0.0503 -0.2800
33360ION     NA48491   5.222  13.716  10.132  0.0923  0.0636  0.1013
33361ION     NA48492   5.164  12.849  10.415  0.3233 -0.1192  0.0987
33362ION     NA48493  14.236   4.179  10.388  0.1052  0.0419  0.0202
33363ION     NA48494   0.462  12.392   6.070 -0.1245  0.1247 -0.0193
33364ION     NA48495  11.770  15.550   5.766  0.3253 -0.1371  0.2812
33365ION     NA48496  13.773  13.427  10.778 -0.0833  0.1435  0.0786
33366ION     NA48497   2.755   4.678  14.647 -0.2174 -0.1940  0.0735
33367ION     NA48498  11.206  12.357   3.950 -0.2997 -0.0741  0.2770
33368ION     NA48499  12.792   6.098  10.478  0.0474  0.2016 -0.2530
33369ION     NA48500   3.459  13.228  10.242  0.0107  0.0342  0.3543
33370ION     NA48501  14.923  15.461  10.505 -0.3444  0.2842  0.0422
33371ION     NA48502   2.086   2.775  10.454  0.1922 -0.4018 -0.1067
33372ION     NA48503   2.384  12.846  10.221  0.4188 -0.1143  0.0817
33373ION     NA48504   9.903   2.555   9.963  0.1308 -0.1788  0.4536
33374ION     NA48505   2.232  16.413   5.621 -0.0149 -0.3863  0.0432
33375ION     NA48506   8.976   9.472   9.997  0.1284 -0.4164 -0.0616
33376ION     NA48507   4.317  17.095   6.198  0.0357  0.2806  0.1309
33377ION     NA48508   1.168  14.044  10.601 -0.0546  0.0440 -0.1147
33378ION     NA48509   4.657   3.769  10.180  0.2878  0.0524 -0.0884
33379ION     NA48510   8.458  15.288   6.079 -0.0964  0.1205 -0.1896
33380ION     NA48511  12.457  14.797  10.185 -0.0714  0.0491  0.0282
33381ION     NA48512   4.804  11.789  12.005  0.1594  0.1742 -0.1608
33382ION     NA48513   4.972   9.251  15.451 -0.2573  0.2935 -0.2194
33383ION     NA48514   9.796   2.421   5.929  0.2922 -0.0331  0.0365
33384ION     NA48515   3.575   6.899  10.311  0.2295 -0.3791 -0.0130
33385ION     NA48516  13.241   4.158   3.175  0.0307 -0.2481 -0.2256
33386ION     NA48517   9.948   5.073  11.180 -0.3851  0.3793  0.2479
33387ION     NA48518  12.921  17.727  10.179  0.1933 -0.2543  0.1987
33388ION     NA48519  16.645   2.181  10.371  0.1912 -0.2581 -0.1065
33389ION     NA48520   2.428  15.232   5.798 -0.1431 -0.0094 -0.0300
33390ION     NA48521   1.724   7.892   0.875 -0.0667 -0.4057 -0.0661
33391ION     NA48522   1.426  11.747   5.637  0.0252 -0.0764  0.0042
33392ION     NA48523  17.519  15.608  10.402 -0.0007 -0.3030 -0.1839
33393ION     NA48524   1.028   7.033  10.683 -0.2119 -0.0201  0.2618
33394ION     NA48525   2.823  14.933  10.244  0.0266  0.0438 -0.0843
33395ION     NA48526   4.874  18.035  10.502 -0.0163  0.3787  0.0860
33396ION     NA48527  13.111  10.061  10.500 -0.1900 -0.1397  0.0328
33397ION     NA48528  11.603   8.022   3.054 -0.3533 -0.1914  0.1348
33398ION     NA48529   3.574   3.174  10.738  0.0987 -0.0561  0.0193
33399ION     NA48530   0.498   3.331  10.566  0.0207 -0.2474  0.3369
33400ION     NA48531  12.826   7.157   6.373 -0.0795  0.1211 -0.2828
33401ION     NA48532  17.701   7.118  10.818 -0.1017 -0.1481 -0.2992
33402ION     NA48533   9.302  16.215  10.272  0.1388  0.1017 -0.2659
33403ION     NA48534  14.740  15.908  12.824 -0.2724  0.3141  0.0514
33404ION     NA48535  10.148   7.639   1.630 -0.0362  0.1434 -0.1704
33405ION     NA48536  16.519  17.639  10.469  0.1145  0.0898 -0.0501
33406ION     NA48537  12.334  12.905   2.858  0.3253 -0.0567  0.0196
33407ION     NA48538  16.804  12.641   2.466  0.0377 -0.3439  0.2087
33408ION     NA48539   9.823  12.934  10.375  0.1008  0.1662  0.2338
33409ION     NA48540  16.301   0.267  10.437 -0.0341  0.1931 -0.1016
33410ION     NA48541   4.796  12.700   5.474  0.0302  0.1276  0.0460
33411ION     NA48542   9.214   1.759  10.193 -0.0195 -0.2816 -0.0519
33412ION     NA48543  15.934   1.224   3.847  0.2182 -0.0253 -0.0084
33413ION     NA48544   2.114  14.228  10.270  0.1804 -0.0332  0.1544
33414ION     NA48545   6.967  13.916  10.318 -0.1748 -0.1285  0.1592
33415ION     NA48546   8.483   8.319  10.537 -0.2256  0.2134 -0.4409
33416ION     NA48547   7.826   7.917  15.648 -0.0324  0.0020  0.0717
33417ION     NA48548  18.087   0.852  12.176  0.0263  0.0874 -0.2514
33418ION     NA48549  14.706   0.392  10.609  0.2620  0.0434 -0.1720
33419ION     NA48550   2.484   7.713  10.201 -0.0365 -0.4218 -0.2303
33420ION     NA48551   0.336   8.731   1.214  0.0461  0.0721  0.0473
33421ION     NA48552   2.980   4.827   5.597  0.1036 -0.2270 -0.0584
33422ION     NA48553  13.542   6.833   5.998  0.1615 -0.2514  0.0597
33423ION     NA48554   0.326  14.404  10.207 -0.0624 -0.1002 -0.2002
33424ION     NA48555   0.781   1.728   3.373  0.1125  0.1618 -0.0823
33425ION     NA48556  13.104  16.778  10.441 -0.0634 -0.2379  0.0430
33426ION     NA48557  11.221   5.171   5.666 -0.1749 -0.0443  0.1464
33427ION     NA48558   1.165  15.787  10.475  0.1375 -0.1340  0.2201
33428ION     NA48559  13.714   2.298   2.905 -0.1029  0.1475 -0.0628
33429ION     NA48560   5.881  16.875   2.217  0.1308 -0.0029 -0.2259
33430ION     NA48561  10.906  16.741   5.959  0.2696  0.0431  0.1314
33431ION     NA48562   8.983   3.566  10.020  0.2690 -0.2382 -0.1576
33432ION     NA48563   9.057   2.592  10.026  0.0820  0.0390  0.3288
33433ION     NA48564  10.630  14.025   5.806  0.0785 -0.0714  0.0047
33434ION     NA48565   3.031   8.528   5.314  0.2850 -0.4301 -0.1197
33435ION     NA48566  10.089  15.078  10.571 -0.1676  0.0315 -0.0653
33436ION     NA48567   5.199  17.104  10.462  0.0071  0.0181  0.0620
33437ION     NA48568  16.023   4.787   1.472  0.2016  0.2087  0.0738
33438ION     NA48569   0.544   3.062   2.717 -0.0431  0.0106  0.0058
33439ION     NA48570  11.735   8.062  11.085 -0.1606  0.0094 -0.1497
33440ION     NA48571   7.170   7.502  10.008 -0.0940  0.1111 -0.1081
33441ION     NA48572   5.960   7.042   5.947  0.2136 -0.0498  0.1221
33442ION     NA48573   6.982   6.614  10.052  0.2800  0.1185 -0.1690
33443ION     NA48574   2.751   2.218  10.334 -0.0075 -0.0672 -0.2222
33444ION     NA48575  15.125   4.169  10.384 -0.2013 -0.0304 -0.0253
33445ION     NA48576   0.919  10.252  12.926 -0.1115  0.3550 -0.0411
33446ION     NA48577  14.221   1.505  10.602  0.0870  0.0955 -0.3250
33447ION     NA48578   2.393  16.871  10.317  0.2389 -0.0308  0.0161
33448ION     NA48579  16.073  12.088  10.752 -0.1562 -0.0569  0.2529
33449ION     NA48580   2.787  15.921  11.425 -0.1512  0.2493 -0.0331
33450ION     NA48581   6.695   0.729   6.365  0.3169  0.0640  0.0505
33451ION     NA48582  12.422   7.440   4.820 -0.0837  0.0294  0.0273
33452ION     NA48583   2.804   3.137   6.167  0.0628  0.0326 -0.0317
33453ION     NA48584  13.393   3.787  11.548 -0.1974 -0.0977 -0.0112
33454ION     NA48585   6.638   0.424   5.910 -0.0846  0.0573 -0.3662
33455ION     NA48586  16.947   6.722   6.081  0.3510  0.2079  0.1284
33456ION     NA48587  10.738   6.832  10.090  0.0954 -0.1511 -0.0917
33457ION     NA48588  15.216  11.940  10.353  0.2760  0.0553  0.0715
33458ION     NA48589   1.262  16.771  10.572  0.2887  0.0159 -0.0925
33459ION     NA48590  15.912   8.318  10.517 -0.0960  0.0594  0.2379
33460ION     NA48591  13.971   4.768  15.868  0.1123  0.0093 -0.0589
33461ION     NA48592  11.010  16.626  10.532  0.0091 -0.2854  0.0164
33462ION     NA48593   4.360  11.901   5.541  0.2758  0.0782  0.1073
33463ION     NA48594   3.254  14.704   2.676 -0.0542 -0.2385 -0.3925
33464ION     NA48595   2.915   9.637   9.495  0.2244  0.1230 -0.1198
33465ION     NA48596   8.317   5.627   9.549 -0.2292  0.3068  0.0560
33466ION     NA48597   9.107   0.845  10.305 -0.0666  0.1406 -0.1502
33467ION     NA48598  15.685  11.522  10.291 -0.0333  0.0428 -0.1445
33468ION     NA48599   0.571  10.367   5.438  0.0897  0.1127  0.3004
33469ION     NA48600  13.142  15.772  14.300  0.0834  0.0396  0.0299
33470ION     NA48601  17.416  13.450  10.586 -0.0188 -0.0270  0.1190
33471ION     NA48602  15.114  10.369   6.548 -0.1834 -0.1484  0.1349
33472ION     NA48603   2.924   3.013  10.210  0.1970 -0.0924 -0.0560
33473ION     NA48604   2.092   4.014  10.137  0.0611 -0.2052  0.1371
33474ION     NA48605   6.917  17.322   5.732 -0.1774 -0.0639  0.0687
33475ION     NA48606  17.946   8.373  10.742 -0.2405  0.3445 -0.3804
33476ION     NA48607  11.119   9.293   0.926  0.1496  0.1344  0.0213
33477ION     NA48608  13.827   0.902   3.256 -0.4140  0.0711 -0.1120
33478ION     NA48609   6.980  10.174   3.623 -0.1714 -0.0110  0.1701
33479ION     NA48610  13.905  14.520   0.704 -0.1492  0.1105 -0.0502
33480ION     NA48611   1.420   0.077  10.115 -0.0911  0.1255 -0.1647
33481ION     NA48612   6.621  13.257  12.858 -0.0392  0.0078 -0.1018
33482ION     NA48613  12.249   6.760  10.752 -0.0518  0.3045  0.0467
33483ION     NA48614  13.496   8.617   1.081 -0.1158 -0.2305 -0.0504
33484ION     NA48615  16.718  13.730  10.769 -0.1022  0.1158  0.0765
33485ION     NA48616  15.444   9.022   5.133  0.1005  0.0285 -0.1278
33486ION     NA48617   1.353   6.099  10.649 -0.0183 -0.0134  0.0545
33487ION     NA48618   0.530   6.449   4.937 -0.2226 -0.2716 -0.1889
33488ION     NA48619  13.566  11.284   0.142 -0.1468 -0.0551 -0.1311
33489ION     NA48620  15.485  10.441  11.125  0.0479  0.3094 -0.1531
33490ION     NA48621  10.393  12.600  10.711 -0.0248  0.0571  0.1625
33491ION     NA48622   6.531   5.265   9.899  0.2198 -0.1460  0.2001
33492ION     NA48623   2.006  10.397  10.150 -0.0854  0.1677  0.1676
33493ION     NA48624  13.555   6.623  10.227 -0.0436  0.2554  0.0456
33494ION     NA48625   6.047  12.303  10.318 -0.2215  0.1549 -0.0323
33495ION     NA48626  16.043   6.205   1.033 -0.1052  0.0032 -0.1662
33496ION     NA48627   8.736   6.254   3.234  0.1143  0.0513 -0.2939
33497ION     NA48628  10.816   0.276  10.428  0.1387 -0.3153 -0.2262
33498ION     NA48629   9.023   4.936   9.720  0.4843 -0.0389  0.1208
33499ION     NA48630   5.893  14.194   5.031  0.1133  0.0120  0.0376
33500ION     NA48631   3.349  10.258   9.948 -0.0937 -0.0607 -0.2646
33501ION     NA48632  12.584   2.205  10.435 -0.2525  0.0178  0.0380
33502ION     NA48633   4.630   1.562  10.678  0.1438  0.1641  0.0522
33503ION     NA48634   2.276   0.660  10.364  0.2149 -0.2146  0.0978
33504ION     NA48635  15.098  10.174  10.543 -0.0725 -0.0334  0.1545
33505ION     NA48636   3.258  14.377  16.430  0.1772 -0.1674  0.0476
33506ION     NA48637  13.645   8.196  10.356  0.0283  0.3099 -0.0268
33507ION     NA48638   1.344  10.243   2.590 -0.0177  0.2859 -0.1319
33508ION     NA48639   3.392   3.495   1.878  0.2118 -0.1029 -0.3841
33509ION     NA48640   0.527   7.577  10.589 -0.1148 -0.0116  0.0503
33510ION     NA48641   9.864   0.581  10.541 -0.1704 -0.0125 -0.0159
33511ION     NA48642  11.164  17.524  10.407 -0.1521  0.2276 -0.1838
33512ION     NA48643  14.139  17.784  14.707 -0.0242 -0.3132 -0.1348
33513ION     NA48644  10.311  17.696  10.330 -0.0057 -0.2021 -0.0746
33514ION     NA48645  16.983  10.191  10.418  0.4097 -0.3362  0.0550
33515ION     NA48646   0.787   3.817   3.160 -0.0000 -0.0768 -0.2534
33516ION     NA48647  12.905  12.133  10.584  0.1117 -0.1063 -0.2538
33517ION     NA48648  12.925  14.034  10.448 -0.1977 -0.3374 -0.0389
33518ION     NA48649   2.040   2.735   3.491  0.2477  0.2273 -0.1714
33519ION     NA48650   7.270   5.784   1.419 -0.0686  0.0056  0.3089
33520ION     NA48651  12.659  16.470   5.840  0.2405  0.2737 -0.0196
33521ION     NA48652  10.880   8.382  10.070 -0.2008  0.1386  0.2247
33522ION     NA48653  17.440  13.696   2.073  0.4021  0.0337 -0.3047
33523ION     NA48654   5.034  15.433   5.389  0.0721 -0.1012  0.2329
33524ION     NA48655   9.510   6.218   9.795 -0.1135  0.1874 -0.0248
33525ION     NA48656   8.037   1.473  10.218 -0.2985 -0.1987  0.0230
33526ION     NA48657  16.162   0.143   5.544  0.1633  0.3437 -0.1385
33527ION     NA48658  15.815   7.308  12.638  0.0715  0.3452 -0.5383
33528ION     NA48659   6.668   7.889  11.808  0.2243 -0.1897 -0.2881
33529ION     NA48660   3.821  15.118  10.445  0.0304 -0.2936  0.2448
33530ION     NA48661   0.843   8.625  10.252  0.3300 -0.1862 -0.0172
33531ION     NA48662  16.091   0.852  16.093 -0.1983  0.0136 -0.1917
33532ION     NA48663   0.568   1.195  15.263 -0.2711  0.1245  0.3642
33533ION     NA48664   8.030   9.864  10.126  0.0548 -0.0071 -0.1551
33534ION     NA48665  15.785  14.884  12.950  0.3363  0.0364  0.1410
33535ION     NA48666   7.338  11.317  15.877 -0.1509 -0.3085  0.1386
33536ION     NA48667   4.404  10.861   9.937  0.1037  0.0967  0.1397
33537ION     NA48668   7.765   9.092   0.706 -0.2908  0.1424 -0.2334
33538ION     NA48669  14.471   2.457  10.603 -0.1666 -0.2844 -0.0521
33539ION     NA48670  17.365   4.977   2.490 -0.0998  0.4203  0.2153
33540ION     NA48671   2.067  15.494  10.402  0.0168  0.0033  0.1092
33541ION     NA48672  17.510   7.059  12.556  0.0630  0.0442  0.1380
33542ION     NA48673   9.038   8.939  10.083 -0.2218 -0.0166 -0.1856
33543ION     NA48674   1.292   3.836  10.629  0.1163  0.0277 -0.1278
33544ION     NA48675   0.269   9.371  10.275 -0.2074 -0.0689 -0.1015
33545ION     NA48676  17.330   9.373  10.294 -0.3116  0.0689 -0.0600
33546ION     NA48677   3.153  14.714   6.107 -0.2721  0.2954 -0.1523
33547ION     NA48678  16.244   3.106   2.443  0.0118 -0.2205  0.1446
33548ION     NA48679  12.592   0.024  10.845 -0.0585 -0.0101  0.1303
33549ION     NA48680   2.476  11.912  10.067 -0.2379  0.1303 -0.1500
33550ION     NA48681   0.013   2.399  10.640  0.0074 -0.0449 -0.0653
33551ION     NA48682  12.881  14.449   6.048  0.0530  0.2090 -0.2469
33552ION     NA48683   4.246   9.366   5.671  0.1819  0.0783 -0.0063
33553ION     NA48684   8.635   6.552   9.671 -0.1377 -0.0102 -0.0940
33554ION     NA48685  12.456   6.752  12.006  0.0694 -0.2382 -0.1320
33555ION     NA48686  11.764  16.302  10.372  0.0337 -0.1508  0.1323
33556ION     NA48687  18.043   7.120  15.764 -0.0089 -0.1320  0.1392
33557ION     NA48688  16.777   8.193  10.569 -0.0433 -0.2212  0.1467
33558ION     NA48689  17.921   3.366  10.960 -0.0056 -0.0627 -0.1462
33559ION     NA48690  15.279   1.822  10.337  0.0655  0.2871  0.1290
33560ION     NA48691   3.821   5.458  10.334 -0.0858 -0.2104  0.0937
33561ION     NA48692   1.008   8.163   3.883  0.0822 -0.2617  0.1204
33562ION     NA48693  12.631   3.859   4.038  0.0077  0.3314  0.0709
33563ION     NA48694   9.916   0.156   1.974 -0.0686  0.2223  0.3517
33564ION     NA48695  10.885  15.177  10.586 -0.0238 -0.1395  0.2982
33565ION     NA48696   6.715   8.837  10.294 -0.2966 -0.1269  0.3590
33566ION     NA48697  17.913  11.574   6.249  0.5555  0.1097 -0.2814
33567ION     NA48698   0.059   0.124  10.209 -0.1092 -0.1551  0.2855
33568ION     NA48699   0.476   5.618  10.638 -0.0508 -0.0961 -0.0479
33569ION     NA48700  14.668  17.874  10.482  0.3462 -0.0972  0.1738
33570ION     NA48701  10.918  11.900  10.212 -0.1744  0.0025  0.0730
33571ION     NA48702   4.432  15.823  11.834  0.0802 -0.0747  0.1828
33572ION     NA48703   2.674   8.753   9.816  0.2741  0.0145  0.3734
33573ION     NA48704   2.011  13.339   1.556 -0.2363 -0.4737  0.0395
33574ION     NA48705   8.110   4.062   9.879 -0.0244  0.1271 -0.1397
33575ION     NA48706  10.847   2.536  12.971  0.3307 -0.3330 -0.3070
33576ION     NA48707   1.547   1.096  10.804  0.0495 -0.1839 -0.1617
33577ION     NA48708   3.924  16.851  10.445  0.2507 -0.2744  0.2293
33578ION     NA48709   6.655   3.624  10.124  0.0457  0.1688 -0.3819
33579ION     NA48710   9.106   5.471   9.750  0.1778  0.0543 -0.0463
33580ION     NA48711   9.436   2.054   1.642  0.2335 -0.2999 -0.4893
33581ION     NA48712   9.839   9.525  10.060 -0.0564 -0.0105  0.0101
33582ION     NA48713  10.723   0.994  10.411 -0.0123  0.1423  0.2413
33583ION     NA48714   4.523   4.741   4.023  0.0601  0.0744  0.2218
33584ION     NA48715   6.606   0.603  14.679 -0.0867  0.2212 -0.0948
33585ION     NA48716   8.621  10.553   6.057 -0.0652 -0.1245  0.0945
33586ION     NA48717  12.707   1.198  10.626 -0.2625 -0.1154 -0.1075
33587ION     NA48718   5.683   5.442   2.218 -0.2523 -0.1777  0.1608
33588ION     NA48719  13.321   2.865   4.973 -0.0272 -0.0840  0.2561
33589ION     NA48720  13.549  15.430  10.129  0.1169 -0.1502  0.1076
33590ION     NA48721  11.592  10.725   3.179 -0.1252  0.0481 -0.0267
33591ION     NA48722  12.374   9.627  10.326  0.2337  0.2539  0.0919
33592ION     NA48723  12.852   6.205  14.611 -0.2929 -0.2159 -0.2474
33593ION     NA48724  14.057   6.544  10.907  0.1264  0.0236 -0.0218
33594ION     NA48725   9.870  10.190  10.267  0.3941  0.0308 -0.0442
33595ION     NA48726  11.286   5.084   3.145  0.1094  0.0335 -0.1999
33596ION     NA48727   8.374   8.786  10.467 -0.1086  0.0124  0.0373
33597ION     NA48728   3.145   7.767   5.635  0.0175  0.0129  0.2180
33598ION     NA48729  14.987   5.840  12.669  0.2164  0.2629  0.0238
33599ION     NA48730  17.559   1.625   5.066  0.0003  0.2201  0.1794
33600ION     NA48731   5.453  17.828   6.445 -0.0963  0.2485  0.1036
33601ION     NA48732  13.447   8.660   6.012  0.1264  0.2205 -0.1860
33602ION     NA48733  18.058   3.511  15.029  0.0385  0.0564 -0.0281
33603ION     NA48734   5.203  12.194   0.130  0.1758  0.3335 -0.0082
33604ION     NA48735   6.310   4.537   3.811 -0.0643  0.1889 -0.2250
33605ION     NA48736   1.108  14.156   1.555 -0.1835 -0.0925 -0.2341
33606ION     NA48737   1.548   5.337  10.301  0.1244 -0.0287  0.2222
33607ION     NA48738   3.045   5.219  10.222 -0.1385  0.2040  0.0283
33608ION     NA48739   9.147   7.860  10.081  0.2440  0.1639 -0.0575
33609ION     NA48740   4.651   5.310  10.175 -0.0996 -0.0757  0.0684
33610ION     NA48741  10.437   8.507   5.960 -0.0644  0.0102  0.0302
33611ION     NA48742   0.806   6.220  14.006 -0.3966 -0.1036  0.1945
33612ION     NA48743  17.757  16.687  10.402 -0.0182  0.0277  0.1847
33613ION     NA48744  15.378   4.398  12.180 -0.0812 -0.2670  0.1739
33614ION     NA48745   6.650   8.776   2.815 -0.0264 -0.2293  0.0742
33615ION     NA48746  16.012   7.326  10.478  0.0178  0.0128  0.0679
33616ION     NA48747   7.295   5.810   9.679 -0.0129 -0.0724  0.0374
33617ION     NA48748   5.775   2.590   5.751 -0.0639 -0.0567  0.2202
33618ION     NA48749   0.621   2.535   6.251  0.0491  0.2604 -0.1182
33619ION     NA48750   1.861  14.862   6.325  0.1758 -0.0029  0.1260
33620ION     NA48751   7.976  17.228  13.706 -0.1005 -0.0236 -0.1452
33621ION     NA48752   1.912  12.543  10.275  0.1111 -0.1178 -0.3023
33622ION     NA48753  17.095   6.332   2.082 -0.0527  0.2105  0.1548
33623ION     NA48754  17.996  14.934  10.838 -0.1762  0.0402  0.1060
33624ION     NA48755   8.445   7.148  10.373  0.0120  0.0236  0.1003
33625ION     NA48756  14.780   9.306  10.308 -0.1418  0.0386 -0.0234
33626ION     NA48757  17.861  11.546  10.585  0.1495  0.4318 -0.0553
33627ION     NA48758  11.763   8.089  10.368  0.0836 -0.0852  0.0953
33628ION     NA48759  17.243  12.830  10.481  0.2200  0.1645  0.0950
33629ION     NA48760  16.320   1.398   5.903  0.1392 -0.1615  0.2258
33630ION     NA48761   8.835   0.440   5.816 -0.0447 -0.2643  0.0890
33631ION     NA48762   1.429  12.540   5.652 -0.0384  0.0802 -0.1246
33632ION     NA48763   7.563   3.929   9.987 -0.3466  0.0417  0.3722
33633ION     NA48764  17.687  17.623  10.344 -0.0225 -0.0117 -0.1071
33634ION     NA48765  14.630  14.073  10.309  0.2488  0.0837 -0.1186
33635ION     NA48766   3.626  12.772   5.818 -0.1589 -0.0595  0.1534
33636ION     NA48767   7.321   4.894   3.615  0.1372  0.0634  0.1474
33637ION     NA48768  15.398   2.808  10.432 -0.2337 -0.0443 -0.3238
33638ION     NA48769  11.512  17.029  15.539 -0.0917  0.1209  0.0472
33639ION     NA48770  17.031   0.518   5.783  0.1749 -0.0229  0.0204
33640ION     NA48771   6.446   1.602   6.410  0.1816 -0.2807  0.1713
33641ION     NA48772  16.849   3.682  10.537  0.3502  0.1571  0.2005
33642ION     NA48773  15.064   2.359  12.535  0.2761 -0.0876  0.4337
33643ION     NA48774   4.904   7.234  10.263 -0.0072  0.1573 -0.1088
33644ION     NA48775  11.363   7.081   6.039  0.0164 -0.0971 -0.0559
33645ION     NA48776  14.093   5.416   4.861 -0.1818  0.0534  0.0023
33646ION     NA48777  16.850   6.675   0.667 -0.2519 -0.1538 -0.2325
33647ION     NA48778  11.092   1.002   0.450 -0.1940  0.2990 -0.2004
33648ION     NA48779   4.839  17.008   6.376 -0.1378  0.0209  0.2334
33649ION     NA48780  11.490   2.277  14.739 -0.2230  0.1731 -0.0650
33650ION     NA48781   4.142  18.078   1.857 -0.0178  0.0215 -0.4405
33651ION     NA48782   4.675  14.607  10.216 -0.0518 -0.1833  0.0871
33652ION     NA48783   1.008   0.074   5.992  0.0536 -0.0085 -0.1655
33653ION     NA48784   4.091   8.522   9.850 -0.2927  0.0468 -0.1409
33654ION     NA48785   0.476   4.525   6.251 -0.1430  0.1175  0.0176
33655ION     NA48786   7.584  12.546  10.390 -0.0762  0.1483  0.0784
33656ION     NA48787   7.319   3.036  10.313  0.0190 -0.0316 -0.3172
33657ION     NA48788  13.446   9.247  12.609  0.0078  0.0099  0.0480
33658ION     NA48789   7.522  10.454  10.091 -0.6353  0.0536 -0.3640
33659ION     NA48790  13.391  12.354   3.452 -0.0606 -0.1351 -0.1399
33660ION     NA48791   0.139  15.477   2.985 -0.1856  0.0159  0.3348
33661ION     NA48792   4.131  17.821   2.835 -0.1309 -0.1515  0.1352
33662ION     NA48793   1.579  11.080  10.301  0.1271 -0.2047  0.0126
33663ION     NA48794   1.589   1.976  10.344  0.0788  0.0438 -0.1765
33664ION     NA48795  13.111   8.901   1.759  0.1124 -0.0765 -0.1261
33665ION     NA48796  16.551   9.966  10.749 -0.0074  0.1420 -0.1073
33666ION     NA48797   0.090  13.854  10.299  0.0229 -0.0245 -0.1564
33667ION     NA48798   9.581  10.997  10.628 -0.1077  0.1870 -0.3503
33668ION     NA48799  10.903   7.282   5.786 -0.0004  0.1600 -0.0417
33669ION     NA48800  16.628  12.848  14.783  0.1626 -0.0723  0.0011
33670ION     NA48801   6.096  16.900   3.575  0.0034  0.0200  0.0040
33671ION     NA48802  13.393   6.545  12.803 -0.5181 -0.1504 -0.0924
33672ION     NA48803   0.323   1.552  10.311 -0.2556  0.1286 -0.2361
33673ION     NA48804   7.509   0.912  10.575 -0.3264  0.1016 -0.1869
33674ION     NA48805  13.629  16.349   5.985  0.3092  0.0936 -0.0757
33675ION     NA48806   8.217  15.398  10.621  0.1970  0.0142 -0.0171
33676ION     NA48807  12.015   7.430   6.125 -0.0074 -0.1890  0.2358
33677ION     NA48808  11.982   0.749   4.251 -0.0311  0.2504  0.1963
33678ION     NA48809   7.725   0.355   0.511  0.0664 -0.1845  0.1848
33679ION     NA48810  13.563  15.008  12.414  0.0483  0.1182  0.1363
33680ION     NA48811   5.642   5.341   9.879 -0.0987 -0.3572 -0.0930
33681ION     NA48812  14.930  13.425   4.047  0.0784 -0.0506 -0.3734
33682ION     NA48813   8.958   9.430  10.859 -0.0304 -0.1485  0.0504
33683ION     NA48814  11.625   2.090  10.352 -0.1589 -0.2286 -0.0960
33684ION     NA48815  17.456   4.498  10.766 -0.0744 -0.1792  0.1833
33685ION     NA48816   8.481  11.955  10.435 -0.1236 -0.0836 -0.2760
33686ION     NA48817   5.862  10.556  10.156  0.0773 -0.3090  0.2314
33687ION     NA48818  12.030   9.312  11.683  0.1076  0.1562  0.2143
33688ION     NA48819   2.395  10.237   9.751  0.1176  0.1486 -0.2437
33689ION     NA48820  15.643   1.481  12.800 -0.0462  0.1206 -0.2769
33690ION     NA48821   9.221  14.897  12.836  0.2011  0.0942  0.4416
33691ION     NA48822  15.725   9.172   4.241 -0.0362 -0.3908  0.2730
33692ION     NA48823   7.604  16.833  10.434  0.0433  0.2702 -0.1484
33693ION     NA48824  11.712  15.442  10.318  0.3500 -0.0571 -0.0561
33694ION     NA48825   8.620   9.364  14.607 -0.0299 -0.1010 -0.0302
33695ION     NA48826  14.210  13.357  14.305 -0.3815  0.2420 -0.2237
33696ION     NA48827  13.586   2.121   5.817  0.3292 -0.0246 -0.0960
33697ION     NA48828  11.123   5.839   1.337  0.1370  0.1696  0.1356
33698ION     NA48829  12.496  15.766  10.310  0.3974  0.1491 -0.1624
33699ION     NA48830  14.329   9.980  10.093  0.0942 -0.0315 -0.0062
33700ION     NA48831  12.129   7.898  12.625  0.2388  0.0508  0.2038
33701ION     NA48832  13.798  17.855  10.620  0.0443  0.0856  0.1681
33702ION     NA48833   6.079   0.076  10.785 -0.2805  0.0175  0.1284
33703ION     NA48834   0.814  17.174   6.089  0.1617  0.2033  0.3841
33704ION     NA48835   5.740  14.283   3.228 -0.2919  0.1768  0.2636
33705ION     NA48836   2.307   1.033   1.724  0.1990 -0.3512 -0.0046
33706ION     NA48837  11.300   0.967  11.355 -0.0225  0.3691 -0.0170
33707ION     NA48838  17.084  18.055  15.824 -0.4373 -0.0711 -0.0094
33708ION     NA48839   1.465   7.794  10.334 -0.0261 -0.1387 -0.0711
33709ION     NA48840   2.818   2.215   5.918  0.0109 -0.0136  0.0196
33710ION     NA48841  11.192  16.494  16.378  0.0982  0.0419  0.1662
33711ION     NA48842  11.546   6.610   2.851  0.0125 -0.0090  0.0790
33712ION     NA48843  16.466  15.316   2.911 -0.2267 -0.1585 -0.2188
33713ION     NA48844  10.561  11.786  10.590  0.2307 -0.2018 -0.2662
33714ION     NA48845   2.675  13.767  10.549  0.1011  0.3815 -0.0802
33715ION     NA48846  13.206   9.237  11.082  0.0475  0.1225 -0.4754
33716ION     NA48847  14.645   8.299  10.194  0.2366  0.3322  0.0505
33717ION     NA48848   4.298   2.782  10.911  0.3004 -0.0397 -0.3532
33718ION     NA48849   3.717  10.842  14.538 -0.3027  0.0389  0.1241
33719ION     NA48850   7.569  14.751  12.714  0.1142 -0.0912 -0.2858
33720ION     NA48851   8.740  13.497  14.122 -0.2353  0.2203  0.0244
33721ION     NA48852   7.852   8.698   5.759 -0.1109  0.2651  0.1789
33722ION     NA48853  14.414   3.412  15.344  0.0547  0.2969  0.3663
33723ION     NA48854  15.605   0.055  10.490  0.2228 -0.3348 -0.1546
33724ION     NA48855   0.827  11.018  10.203 -0.0163 -0.0013 -0.3469
33725ION     NA48856   9.509  17.959  10.600  0.0904  0.1203 -0.0909
33726ION     NA48857   7.801   0.235   5.306  0.1185 -0.0253  0.0908
33727ION     NA48858   2.873  16.281   0.122 -0.1389  0.1572  0.0136
33728ION     NA48859  11.143   1.652  14.223  0.2582 -0.2911 -0.0521
33729ION     NA48860  13.438  16.784   1.823  0.0124 -0.0172 -0.1501
33730ION     NA48861  14.184   3.243  10.562 -0.2726  0.3655 -0.2012
33731ION     NA48862   2.992   6.189  10.095 -0.1041 -0.0197 -0.0284
33732ION     NA48863  16.744   6.906  10.657 -0.2268 -0.0577 -0.0677
33733ION     NA48864  10.651   0.391   5.497  0.1754 -0.3271  0.1938
33734ION     NA48865  13.753   5.530   6.167 -0.2430 -0.1877 -0.1095
33735ION     NA48866  12.873   3.330   1.511 -0.2124  0.1955  0.2369
33736ION     NA48867   4.444  13.194  10.050  0.0775 -0.1783  0.3469
33737ION     NA48868   4.416  15.986  10.572 -0.2468 -0.1651 -0.2523
33738ION     NA48869   2.943  15.540  10.302  0.1631  0.1220 -0.0744
33739ION     NA48870   9.909   7.968   9.941 -0.3500  0.0687 -0.1669
33740ION     NA48871  16.515   7.035   3.789 -0.2057 -0.0605  0.2673
33741ION     NA48872   6.435  14.665  10.358  0.0705  0.0249  0.2581
33742ION     NA48873  11.571   9.964   2.408 -0.1187  0.0556 -0.0747
33743ION     NA48874   9.380   8.882   5.950  0.1145  0.1202 -0.1775
33744ION     NA48875   4.158  13.797  10.158 -0.0114  0.0871  0.0324
33745ION     NA48876   0.895   0.761  10.199 -0.2230 -0.0616 -0.0205
33746ION     NA48877  11.944  14.003  10.475  0.1566  0.1140 -0.1762
33747ION     NA48878  17.493   8.853  13.379  0.0712  0.0864 -0.2217
33748ION     NA48879   7.008  11.957  10.122 -0.1054  0.1199 -0.1423
33749ION     NA48880  14.915   9.019   4.432  0.1115 -0.0060  0.0494
33750ION     NA48881  15.825   2.413  10.413  0.1094 -0.1711 -0.0166
33751ION     NA48882  15.047  13.243  10.472  0.0058 -0.1764  0.0710
33752ION     NA48883   2.083  17.824  10.550 -0.3117  0.3584 -0.1473
33753ION     NA48884   4.455  11.208   2.133 -0.0822 -0.2735 -0.0102
33754ION     NA48885  15.800  13.261  15.285 -0.1959  0.0766 -0.0221
33755ION     NA48886  10.731  12.250  14.177 -0.0561 -0.2759 -0.3326
33756ION     NA48887  17.105   0.236  10.425 -0.1674  0.2794 -0.0341
33757ION     NA48888   6.838  12.876  10.630 -0.1216 -0.2263  0.0776
33758ION     NA48889   9.802   7.124  12.880  0.0201 -0.0720  0.5463
33759ION     NA48890   4.896   2.568   6.182  0.0702  0.3776 -0.0386
33760ION     NA48891  14.643   1.102   0.725  0.4140 -0.4275 -0.0680
33761ION     NA48892   3.551  17.677  10.658 -0.0166  0.0088  0.0929
33762ION     NA48893  12.354  17.168   2.346 -0.0550 -0.1388  0.1566
33763ION     NA48894  14.325  15.967  10.566  0.1466  0.1427 -0.1565
33764ION     NA48895  16.633  10.979  10.428 -0.0712  0.1392 -0.2049
33765ION     NA48896   7.308  13.623   2.323  0.0976 -0.0919  0.0144
33766ION     NA48897  15.062   5.884   6.304  0.1427  0.1012  0.0024
33767ION     NA48898   8.565  15.997  14.374 -0.1304 -0.0624 -0.2751
33768ION     NA48899   1.119   0.474  15.202  0.3582  0.1270  0.1349
33769ION     NA48900   1.540  12.165  10.246  0.1097  0.1870 -0.2811
33770ION     NA48901   4.178   7.644   9.954 -0.1059  0.1828  0.2020
33771ION     NA48902   4.651   6.449  10.887  0.0150  0.0645  0.4052
33772ION     NA48903  14.634   5.062   6.177 -0.1189 -0.0778 -0.1162
33773ION     NA48904  16.905  11.910  10.732  0.1572 -0.1133  0.1632
33774ION     NA48905   9.735  11.903  10.597  0.1876  0.0307  0.0816
33775ION     NA48906  12.608  12.409   1.177 -0.1936  0.1520  0.2781
33776ION     NA48907  16.085   1.522  10.665 -0.0217 -0.0371 -0.0381
33777ION     NA48908   2.145  13.922   0.532  0.2885  0.1193  0.0456
33778ION     NA48909   9.115  13.654  10.432  0.3004 -0.0426  0.1411
33779ION     NA48910  12.196   3.563  14.878  0.1416  0.0574 -0.1284
33780ION     NA48911  11.757  11.012  10.704  0.0172 -0.1380  0.1987
33781ION     NA48912   0.672  17.514  10.347  0.0726 -0.2480 -0.0785
33782ION     NA48913   8.322  16.654  10.740  0.4099 -0.1104 -0.1424
33783ION     NA48914   8.586   2.667  14.251  0.2767 -0.3392  0.1886
33784ION     NA48915   1.149  15.328  12.923 -0.1022 -0.0879  0.1989
33785ION     NA48916  12.642   8.425  10.308 -0.0951 -0.2523  0.2185
33786ION     NA48917  15.830  14.449  10.637  0.0267 -0.1432 -0.1959
33787ION     NA48918   8.281  16.718   2.324 -0.2568 -0.2005 -0.2650
33788ION     NA48919  16.042   3.354  10.450  0.2048  0.0960 -0.0876
33789ION     NA48920   1.225   9.548   5.618  0.0346 -0.1528 -0.0830
33790ION     NA48921   0.919   2.073  15.323  0.2865 -0.3536 -0.3637
33791ION     NA48922   1.117  14.877  10.304  0.3565 -0.3012 -0.1943
33792ION     NA48923   6.006  16.346  13.638 -0.2191 -0.0407  0.0624
33793ION     NA48924  17.715   1.009  10.626  0.0242 -0.0809  0.0623
33794ION     NA48925   5.055  16.271   1.965 -0.3556 -0.1079 -0.2764
33795ION     NA48926   6.984  16.038   6.138 -0.0284 -0.2979  0.2798
33796ION     NA48927   0.488   5.658   3.395 -0.4189 -0.1256  0.1474
33797ION     NA48928   1.016   8.957  15.663 -0.0223 -0.1564 -0.1520
33798ION     NA48929  10.752   2.037  10.115  0.3513 -0.3607  0.0799
33799ION     NA48930   8.319  13.767  10.465 -0.0704  0.0256 -0.1771
33800ION     NA48931  15.770   1.382   5.416  0.0663  0.0972  0.4926
33801ION     NA48932   2.443   1.391  10.736 -0.2625  0.1676 -0.0998
33802ION     NA48933  10.331   8.740   9.995 -0.1560  0.3234 -0.0502
33803ION     CL48934   4.901   8.405  14.159 -0.2222 -0.0373 -0.1845
33804ION     CL48935  17.017   9.771   4.984  0.3606  0.0953  0.1480
33805ION     CL48936  16.614   7.240   3.295  0.0283 -0.2082 -0.3115
33806ION     CL48937   4.553   5.479  13.705  0.0924 -0.2369  0.3356
33807ION     CL48938   6.253  15.068   0.848 -0.2652 -0.0973 -0.1562
33808ION     CL48939   0.211   5.965   3.685  0.0939  0.1271 -0.1118
33809ION     CL48940  11.717  17.472  11.921  0.3546 -0.2059  0.0958
33810ION     CL48941  18.077   1.211  12.504 -0.2087  0.2261  0.1144
33811ION     CL48942  16.087   9.431   4.503 -0.0862 -0.2314  0.0557
33812ION     CL48943   2.012   2.758  13.787 -0.1637  0.0953 -0.2879
33813ION     CL48944  12.633   7.146  10.801  0.1739 -0.0739 -0.0309
33814ION     CL48945  14.121  14.329   0.236 -0.0255 -0.0069 -0.0971
33815ION     CL48946   1.458   8.971  15.285  0.0474 -0.1834  0.4222
33816ION     CL48947  17.961  14.919   3.386 -0.0469  0.2271 -0.1597
  18.10803  18.10803  16.46164
